Title
82302
    1SAPS     N    1   3.799   3.131  11.191  0.2834  0.4261 -0.2554
    1SAPS   HN1    2   3.734   3.113  11.270  0.2679 -1.7173 -0.7119
    1SAPS   HN2    3   3.873   3.191  11.233  2.4119 -2.8760  0.9334
    1SAPS   HN3    4   3.746   3.183  11.118 -0.9301  0.3034  0.5139
    1SAPS   C12    5   3.859   2.998  11.162 -0.0652 -0.4002 -0.6565
    1SAPS  H12A    6   3.909   3.001  11.067 -0.6208 -3.0433 -1.0662
    1SAPS   C13    7   3.966   2.960  11.262 -0.4498  0.3143 -0.2705
    1SAPS  O13A    8   3.983   3.025  11.370  0.7405 -0.1583  0.2862
    1SAPS  O13B    9   4.056   2.879  11.226  0.0185  0.0501  0.5492
    1SAPS   C11   10   3.744   2.880  11.175  0.1990  0.0656 -0.2814
    1SAPS  H11A   11   3.720   2.863  11.282  1.7190  0.8610  0.2011
    1SAPS  H11B   12   3.792   2.789  11.131 -0.5892 -0.2695 -0.4594
    1SAPS     P   13   3.502   2.821  11.104 -0.3870  0.2229 -0.3382
    1SAPS   O13   14   3.476   2.785  11.249 -0.5047  0.3015  0.4725
    1SAPS   O14   15   3.385   2.890  11.036  0.1284  0.6537  0.3648
    1SAPS   O12   16   3.630   2.918  11.105 -0.0344 -0.0454  0.2934
    1SAPS   O11   17   3.551   2.696  11.014 -0.0413  0.2744  0.0621
    1SAPS    C1   18   3.616   2.714  10.888 -0.3617 -0.2074  0.5748
    1SAPS    HA   19   3.681   2.804  10.888  0.5680 -0.8643 -0.7614
    1SAPS    HB   20   3.680   2.624  10.873  1.2061  1.4191 -2.8374
    1SAPS    C2   21   3.513   2.737  10.768 -0.1180  0.5149 -0.1416
    1SAPS    HS   22   3.440   2.817  10.791 -0.0249  0.9469 -1.2974
    1SAPS   O21   23   3.447   2.614  10.748 -0.1340 -0.1802 -0.1897
    1SAPS   C21   24   3.317   2.612  10.738 -0.1355  0.1472 -0.2982
    1SAPS   O22   25   3.249   2.713  10.747 -0.2038  0.4128 -0.5350
    1SAPS   C22   26   3.264   2.478  10.690 -0.6686 -0.2473  1.0995
    1SAPS   H2R   27   3.344   2.405  10.666 -0.7978 -0.2520  0.6801
    1SAPS   H2S   28   3.207   2.428  10.772 -1.1685 -0.0433  0.8767
    1SAPS    C3   29   3.583   2.783  10.640 -0.1602  0.5282 -0.3225
    1SAPS    HX   30   3.656   2.704  10.611  1.6800  2.1261 -0.1876
    1SAPS    HY   31   3.652   2.869  10.653  0.1582  0.5649 -2.2320
    1SAPS   O31   32   3.500   2.789  10.528  0.0254  0.2800  0.1586
    1SAPS   C31   33   3.422   2.903  10.513  0.6588 -0.1887 -0.7811
    1SAPS   O32   34   3.421   2.994  10.594 -0.5423  0.6582  0.3149
    1SAPS   C32   35   3.333   2.891  10.390 -0.4385 -0.7036 -0.4050
    1SAPS   H2X   36   3.341   2.784  10.363 -1.6618 -0.2679 -2.6396
    1SAPS   H2Y   37   3.376   2.967  10.321  1.8879  0.1925  1.9220
    1SAPS   C23   38   3.174   2.506  10.570 -0.2841  0.0858  0.2738
    1SAPS   H3R   39   3.208   2.593  10.511  1.0104 -0.0664  0.7831
    1SAPS   H3S   40   3.080   2.540  10.619  0.3568 -0.6768  2.0723
    1SAPS   C24   41   3.141   2.387  10.473  0.4188 -0.6801 -0.0119
    1SAPS   H4R   42   3.099   2.306  10.536 -1.7408  0.7305  0.4477
    1SAPS   H4S   43   3.233   2.343  10.430 -0.0655 -0.6368 -1.1015
    1SAPS   C25   44   3.033   2.436  10.375 -0.1324 -0.1801 -0.0171
    1SAPS   H5R   45   2.950   2.503  10.405 -0.8773 -0.5076 -1.2857
    1SAPS   C26   46   3.057   2.411  10.242  0.0260  0.2288  0.1978
    1SAPS   H6R   47   2.978   2.429  10.167 -0.2683 -0.2630  0.3798
    1SAPS   C27   48   3.171   2.337  10.177  0.2046 -0.4078  0.4866
    1SAPS   H7R   49   3.120   2.261  10.113 -2.6162 -0.1140  2.3011
    1SAPS   H7S   50   3.247   2.286  10.240  1.5682  2.5562  1.3299
    1SAPS   C28   51   3.242   2.447  10.107 -0.0849 -0.6050  0.6018
    1SAPS   H8R   52   3.259   2.531  10.176 -1.8693  0.7478 -0.5761
    1SAPS   C29   53   3.292   2.446   9.982  0.4476  0.6044 -0.3369
    1SAPS   H9R   54   3.332   2.542   9.948  2.8770 -0.2812 -0.0902
    1SAPS  C210   55   3.283   2.336   9.873  0.0216 -0.0846  0.2957
    1SAPS  H10R   56   3.233   2.247   9.917 -1.0023  0.6622  0.6536
    1SAPS  H10S   57   3.390   2.322   9.845  0.0246  1.0696 -0.2961
    1SAPS  C211   58   3.204   2.365   9.749 -0.5089  0.0194 -0.4276
    1SAPS  H11R   59   3.099   2.391   9.766 -0.6031  0.1497 -1.1877
    1SAPS  C212   60   3.255   2.384   9.623 -0.3259  0.3266  0.2216
    1SAPS  H12R   61   3.196   2.427   9.540 -0.9263  0.7611  0.8639
    1SAPS  C213   62   3.390   2.369   9.564 -0.3151 -0.0073  0.4888
    1SAPS  H13R   63   3.456   2.415   9.640  1.3227  0.4794 -1.1959
    1SAPS  H13S   64   3.393   2.438   9.477 -1.2659 -2.0461 -1.2248
    1SAPS  C214   65   3.416   2.225   9.523 -0.3329 -0.3187  0.0039
    1SAPS  H14R   66   3.472   2.161   9.594 -1.1142 -0.1121  0.8177
    1SAPS  C215   67   3.399   2.177   9.403  0.4849  0.7211  0.3176
    1SAPS  H15R   68   3.431   2.074   9.384 -0.9579  0.3904 -0.3665
    1SAPS  C216   69   3.341   2.233   9.277 -0.6237 -0.6470  0.1508
    1SAPS  H16R   70   3.277   2.319   9.307 -1.1369 -1.0482  0.2247
    1SAPS  H16S   71   3.272   2.180   9.207  0.9695  0.7165 -2.5154
    1SAPS  C217   72   3.460   2.277   9.191 -0.4763 -0.4667 -0.0781
    1SAPS  H17R   73   3.530   2.326   9.263  1.0570 -2.1258 -0.4060
    1SAPS  H17S   74   3.426   2.358   9.124 -2.5242  1.1176  2.7743
    1SAPS  C218   75   3.522   2.149   9.115 -0.6728 -0.2526  0.5695
    1SAPS  H18R   76   3.445   2.088   9.063  1.6379 -1.6204 -1.3596
    1SAPS  H18S   77   3.563   2.088   9.198  2.6517 -2.4132 -2.5060
    1SAPS  C219   78   3.633   2.203   9.026  0.3201  0.0827  0.0494
    1SAPS  H19R   79   3.695   2.118   8.991 -0.7436 -0.5579 -0.3051
    1SAPS  H19S   80   3.702   2.274   9.076  0.3320 -0.5750  0.9772
    1SAPS  C220   81   3.570   2.256   8.895 -0.3585 -0.4751 -0.8205
    1SAPS  H20R   82   3.491   2.332   8.915 -1.9012 -2.4343  0.7393
    1SAPS  H20S   83   3.520   2.172   8.843 -0.7345 -0.8991  0.2126
    1SAPS  H20T   84   3.649   2.302   8.831  0.0821  0.5366  0.4261
    1SAPS   C33   85   3.191   2.920  10.433 -0.5018  0.2608 -0.2642
    1SAPS   H3X   86   3.181   3.026  10.467 -2.0567  0.9995 -2.8423
    1SAPS   H3Y   87   3.170   2.865  10.527 -1.5077  3.2868  1.3705
    1SAPS   C34   88   3.077   2.877  10.337 -0.9112 -0.5081 -0.3768
    1SAPS   H4X   89   2.974   2.909  10.362 -0.1697 -1.5543  4.3805
    1SAPS   H4Y   90   3.073   2.766  10.337  1.1310 -0.6107 -0.0942
    1SAPS   C35   91   3.107   2.929  10.195  0.2179 -0.4220  0.1767
    1SAPS   H5X   92   3.211   2.909  10.160  1.4943  0.8497  3.0344
    1SAPS   H5Y   93   3.099   3.038  10.215 -2.2037 -1.0473  2.8514
    1SAPS   C36   94   3.004   2.871  10.093 -0.2441  0.7994 -0.7658
    1SAPS   H6X   95   3.007   2.946  10.011 -1.6961  1.2569 -0.4132
    1SAPS   H6Y   96   2.908   2.867  10.149  0.5706  2.6281  0.8522
    1SAPS   C37   97   3.042   2.725  10.064  0.2633 -0.6154  0.1627
    1SAPS   H7X   98   3.020   2.662  10.153  0.4734 -0.5346  0.2710
    1SAPS   H7Y   99   3.152   2.726  10.050  0.3663 -0.0089  0.9820
    1SAPS   C38  100   2.990   2.657   9.935 -0.5472  0.2215  0.0305
    1SAPS   H8X  101   2.880   2.653   9.951 -0.6311 -2.5684 -1.0290
    1SAPS   H8Y  102   3.015   2.550   9.924  0.5026  0.2895  1.6737
    1SAPS   C39  103   3.030   2.737   9.807  0.0857  0.1092  0.5726
    1SAPS   H9X  104   2.971   2.831   9.800 -0.3951 -0.3982 -3.0458
    1SAPS   H9Y  105   3.017   2.669   9.720  1.5704  0.9668 -0.3290
    1SAPS  C310  106   3.178   2.772   9.787 -0.5552 -0.4400 -0.0661
    1SAPS  H10X  107   3.233   2.676   9.791  1.0758  0.4729 -0.1538
    1SAPS  H10Y  108   3.218   2.845   9.861  0.2642 -1.4436  0.4816
    1SAPS  C311  109   3.208   2.828   9.651  0.0989 -0.2622 -0.9380
    1SAPS  H11X  110   3.307   2.879   9.659 -0.0991  0.0958 -0.7171
    1SAPS  H11Y  111   3.146   2.918   9.633  2.0485  1.3396  0.0600
    1SAPS  C312  112   3.209   2.732   9.533 -0.3945 -0.3920  0.4059
    1SAPS  H12X  113   3.110   2.683   9.519 -0.2570 -0.6940  0.4992
    1SAPS  H12Y  114   3.282   2.657   9.570  0.6323 -1.4301 -3.4304
    1SAPS  C313  115   3.261   2.787   9.399  0.0715 -1.1493  0.1999
    1SAPS  H13X  116   3.364   2.827   9.416 -0.1038  0.0355 -1.3630
    1SAPS  H13Y  117   3.191   2.870   9.378 -0.1689 -1.2923  0.4354
    1SAPS  C314  118   3.275   2.693   9.277  0.3817 -0.0991  0.2120
    1SAPS  H14X  119   3.183   2.635   9.252  0.4961 -0.7358  1.2471
    1SAPS  H14Y  120   3.335   2.603   9.305 -0.4617 -1.2208 -1.4837
    1SAPS  C315  121   3.329   2.759   9.153 -0.3153 -0.1373  0.1626
    1SAPS  H15X  122   3.432   2.791   9.179  0.2219 -1.1931 -0.6334
    1SAPS  H15Y  123   3.278   2.855   9.132 -0.2705  0.0194  0.7631
    1SAPS  C316  124   3.334   2.663   9.032 -0.4774  0.4887  0.5408
    1SAPS  H16X  125   3.230   2.630   9.015 -0.5805  0.7861  0.5854
    1SAPS  H16Y  126   3.383   2.569   9.064 -1.7002 -0.5045 -0.5013
    1SAPS  C317  127   3.392   2.716   8.903  0.2530 -0.3970  0.5801
    1SAPS  H17X  128   3.489   2.765   8.922 -1.4778  3.1574  0.6422
    1SAPS  H17Y  129   3.316   2.792   8.874 -1.1522 -2.1359 -0.3580
    1SAPS  C318  130   3.405   2.616   8.785  0.4636 -0.3720 -0.2782
    1SAPS  H18X  131   3.481   2.542   8.815 -0.6427 -1.4075  0.0074
    1SAPS  H18Y  132   3.445   2.658   8.690  0.5570 -0.2319 -0.1772
    1SAPS  H18Z  133   3.307   2.565   8.774 -0.6708  1.5403  0.5805
    2SAPS     N  134   0.988   2.326  11.066 -0.3923  0.0484  0.5151
    2SAPS   HN1  135   0.904   2.305  11.007 -0.4677 -0.1214  0.6817
    2SAPS   HN2  136   1.070   2.267  11.043 -0.8446 -0.6699  0.7352
    2SAPS   HN3  137   0.967   2.313  11.167  3.2354 -1.3964  1.1693
    2SAPS   C12  138   1.013   2.470  11.048  0.2929  0.6996  0.1861
    2SAPS  H12A  139   0.919   2.519  11.069 -1.0363 -0.4874 -2.6973
    2SAPS   C13  140   1.123   2.523  11.155  0.1542  0.4325 -0.2381
    2SAPS  O13A  141   1.164   2.448  11.247 -0.6853 -0.1696 -0.4177
    2SAPS  O13B  142   1.174   2.639  11.148 -0.4231  0.3412  0.0492
    2SAPS   C11  143   1.058   2.492  10.904  0.6408 -0.0563 -0.0474
    2SAPS  H11A  144   1.159   2.446  10.897  0.6154  0.0743 -1.3787
    2SAPS  H11B  145   1.067   2.602  10.886  1.1847 -0.0605  0.1922
    2SAPS     P  146   0.908   2.505  10.680 -0.2652  0.0017 -0.2035
    2SAPS   O13  147   0.817   2.411  10.619 -0.0791 -0.0653  0.2702
    2SAPS   O14  148   0.866   2.643  10.715  0.1454 -0.6779 -0.1629
    2SAPS   O12  149   0.970   2.434  10.809 -0.0748 -0.4330  0.2345
    2SAPS   O11  150   1.033   2.518  10.592 -0.0368  0.5281 -0.1536
    2SAPS    C1  151   1.133   2.421  10.571  0.6205 -0.3810 -0.1297
    2SAPS    HA  152   1.212   2.429  10.648 -2.1231 -1.4273  2.9028
    2SAPS    HB  153   1.103   2.315  10.583 -0.1504 -0.0148  1.3150
    2SAPS    C2  154   1.208   2.430  10.435  0.2229  0.1202  0.2855
    2SAPS    HS  155   1.292   2.359  10.444  1.4991  1.3103 -1.9532
    2SAPS   O21  156   1.251   2.565  10.401 -0.2050  0.6015  0.1004
    2SAPS   C21  157   1.367   2.609  10.450 -0.3478  0.4293  1.0108
    2SAPS   O22  158   1.444   2.543  10.518  0.1930 -0.4752  0.9535
    2SAPS   C22  159   1.392   2.751  10.398  0.3931 -0.3400 -0.1690
    2SAPS   H2R  160   1.299   2.786  10.347 -1.0731 -2.5826  0.8864
    2SAPS   H2S  161   1.401   2.822  10.483 -0.9820 -0.2564 -0.0747
    2SAPS    C3  162   1.128   2.374  10.318  0.2030 -0.0547 -0.9670
    2SAPS    HX  163   1.036   2.437  10.312  0.0035 -0.1394  0.9697
    2SAPS    HY  164   1.078   2.277  10.339 -0.5671  0.6404  0.4957
    2SAPS   O31  165   1.201   2.373  10.193 -0.4867 -0.3675 -0.0177
    2SAPS   C31  166   1.277   2.260  10.186 -0.5425  0.0781 -0.1787
    2SAPS   O32  167   1.278   2.166  10.260  0.2835 -0.7316 -0.3377
    2SAPS   C32  168   1.368   2.263  10.059 -0.0878  0.3693 -0.2170
    2SAPS   H2X  169   1.441   2.181  10.076  1.3782  1.8956  0.9699
    2SAPS   H2Y  170   1.408   2.367  10.056  0.3655  0.2462  1.1250
    2SAPS   C23  171   1.511   2.754  10.294 -0.0018 -0.3305 -1.0188
    2SAPS   H3R  172   1.589   2.729  10.370 -2.4440  0.2082  1.7774
    2SAPS   H3S  173   1.529   2.855  10.251 -0.5927  0.0707 -0.3504
    2SAPS   C24  174   1.489   2.635  10.195 -0.1169  0.3173  0.0829
    2SAPS   H4R  175   1.494   2.535  10.242 -0.7319  0.6864  0.9403
    2SAPS   H4S  176   1.578   2.632  10.128 -0.1005  0.9061  0.0738
    2SAPS   C25  177   1.360   2.636  10.114  0.7842  0.6039  0.3872
    2SAPS   H5R  178   1.269   2.605  10.166  0.7945  1.2972  0.8210
    2SAPS   C26  179   1.355   2.661   9.981 -0.9173 -0.1042 -0.5137
    2SAPS   H6R  180   1.259   2.661   9.927 -0.6150 -0.0916 -1.0531
    2SAPS   C27  181   1.478   2.701   9.900  0.0508 -0.0698 -0.1371
    2SAPS   H7R  182   1.562   2.730   9.967  0.9200 -0.3035 -1.1150
    2SAPS   H7S  183   1.452   2.797   9.851 -0.3492  0.2111  0.6280
    2SAPS   C28  184   1.536   2.619   9.788  0.2542  0.4611  0.3688
    2SAPS   H8R  185   1.618   2.552   9.820 -1.4254 -1.7682  0.1675
    2SAPS   C29  186   1.491   2.621   9.658 -0.4578  0.2392 -0.2343
    2SAPS   H9R  187   1.531   2.548   9.586  1.1050  1.1790 -0.3442
    2SAPS  C210  188   1.386   2.690   9.578 -0.6174 -0.1331 -0.2690
    2SAPS  H10R  189   1.321   2.746   9.649 -1.0974  0.5883 -1.2791
    2SAPS  H10S  190   1.321   2.615   9.526 -0.7185 -0.8748  0.9015
    2SAPS  C211  191   1.455   2.792   9.496 -0.2273 -0.1474  0.4869
    2SAPS  H11R  192   1.469   2.890   9.545  0.7245  0.4867 -1.0080
    2SAPS  C212  193   1.497   2.772   9.375  0.3618  0.1516  0.2183
    2SAPS  H12R  194   1.522   2.864   9.319 -0.8030  0.0706 -0.4561
    2SAPS  C213  195   1.492   2.647   9.296 -0.8757 -0.5500  0.2418
    2SAPS  H13R  196   1.453   2.559   9.351  0.5695  0.4411  2.9338
    2SAPS  H13S  197   1.598   2.626   9.270 -1.3032  0.0348 -2.1228
    2SAPS  C214  198   1.411   2.658   9.169 -0.6132  0.1444 -0.8349
    2SAPS  H14R  199   1.302   2.654   9.184 -0.3708 -0.3058  0.9187
    2SAPS  C215  200   1.451   2.670   9.039  0.0920 -0.2460  0.0579
    2SAPS  H15R  201   1.379   2.677   8.956  0.0519 -2.6560 -0.1421
    2SAPS  C216  202   1.600   2.660   9.009 -0.6306  0.5854  0.8322
    2SAPS  H16R  203   1.642   2.558   8.995 -0.0649  0.8908  0.3225
    2SAPS  H16S  204   1.662   2.699   9.092  1.2644 -2.0196  0.6967
    2SAPS  C217  205   1.634   2.746   8.882 -0.6238  0.1740 -0.0365
    2SAPS  H17R  206   1.667   2.846   8.917 -3.4506  1.6987 -1.5686
    2SAPS  H17S  207   1.548   2.749   8.812 -0.6729  3.2666  0.0849
    2SAPS  C218  208   1.754   2.693   8.808 -0.1213  0.6977  0.3027
    2SAPS  H18R  209   1.751   2.753   8.715 -0.5798 -0.9229 -0.7388
    2SAPS  H18S  210   1.731   2.592   8.770  0.3258  0.5489  0.4246
    2SAPS  C219  211   1.887   2.710   8.893  0.0957 -0.5204  0.0697
    2SAPS  H19R  212   1.882   2.669   8.996 -1.2977  0.8811  0.5740
    2SAPS  H19S  213   1.920   2.815   8.904  1.3552 -1.1029  1.8970
    2SAPS  C220  214   2.008   2.627   8.833  0.1086  0.4849  0.2600
    2SAPS  H20R  215   2.084   2.605   8.911  0.2785  3.1893  0.9300
    2SAPS  H20S  216   2.044   2.689   8.748 -0.1821  0.1882 -0.0744
    2SAPS  H20T  217   1.973   2.533   8.787  1.8382  0.3671 -0.8755
    2SAPS   C33  218   1.284   2.246   9.929 -0.0167  0.0320 -0.6326
    2SAPS   H3X  219   1.201   2.320   9.934 -2.4697 -2.5799 -1.1900
    2SAPS   H3Y  220   1.241   2.144   9.918  2.9477 -1.4332  0.9436
    2SAPS   C34  221   1.371   2.286   9.805  0.1911  0.1321 -0.4467
    2SAPS   H4X  222   1.438   2.200   9.788 -0.4699 -0.6477  0.8096
    2SAPS   H4Y  223   1.433   2.375   9.829 -2.9663  2.4773 -0.5311
    2SAPS   C35  224   1.287   2.317   9.685 -1.3655  0.6067  0.3603
    2SAPS   H5X  225   1.250   2.422   9.683  1.2255  1.5311 -1.8090
    2SAPS   H5Y  226   1.200   2.248   9.687  0.5874 -2.0137 -1.9612
    2SAPS   C36  227   1.352   2.294   9.548 -0.0602  0.4822  0.2867
    2SAPS   H6X  228   1.401   2.194   9.540  0.0264  0.6180 -0.9471
    2SAPS   H6Y  229   1.436   2.366   9.534  2.6158 -2.5576  0.1258
    2SAPS   C37  230   1.258   2.310   9.430 -0.0406  0.1916  0.4302
    2SAPS   H7X  231   1.240   2.419   9.416 -1.9206 -0.2137 -0.5269
    2SAPS   H7Y  232   1.169   2.253   9.465 -0.2234  1.1066  1.4685
    2SAPS   C38  233   1.327   2.260   9.300 -0.8901  0.4321  0.3256
    2SAPS   H8X  234   1.370   2.159   9.317  1.7193  0.9918 -2.5292
    2SAPS   H8Y  235   1.406   2.335   9.279 -0.9747 -0.1038 -1.9582
    2SAPS   C39  236   1.223   2.246   9.187  0.3333  0.9188 -0.7766
    2SAPS   H9X  237   1.175   2.341   9.154 -1.7892  0.3293  0.4864
    2SAPS   H9Y  238   1.140   2.180   9.219  0.7790  0.3576 -0.7695
    2SAPS  C310  239   1.301   2.190   9.063 -0.1439  0.2330 -0.1908
    2SAPS  H10X  240   1.214   2.169   8.998 -1.7774  0.0701  2.0004
    2SAPS  H10Y  241   1.362   2.098   9.080  2.0173  1.4357 -1.2219
    2SAPS  C311  242   1.400   2.291   8.997  0.6558 -0.4226  0.0148
    2SAPS  H11X  243   1.500   2.294   9.044  0.0810 -0.0054  1.2292
    2SAPS  H11Y  244   1.350   2.390   9.006  0.6565 -0.4307  0.1003
    2SAPS  C312  245   1.405   2.271   8.844 -0.0581 -0.7756  0.1683
    2SAPS  H12X  246   1.307   2.280   8.791  0.7708  0.6530 -1.1448
    2SAPS  H12Y  247   1.451   2.174   8.818  0.5519  0.0500 -1.9275
    2SAPS  C313  248   1.493   2.383   8.789  0.4999  0.0230  0.1940
    2SAPS  H13X  249   1.590   2.390   8.842 -0.0006 -0.6805  1.2272
    2SAPS  H13Y  250   1.438   2.477   8.809 -0.9499 -0.2266 -2.4906
    2SAPS  C314  251   1.515   2.377   8.637 -0.9284 -0.5584 -0.2763
    2SAPS  H14X  252   1.528   2.269   8.615 -3.1485 -1.4150  2.2654
    2SAPS  H14Y  253   1.606   2.432   8.604 -0.7425  0.2546  1.5029
    2SAPS  C315  254   1.401   2.442   8.556  0.6912 -0.0655  0.0455
    2SAPS  H15X  255   1.389   2.546   8.593 -1.4565 -0.4605  0.4947
    2SAPS  H15Y  256   1.306   2.385   8.566 -0.4930  2.0031  0.8343
    2SAPS  C316  257   1.432   2.441   8.405 -0.0204  0.0936 -0.0016
    2SAPS  H16X  258   1.536   2.472   8.383 -0.2082  2.1778  1.8267
    2SAPS  H16Y  259   1.366   2.503   8.340  0.2504  1.7426  1.2641
    2SAPS  C317  260   1.416   2.302   8.348  0.0111  0.1801 -0.4381
    2SAPS  H17X  261   1.319   2.258   8.378  0.2515 -0.2452 -0.2716
    2SAPS  H17Y  262   1.492   2.243   8.405 -1.3456 -2.1673 -0.9785
    2SAPS  C318  263   1.442   2.294   8.197 -0.2197  0.1962 -0.4499
    2SAPS  H18X  264   1.465   2.187   8.176 -0.6644 -0.5172  2.5671
    2SAPS  H18Y  265   1.521   2.367   8.171  1.7207 -1.0836  1.6365
    2SAPS  H18Z  266   1.346   2.316   8.144 -0.4211 -1.2000 -0.6856
    3SAPS     N  267   1.066   4.319  11.102 -0.0306 -0.4779 -0.0697
    3SAPS   HN1  268   1.093   4.319  11.002  0.8196 -1.2057  0.1578
    3SAPS   HN2  269   1.145   4.279  11.157  0.3237  0.6140  0.2281
    3SAPS   HN3  270   0.978   4.264  11.112 -0.5772  0.6403  1.7517
    3SAPS   C12  271   1.028   4.460  11.151 -0.0939 -0.2720 -0.2686
    3SAPS  H12A  272   0.950   4.495  11.085  0.8996  4.5440  0.8956
    3SAPS   C13  273   0.986   4.478  11.302  0.2413  0.0856 -0.0716
    3SAPS  O13A  274   0.997   4.379  11.373 -0.0468  0.9790  0.0898
    3SAPS  O13B  275   0.931   4.579  11.339 -0.4522  0.2625 -0.4873
    3SAPS   C11  276   1.156   4.543  11.109  0.4289  0.6772 -0.8121
    3SAPS  H11A  277   1.238   4.523  11.181 -0.2378  0.1330 -0.2060
    3SAPS  H11B  278   1.127   4.648  11.129 -1.6750  0.0019 -0.1893
    3SAPS     P  279   1.155   4.604  10.857  0.0164  0.2842  0.0709
    3SAPS   O13  280   1.010   4.588  10.846  0.2868  0.2586  0.4084
    3SAPS   O14  281   1.205   4.738  10.886 -0.3829  0.3163 -0.4287
    3SAPS   O12  282   1.191   4.513  10.981  0.2606  0.1123  0.1263
    3SAPS   O11  283   1.235   4.530  10.741  0.1868  0.1934 -0.0172
    3SAPS    C1  284   1.364   4.475  10.771 -0.8283 -0.2817  0.0180
    3SAPS    HA  285   1.423   4.547  10.831 -1.7164 -0.2640  0.8852
    3SAPS    HB  286   1.342   4.385  10.833 -3.4219 -0.2129 -0.7148
    3SAPS    C2  287   1.447   4.441  10.643  0.1204 -0.2863  0.7267
    3SAPS    HS  288   1.542   4.387  10.664 -0.5041 -1.5394  0.3797
    3SAPS   O21  289   1.465   4.571  10.575 -0.4287  0.0050  0.3364
    3SAPS   C21  290   1.585   4.592  10.530  0.5792 -0.1755  0.0149
    3SAPS   O22  291   1.687   4.528  10.543 -0.0541 -0.0448  0.7660
    3SAPS   C22  292   1.577   4.722  10.441 -0.3030 -0.1624  0.0143
    3SAPS   H2R  293   1.555   4.802  10.514  1.1718 -0.7517  1.1310
    3SAPS   H2S  294   1.681   4.735  10.406 -1.0850 -1.3137 -2.9555
    3SAPS    C3  295   1.354   4.347  10.560 -0.5181 -0.1043 -0.4381
    3SAPS    HX  296   1.246   4.372  10.558 -0.7229 -0.9749 -0.5553
    3SAPS    HY  297   1.361   4.249  10.611 -0.8950  0.0737 -0.0377
    3SAPS   O31  298   1.392   4.339  10.421 -0.5112 -0.7993 -0.7920
    3SAPS   C31  299   1.514   4.282  10.403 -0.3117 -0.0416  0.3093
    3SAPS   O32  300   1.585   4.218  10.482 -0.6053 -0.5094  0.0842
    3SAPS   C32  301   1.551   4.283  10.259  0.0068 -0.5258 -0.6972
    3SAPS   H2X  302   1.482   4.344  10.197 -0.9258 -0.3446  0.5133
    3SAPS   H2Y  303   1.544   4.183  10.209 -2.7616 -0.4475 -0.5129
    3SAPS   C23  304   1.483   4.694  10.319  0.2454 -0.1466 -0.4414
    3SAPS   H3R  305   1.382   4.673  10.362 -0.7405  2.7015 -1.2435
    3SAPS   H3S  306   1.505   4.596  10.274 -0.0989 -0.8190  0.8183
    3SAPS   C24  307   1.504   4.808  10.213 -0.1855 -0.4302 -1.0935
    3SAPS   H4R  308   1.615   4.803  10.207  0.1744  2.2207  2.1861
    3SAPS   H4S  309   1.476   4.907  10.255  1.9559 -0.3379  0.1657
    3SAPS   C25  310   1.438   4.772  10.084 -0.1108  0.8379  1.0542
    3SAPS   H5R  311   1.350   4.707  10.093  0.4177  0.0126  0.3096
    3SAPS   C26  312   1.465   4.837   9.971  0.0873 -0.0963 -0.4441
    3SAPS   H6R  313   1.420   4.798   9.878  2.3625  1.2755 -2.1656
    3SAPS   C27  314   1.566   4.941   9.938  0.2444 -0.5856  0.1970
    3SAPS   H7R  315   1.613   4.985  10.029 -0.3937 -0.8201  0.6457
    3SAPS   H7S  316   1.518   5.025   9.884 -1.1653 -0.9447  0.8490
    3SAPS   C28  317   1.676   4.884   9.859 -0.0943  0.3628  0.4951
    3SAPS   H8R  318   1.745   4.823   9.919 -0.0913  0.6763  0.8128
    3SAPS   C29  319   1.681   4.878   9.724 -0.0704 -0.2901  0.0578
    3SAPS   H9R  320   1.777   4.843   9.683  0.3866 -0.6068  1.3460
    3SAPS  C210  321   1.586   4.937   9.627 -0.2022  0.9708  0.1647
    3SAPS  H10R  322   1.648   5.006   9.566  0.0197  1.3761  0.8362
    3SAPS  H10S  323   1.515   5.008   9.676  0.5954  1.0936  1.1558
    3SAPS  C211  324   1.500   4.848   9.539 -0.1238 -0.8047 -1.3270
    3SAPS  H11R  325   1.399   4.830   9.578 -0.1283  2.8835  0.6012
    3SAPS  C212  326   1.519   4.816   9.409 -0.1286  0.2209 -0.1403
    3SAPS  H12R  327   1.438   4.762   9.359  0.1358  1.9146 -2.4963
    3SAPS  C213  328   1.641   4.865   9.335 -0.6592  0.3031 -0.1904
    3SAPS  H13R  329   1.669   4.782   9.267 -0.6245 -1.9670  2.4960
    3SAPS  H13S  330   1.730   4.881   9.399 -2.0244  1.4678  1.4664
    3SAPS  C214  331   1.628   4.998   9.268 -0.9536  0.8973  0.1506
    3SAPS  H14R  332   1.571   5.076   9.320 -0.7824  0.1310  1.5388
    3SAPS  C215  333   1.689   5.031   9.158  0.5579  0.1185 -0.9431
    3SAPS  H15R  334   1.652   5.129   9.122  1.1117  0.7652  0.2293
    3SAPS  C216  335   1.786   4.945   9.079 -0.0295 -0.3472  0.4836
    3SAPS  H16R  336   1.766   4.836   9.078 -1.7044 -0.0363 -0.1298
    3SAPS  H16S  337   1.893   4.967   9.101  0.0774  1.9756 -2.0216
    3SAPS  C217  338   1.773   4.976   8.926  0.1754  0.2030  0.1097
    3SAPS  H17R  339   1.815   5.076   8.905 -1.8792  1.0647 -0.0199
    3SAPS  H17S  340   1.669   4.985   8.888 -0.1624 -0.5869  0.8425
    3SAPS  C218  341   1.837   4.872   8.830 -0.9465 -0.7290 -0.1207
    3SAPS  H18R  342   1.790   4.772   8.843 -1.4669 -0.4217  0.3771
    3SAPS  H18S  343   1.944   4.876   8.858 -1.1329  2.7964  0.3234
    3SAPS  C219  344   1.812   4.923   8.686  0.2367  0.3618 -0.2527
    3SAPS  H19R  345   1.828   5.032   8.671  0.4530  0.1703 -1.5008
    3SAPS  H19S  346   1.703   4.916   8.665  0.2966  0.5155 -0.6185
    3SAPS  C220  347   1.891   4.844   8.577 -0.0106 -0.3610  0.1918
    3SAPS  H20R  348   1.863   4.737   8.572 -2.2568  0.1464  1.2782
    3SAPS  H20S  349   2.000   4.853   8.599 -0.5955  1.0986  2.8103
    3SAPS  H20T  350   1.871   4.897   8.481 -3.6627 -0.0675  1.0197
    3SAPS   C33  351   1.699   4.333  10.237 -0.4207  0.6983 -0.4792
    3SAPS   H3X  352   1.758   4.310  10.328  0.8405  1.7073 -1.0296
    3SAPS   H3Y  353   1.679   4.443  10.238  0.6772  0.8954  0.7613
    3SAPS   C34  354   1.774   4.272  10.119 -0.0624 -0.2414 -0.3852
    3SAPS   H4X  355   1.797   4.167  10.143  2.7420  0.2059 -0.9765
    3SAPS   H4Y  356   1.872   4.322  10.104 -1.4682  1.9199 -2.9411
    3SAPS   C35  357   1.698   4.284   9.982 -0.0398  0.0428  0.1515
    3SAPS   H5X  358   1.596   4.241   9.983  0.1122 -0.3256 -0.3620
    3SAPS   H5Y  359   1.760   4.229   9.908  0.9086  0.1803  0.8193
    3SAPS   C36  360   1.683   4.441   9.951 -0.3963 -0.2270 -0.2014
    3SAPS   H6X  361   1.785   4.482   9.967 -0.4910 -0.6961  1.8529
    3SAPS   H6Y  362   1.620   4.478  10.035 -0.3909 -1.5559  0.4061
    3SAPS   C37  363   1.610   4.471   9.819 -0.3907  0.4686  0.4460
    3SAPS   H7X  364   1.601   4.580   9.802 -1.7192 -0.1149 -2.8066
    3SAPS   H7Y  365   1.510   4.423   9.821 -0.3495  0.4105  2.3634
    3SAPS   C38  366   1.683   4.422   9.687  0.3038 -0.0636 -0.4637
    3SAPS   H8X  367   1.708   4.314   9.694 -2.0537 -0.6083 -0.0322
    3SAPS   H8Y  368   1.777   4.479   9.673  0.9440 -1.3660 -1.5494
    3SAPS   C39  369   1.598   4.442   9.558  0.7831  0.5427 -0.0951
    3SAPS   H9X  370   1.550   4.542   9.569  0.0465 -0.0370  2.2062
    3SAPS   H9Y  371   1.512   4.374   9.571 -0.7207  2.8573  2.5783
    3SAPS  C310  372   1.669   4.425   9.424 -0.5090 -0.0970  0.2184
    3SAPS  H10X  373   1.714   4.323   9.430  1.0873  0.4145 -2.3166
    3SAPS  H10Y  374   1.744   4.506   9.413  0.2742 -0.7087  0.8946
    3SAPS  C311  375   1.582   4.425   9.291  0.1903 -0.2670 -0.6366
    3SAPS  H11X  376   1.498   4.489   9.327 -0.5812 -1.1189 -0.9218
    3SAPS  H11Y  377   1.546   4.323   9.265  0.7183 -0.4284 -0.7249
    3SAPS  C312  378   1.652   4.488   9.169 -0.2325  0.3318 -0.5193
    3SAPS  H12X  379   1.750   4.441   9.145 -0.6706  0.5731 -2.8726
    3SAPS  H12Y  380   1.670   4.594   9.199 -1.3487  0.2221  0.5431
    3SAPS  C313  381   1.571   4.478   9.041 -0.1396  0.1204  0.1710
    3SAPS  H13X  382   1.476   4.535   9.055 -0.4898 -0.7090  1.2534
    3SAPS  H13Y  383   1.559   4.372   9.011 -3.3810  0.2596  0.7437
    3SAPS  C314  384   1.652   4.525   8.920  0.3636  0.6249  0.2444
    3SAPS  H14X  385   1.734   4.456   8.892 -2.3384 -1.3085 -3.2033
    3SAPS  H14Y  386   1.695   4.621   8.956 -0.4162  1.4669 -1.0428
    3SAPS  C315  387   1.561   4.545   8.794 -0.1384  0.1008 -0.2161
    3SAPS  H15X  388   1.612   4.609   8.719  0.5391  0.6027  0.6607
    3SAPS  H15Y  389   1.474   4.604   8.831 -0.2335 -1.2955  1.9053
    3SAPS  C316  390   1.523   4.421   8.722  0.3476  0.5412 -0.6602
    3SAPS  H16X  391   1.475   4.358   8.800  0.3645  0.7000 -0.5237
    3SAPS  H16Y  392   1.610   4.364   8.682  1.3867  0.6786  1.3462
    3SAPS  C317  393   1.419   4.436   8.606  0.4746 -0.0592  0.6474
    3SAPS  H17X  394   1.390   4.337   8.563 -0.2912  1.0171 -1.3672
    3SAPS  H17Y  395   1.467   4.504   8.533 -0.2597 -0.2168  0.0108
    3SAPS  C318  396   1.286   4.505   8.644  0.0774  0.8798  0.1872
    3SAPS  H18X  397   1.233   4.522   8.548  1.7830  0.1440 -0.9030
    3SAPS  H18Y  398   1.305   4.597   8.704 -1.3201  0.2119  1.6813
    3SAPS  H18Z  399   1.227   4.435   8.707 -0.3494  1.2644  0.2121
    4SAPS     N  400   4.055   5.571  10.712 -0.1822  0.1260  0.0896
    4SAPS   HN1  401   4.096   5.484  10.674  1.2343  1.3289 -1.1910
    4SAPS   HN2  402   4.007   5.622  10.635  0.7880  1.2228  0.1979
    4SAPS   HN3  403   4.124   5.640  10.749  0.5416 -0.5138 -0.0669
    4SAPS   C12  404   3.952   5.533  10.812  0.4563  0.0648 -0.1994
    4SAPS  H12A  405   3.890   5.454  10.771 -3.9629  3.1199  0.3035
    4SAPS   C13  406   4.011   5.472  10.954 -0.8875 -0.6990  0.5511
    4SAPS  O13A  407   4.137   5.476  10.970  0.1248  0.4327 -0.2277
    4SAPS  O13B  408   3.934   5.404  11.023  0.4620  0.2268  0.1621
    4SAPS   C11  409   3.866   5.664  10.841  0.3136  0.2737 -0.1119
    4SAPS  H11A  410   3.934   5.736  10.892 -1.8779  1.0352  1.8270
    4SAPS  H11B  411   3.790   5.638  10.918 -3.2705  2.7413 -2.6792
    4SAPS     P  412   3.724   5.862  10.746  0.2195  0.0331 -0.0992
    4SAPS   O13  413   3.617   5.842  10.850 -0.0473 -0.0180  0.3149
    4SAPS   O14  414   3.820   5.971  10.752 -0.5863 -0.4431  0.6377
    4SAPS   O12  415   3.796   5.720  10.730 -1.1466 -0.4981 -0.1839
    4SAPS   O11  416   3.646   5.874  10.610  0.4148 -1.0299  0.0852
    4SAPS    C1  417   3.584   5.751  10.557  0.3581 -0.4684 -0.3024
    4SAPS    HA  418   3.663   5.676  10.534  0.5942 -1.2892  2.8989
    4SAPS    HB  419   3.501   5.717  10.623  0.4671 -1.1914 -0.5375
    4SAPS    C2  420   3.520   5.776  10.415  0.1724 -0.1645 -0.1680
    4SAPS    HS  421   3.468   5.680  10.395  0.6631 -0.5671  0.4523
    4SAPS   O21  422   3.619   5.802  10.310  0.1761 -0.3484 -0.4442
    4SAPS   C21  423   3.690   5.699  10.282 -0.2664 -0.7751 -0.1872
    4SAPS   O22  424   3.670   5.586  10.324  0.1358 -0.7617 -0.4274
    4SAPS   C22  425   3.802   5.736  10.190 -0.6821  0.5268 -0.3420
    4SAPS   H2R  426   3.775   5.815  10.116  0.7030  0.9917 -0.3636
    4SAPS   H2S  427   3.887   5.780  10.245 -1.0405  2.8759 -1.5664
    4SAPS    C3  428   3.419   5.893  10.405 -0.4516 -0.1934  0.1269
    4SAPS    HX  429   3.479   5.983  10.429 -1.2406  0.4091 -0.1592
    4SAPS    HY  430   3.348   5.882  10.490  1.3763  2.3547  2.0673
    4SAPS   O31  431   3.350   5.892  10.275  0.1516  0.0988 -0.0314
    4SAPS   C31  432   3.344   6.005  10.215  0.1875 -0.4489 -0.8054
    4SAPS   O32  433   3.359   6.111  10.271  0.1380  0.0160 -0.2347
    4SAPS   C32  434   3.307   5.984  10.066  0.6094  0.5084  0.3239
    4SAPS   H2X  435   3.224   5.910  10.073 -0.3633  1.5970  0.4522
    4SAPS   H2Y  436   3.395   5.936  10.018  1.3252  2.2113 -0.0988
    4SAPS   C23  437   3.857   5.612  10.110 -0.2118  0.1866 -0.4541
    4SAPS   H3R  438   3.775   5.576  10.044 -1.0983 -0.2613  0.8754
    4SAPS   H3S  439   3.891   5.530  10.177  1.4335  1.8961  0.8443
    4SAPS   C24  440   3.978   5.661  10.019  0.0101  0.0846 -0.3348
    4SAPS   H4R  441   4.023   5.569   9.976  0.5361 -0.0724  0.5462
    4SAPS   H4S  442   4.054   5.718  10.075  2.1075 -2.4030 -0.5303
    4SAPS   C25  443   3.934   5.754   9.907 -0.0754  0.3100 -0.1553
    4SAPS   H5R  444   3.925   5.857   9.944  1.1340 -0.0287  1.1296
    4SAPS   C26  445   3.903   5.722   9.780  0.3179  0.1495  0.2391
    4SAPS   H6R  446   3.872   5.801   9.710 -1.7384  0.7197  1.7586
    4SAPS   C27  447   3.909   5.583   9.717  0.1617 -0.4140 -0.5185
    4SAPS   H7R  448   3.808   5.560   9.678  0.2813  0.0397 -1.0997
    4SAPS   H7S  449   3.923   5.506   9.796  1.8814  1.0610  0.6636
    4SAPS   C28  450   4.018   5.562   9.612  0.2581  0.1083  0.4324
    4SAPS   H8R  451   4.117   5.524   9.641  1.0642 -0.1594 -2.4941
    4SAPS   C29  452   3.993   5.582   9.477  0.5496  0.0385 -0.8500
    4SAPS   H9R  453   4.075   5.567   9.406  0.5117 -2.2301 -0.4637
    4SAPS  C210  454   3.862   5.619   9.417 -0.5795  0.0612  0.7780
    4SAPS  H10R  455   3.784   5.650   9.490 -0.5235 -0.0656  0.8914
    4SAPS  H10S  456   3.818   5.528   9.372  0.1284 -0.0850  0.3712
    4SAPS  C211  457   3.875   5.726   9.315 -0.4982 -0.1119  0.7418
    4SAPS  H11R  458   3.924   5.816   9.355  1.4576 -0.0908 -1.5570
    4SAPS  C212  459   3.829   5.731   9.189 -0.2359  1.0669 -0.6049
    4SAPS  H12R  460   3.860   5.815   9.126 -1.2070  2.3435  0.5767
    4SAPS  C213  461   3.750   5.624   9.121  0.1020  0.0474  0.6745
    4SAPS  H13R  462   3.732   5.533   9.181 -2.3344  0.9635  1.4245
    4SAPS  H13S  463   3.803   5.592   9.029 -0.1281  1.0245  0.1965
    4SAPS  C214  464   3.613   5.681   9.087  0.6345  0.4481  0.1580
    4SAPS  H14R  465   3.552   5.675   9.179 -0.0626 -0.6738 -0.3675
    4SAPS  C215  466   3.569   5.737   8.968  0.4412 -0.4214  0.1910
    4SAPS  H15R  467   3.469   5.781   8.959  0.7640 -0.0215 -1.6853
    4SAPS  C216  468   3.650   5.751   8.842 -0.4457  0.2251 -0.8796
    4SAPS  H16R  469   3.715   5.664   8.817 -0.6074 -0.0919 -0.2209
    4SAPS  H16S  470   3.714   5.842   8.848  0.0319 -0.1535 -0.0924
    4SAPS  C217  471   3.552   5.770   8.719  0.4776 -0.3644  0.4519
    4SAPS  H17R  472   3.476   5.846   8.745  0.2881 -0.7176  0.9441
    4SAPS  H17S  473   3.511   5.668   8.701 -0.3919  0.1445 -0.4642
    4SAPS  C218  474   3.623   5.821   8.593  0.1679  0.0909  0.1518
    4SAPS  H18R  475   3.591   5.770   8.500 -2.6178 -0.4748  1.3390
    4SAPS  H18S  476   3.731   5.797   8.605 -0.2539 -1.3402  1.2871
    4SAPS  C219  477   3.608   5.969   8.561  0.0129 -0.1648 -0.2669
    4SAPS  H19R  478   3.508   6.013   8.546  0.0207 -0.1478 -0.2650
    4SAPS  H19S  479   3.663   5.976   8.464  0.1118 -1.1603 -0.2885
    4SAPS  C220  480   3.678   6.059   8.666 -0.3153  0.1763  0.0877
    4SAPS  H20R  481   3.720   6.151   8.620 -0.3095  0.6016  0.9187
    4SAPS  H20S  482   3.763   6.003   8.711 -0.4775 -0.6641 -0.6421
    4SAPS  H20T  483   3.615   6.096   8.750 -0.1148  1.1454 -0.1842
    4SAPS   C33  484   3.283   6.112   9.973 -0.2648  1.0341 -0.4985
    4SAPS   H3X  485   3.212   6.178  10.028  2.5910  3.3691  0.5355
    4SAPS   H3Y  486   3.233   6.075   9.881  0.0506 -2.2306  0.5796
    4SAPS   C34  487   3.408   6.192   9.937  0.4337  0.2855  0.1111
    4SAPS   H4X  488   3.460   6.125   9.865 -0.3703 -1.2371  0.9202
    4SAPS   H4Y  489   3.458   6.226  10.030 -1.2000 -0.5292  1.3034
    4SAPS   C35  490   3.360   6.312   9.856 -0.9201  0.2182 -0.0061
    4SAPS   H5X  491   3.313   6.384   9.927 -0.1438 -0.7022  1.4630
    4SAPS   H5Y  492   3.278   6.272   9.793 -1.2464 -0.3778  0.8001
    4SAPS   C36  493   3.471   6.377   9.775 -0.0939  1.0165 -0.2399
    4SAPS   H6X  494   3.507   6.306   9.697 -1.6056  2.5540 -2.4002
    4SAPS   H6Y  495   3.558   6.395   9.842  0.0056  1.3314 -0.4552
    4SAPS   C37  496   3.419   6.494   9.688  0.1287 -0.8233  0.2640
    4SAPS   H7X  497   3.509   6.529   9.632 -0.5838  1.6481  0.6020
    4SAPS   H7Y  498   3.390   6.584   9.746  0.9053  0.9461 -1.9972
    4SAPS   C38  499   3.303   6.457   9.596 -0.6478  0.1594 -0.4029
    4SAPS   H8X  500   3.201   6.458   9.641  0.1201 -1.4662  1.5035
    4SAPS   H8Y  501   3.328   6.353   9.564  4.3753  1.1314 -0.0298
    4SAPS   C39  502   3.315   6.545   9.470  0.2153  0.2373  0.2288
    4SAPS   H9X  503   3.422   6.559   9.441  0.7918  0.2945  2.2835
    4SAPS   H9Y  504   3.275   6.647   9.487 -2.1457 -0.5286 -0.5151
    4SAPS  C310  505   3.238   6.484   9.351 -0.3858  1.0196 -0.3362
    4SAPS  H10X  506   3.138   6.449   9.386  1.3888 -4.4147 -0.2899
    4SAPS  H10Y  507   3.281   6.391   9.310 -4.2435 -1.3920  0.7935
    4SAPS  C311  508   3.221   6.579   9.229 -0.2484  0.6832 -0.4923
    4SAPS  H11X  509   3.318   6.602   9.181  0.0050 -1.1189 -0.8898
    4SAPS  H11Y  510   3.180   6.677   9.260 -1.5102  0.1576 -0.4569
    4SAPS  C312  511   3.137   6.520   9.118 -0.5794 -0.2335  0.0137
    4SAPS  H12X  512   3.041   6.501   9.170  0.2825  0.5497  1.9463
    4SAPS  H12Y  513   3.175   6.417   9.103 -0.6231 -0.1353 -0.7660
    4SAPS  C313  514   3.123   6.593   8.988  0.2790  0.2594 -0.9382
    4SAPS  H13X  515   3.080   6.524   8.912 -1.9969 -0.3011  0.8252
    4SAPS  H13Y  516   3.214   6.640   8.943  0.9879 -0.6907 -0.5222
    4SAPS  C314  517   3.041   6.719   9.008 -0.0578 -0.4152  0.7135
    4SAPS  H14X  518   3.103   6.784   9.074  1.7338  0.0338 -1.3627
    4SAPS  H14Y  519   2.948   6.683   9.057 -0.6390 -1.1592 -0.8807
    4SAPS  C315  520   2.997   6.786   8.875 -0.6856  0.1630  0.0729
    4SAPS  H15X  521   3.068   6.851   8.819 -0.1620  0.5497  1.1727
    4SAPS  H15Y  522   2.923   6.866   8.895  0.0023  0.7739  0.1939
    4SAPS  C316  523   2.935   6.686   8.779  0.6676  0.0297  0.1127
    4SAPS  H16X  524   2.868   6.618   8.835 -1.5240  1.7409 -0.3745
    4SAPS  H16Y  525   3.027   6.636   8.743 -0.1596  1.5508 -4.4187
    4SAPS  C317  526   2.842   6.752   8.670 -0.5159 -0.0360  0.5933
    4SAPS  H17X  527   2.900   6.833   8.620  0.4246 -1.2554 -0.3359
    4SAPS  H17Y  528   2.764   6.814   8.718  1.0250  1.2226  1.5146
    4SAPS  C318  529   2.788   6.648   8.575  0.4342  0.1029  0.0920
    4SAPS  H18X  530   2.692   6.618   8.623  0.6689 -0.2808  0.3270
    4SAPS  H18Y  531   2.857   6.561   8.569 -1.5272 -1.5746  1.2530
    4SAPS  H18Z  532   2.754   6.686   8.477 -0.0194  1.3114  0.7042
    5SAPS     N  533   0.607   4.889  11.021 -0.6722 -0.2525 -0.0835
    5SAPS   HN1  534   0.675   4.845  10.957 -1.1698 -0.3270 -0.5622
    5SAPS   HN2  535   0.566   4.830  11.097  0.6571  1.3045  1.9243
    5SAPS   HN3  536   0.532   4.931  10.964 -1.7727 -1.9119  0.1002
    5SAPS   C12  537   0.664   5.007  11.098 -0.0907  0.2930  0.3276
    5SAPS  H12A  538   0.624   5.095  11.050  0.7082  0.0277 -0.8368
    5SAPS   C13  539   0.612   5.014  11.239 -0.1958 -0.0942 -0.1372
    5SAPS  O13A  540   0.534   4.927  11.284 -0.3532  0.1453 -0.1064
    5SAPS  O13B  541   0.635   5.118  11.313 -0.0240 -0.2073 -0.0805
    5SAPS   C11  542   0.815   5.004  11.103  0.1442 -0.0883  0.4604
    5SAPS  H11A  543   0.838   4.900  11.134 -0.0707 -0.2885 -0.0528
    5SAPS  H11B  544   0.865   5.059  11.185 -0.4903  0.0551  0.7556
    5SAPS     P  545   0.907   5.173  10.933  0.3637 -0.1728 -0.2251
    5SAPS   O13  546   0.844   5.258  11.031 -0.1253  0.4384 -0.5118
    5SAPS   O14  547   1.047   5.201  10.899  0.0177 -0.0270 -0.0132
    5SAPS   O12  548   0.886   5.026  10.980  0.1505 -0.0711  0.0374
    5SAPS   O11  549   0.823   5.176  10.798 -0.7070 -0.3854  0.1004
    5SAPS    C1  550   0.794   5.061  10.726  0.1074 -0.7626 -0.2068
    5SAPS    HA  551   0.743   4.990  10.794  0.7551  0.1532  1.2565
    5SAPS    HB  552   0.718   5.097  10.653 -0.3340 -1.1671  0.0529
    5SAPS    C2  553   0.915   5.007  10.646  0.0853  0.7341  0.6465
    5SAPS    HS  554   0.990   4.980  10.724 -0.1396  2.1059  1.3477
    5SAPS   O21  555   0.964   5.110  10.561  0.7505  0.1013  0.1850
    5SAPS   C21  556   1.099   5.105  10.550  0.1184 -0.2784 -0.5028
    5SAPS   O22  557   1.170   5.035  10.618 -0.4260  0.3810 -0.0493
    5SAPS   C22  558   1.158   5.213  10.454 -0.7193 -0.0384 -0.0808
    5SAPS   H2R  559   1.071   5.270  10.416  0.0981 -0.2785 -2.3907
    5SAPS   H2S  560   1.235   5.259  10.519  0.8415 -2.2753 -0.3026
    5SAPS    C3  561   0.862   4.888  10.563  0.0276  0.1232  0.8470
    5SAPS    HX  562   0.793   4.917  10.482 -0.7567 -0.2062  1.3846
    5SAPS    HY  563   0.812   4.823  10.639  3.1952 -2.5488  0.8047
    5SAPS   O31  564   0.964   4.807  10.507 -0.1982 -0.8898  0.5019
    5SAPS   C31  565   0.945   4.682  10.475  0.1662 -0.6750  0.4202
    5SAPS   O32  566   0.836   4.631  10.456  0.6734  1.0243  0.2720
    5SAPS   C32  567   1.082   4.626  10.425 -0.0208 -0.5749 -0.3534
    5SAPS   H2X  568   1.129   4.579  10.514 -1.4821 -0.4413  0.5001
    5SAPS   H2Y  569   1.152   4.709  10.400  1.1651 -1.3368  0.3637
    5SAPS   C23  570   1.235   5.162  10.326 -0.1052 -0.0335  0.4448
    5SAPS   H3R  571   1.315   5.086  10.340 -0.2537 -0.3604 -0.4212
    5SAPS   H3S  572   1.292   5.249  10.287 -1.0479  1.0422  1.4132
    5SAPS   C24  573   1.145   5.120  10.210 -0.4009  0.2722  0.6209
    5SAPS   H4R  574   1.086   5.212  10.189 -1.5171 -0.2886  1.2991
    5SAPS   H4S  575   1.073   5.041  10.239 -1.1210  0.1555 -1.3897
    5SAPS   C25  576   1.218   5.073  10.088  0.0361  0.3465 -0.9192
    5SAPS   H5R  577   1.290   4.990  10.096 -0.9566 -0.5970 -1.5658
    5SAPS   C26  578   1.200   5.107   9.963  1.0878  0.2761  0.1072
    5SAPS   H6R  579   1.269   5.063   9.890  0.6611 -1.0106  0.4563
    5SAPS   C27  580   1.102   5.197   9.899  0.1267 -0.1833 -0.4651
    5SAPS   H7R  581   1.158   5.284   9.861 -0.8287  0.7809  0.2814
    5SAPS   H7S  582   1.039   5.242   9.980 -1.3719 -3.9576  0.5945
    5SAPS   C28  583   1.016   5.140   9.800  0.7531  0.1944  0.7225
    5SAPS   H8R  584   0.934   5.083   9.846  1.2884 -0.9310  0.3252
    5SAPS   C29  585   1.009   5.171   9.671 -0.1466 -0.2629  0.1149
    5SAPS   H9R  586   0.928   5.126   9.612 -0.3397 -0.0762  0.2341
    5SAPS  C210  587   1.100   5.270   9.598 -0.0298 -0.7080 -0.1699
    5SAPS  H10R  588   1.187   5.219   9.551 -1.7677 -3.6342 -0.3475
    5SAPS  H10S  589   1.148   5.343   9.667 -0.3135  1.7384 -2.4896
    5SAPS  C211  590   1.021   5.346   9.494  0.4158  0.6273 -0.2363
    5SAPS  H11R  591   0.942   5.412   9.533 -0.3327 -0.7231  0.5704
    5SAPS  C212  592   1.028   5.331   9.364 -0.1280 -0.5734 -0.1130
    5SAPS  H12R  593   0.966   5.391   9.297 -0.4478 -2.4626 -1.5441
    5SAPS  C213  594   1.120   5.234   9.295 -0.6411 -0.1638  0.3873
    5SAPS  H13R  595   1.223   5.228   9.335 -0.8248 -1.6421  0.6737
    5SAPS  H13S  596   1.127   5.269   9.190 -0.8732  1.1319  0.7993
    5SAPS  C214  597   1.076   5.090   9.280 -1.2339 -0.7062 -0.5125
    5SAPS  H14R  598   0.997   5.057   9.350 -0.6264  1.9108  1.5059
    5SAPS  C215  599   1.137   5.004   9.196  0.4520  0.0132 -0.2477
    5SAPS  H15R  600   1.101   4.902   9.176 -0.6018 -0.1446  2.2850
    5SAPS  C216  601   1.260   5.035   9.109 -0.0926 -0.1661 -0.6095
    5SAPS  H16R  602   1.355   4.978   9.122  1.4012  2.0469 -1.3363
    5SAPS  H16S  603   1.293   5.139   9.134 -2.3259  0.3830  0.1950
    5SAPS  C217  604   1.234   5.045   8.959  0.2266  0.0674 -0.4732
    5SAPS  H17R  605   1.161   5.127   8.939  1.0527  0.8639 -0.2742
    5SAPS  H17S  606   1.192   4.948   8.925  0.6042 -0.4812  0.6095
    5SAPS  C218  607   1.356   5.085   8.877 -0.2672 -0.0572 -0.0693
    5SAPS  H18R  608   1.403   5.181   8.908 -2.0757  0.6111  0.6722
    5SAPS  H18S  609   1.438   5.012   8.895 -0.0340 -0.2128 -1.7044
    5SAPS  C219  610   1.334   5.097   8.732 -0.1937  0.2415  0.6550
    5SAPS  H19R  611   1.261   5.179   8.709 -0.6432 -0.2048  0.4864
    5SAPS  H19S  612   1.300   4.998   8.696  1.4620 -0.4378  0.9343
    5SAPS  C220  613   1.465   5.136   8.649  0.2115  0.7940  0.1120
    5SAPS  H20R  614   1.498   5.241   8.667 -0.4108  0.6926  1.9810
    5SAPS  H20S  615   1.435   5.113   8.545 -0.1852 -1.7947  0.7710
    5SAPS  H20T  616   1.556   5.075   8.670 -0.4407 -0.3725 -0.4279
    5SAPS   C33  617   1.066   4.512  10.322 -0.6853 -1.3743 -0.3652
    5SAPS   H3X  618   1.020   4.424  10.372  0.3810 -0.9855  1.3403
    5SAPS   H3Y  619   1.172   4.484  10.303 -0.1356  1.3246 -1.4227
    5SAPS   C34  620   0.990   4.549  10.194  0.9539 -0.4547 -0.4094
    5SAPS   H4X  621   0.883   4.554  10.225  0.5006 -1.1299 -1.8122
    5SAPS   H4Y  622   1.003   4.463  10.125  2.4765 -0.0661 -0.6308
    5SAPS   C35  623   1.040   4.668  10.104 -0.3873 -0.5398 -0.1227
    5SAPS   H5X  624   1.142   4.633  10.080 -0.9784 -1.3938 -1.4427
    5SAPS   H5Y  625   1.043   4.761  10.165  1.6839 -0.6212 -0.0735
    5SAPS   C36  626   0.947   4.693   9.984  0.1150 -0.5702 -0.4132
    5SAPS   H6X  627   0.976   4.787   9.933 -1.3184 -0.0127 -0.2133
    5SAPS   H6Y  628   0.846   4.718  10.022 -0.0781  1.3426 -2.1065
    5SAPS   C37  629   0.958   4.579   9.888 -0.4683 -0.6431  0.1380
    5SAPS   H7X  630   0.937   4.481   9.935  0.2705 -0.6176  0.5280
    5SAPS   H7Y  631   1.060   4.571   9.846 -0.0290 -0.3378  1.1214
    5SAPS   C38  632   0.858   4.592   9.775  0.2093 -0.2520 -0.3950
    5SAPS   H8X  633   0.858   4.700   9.749 -1.9851 -0.1893 -0.1602
    5SAPS   H8Y  634   0.763   4.558   9.819  0.2980  0.6747  0.5404
    5SAPS   C39  635   0.895   4.512   9.657 -0.7156  0.5340  0.4163
    5SAPS   H9X  636   0.891   4.406   9.691  2.1625  1.0189  2.3998
    5SAPS   H9Y  637   0.998   4.536   9.624  0.2331 -2.5702  0.9283
    5SAPS  C310  638   0.814   4.530   9.535  0.0337 -0.2628  0.0441
    5SAPS  H10X  639   0.842   4.445   9.469 -0.9858  0.4753 -1.3576
    5SAPS  H10Y  640   0.831   4.628   9.486 -1.0467  1.3097  2.7136
    5SAPS  C311  641   0.657   4.547   9.546  0.3241 -0.4853  0.4244
    5SAPS  H11X  642   0.633   4.624   9.622  1.5690 -1.6818  2.0559
    5SAPS  H11Y  643   0.630   4.451   9.594  1.9266 -0.2799  1.7846
    5SAPS  C312  644   0.583   4.571   9.419  0.1532  0.0026 -0.0833
    5SAPS  H12X  645   0.614   4.492   9.347 -0.5853 -0.4189  0.0484
    5SAPS  H12Y  646   0.602   4.673   9.382  4.3506  0.3924  2.7770
    5SAPS  C313  647   0.428   4.563   9.425 -0.1117 -0.6581  0.0898
    5SAPS  H13X  648   0.393   4.645   9.492  2.6045  1.4166 -0.9232
    5SAPS  H13Y  649   0.401   4.468   9.475  0.9827 -1.1500 -0.2531
    5SAPS  C314  650   0.368   4.562   9.284 -0.1577 -0.3040  0.0159
    5SAPS  H14X  651   0.269   4.513   9.293  0.4592 -0.9964  3.9703
    5SAPS  H14Y  652   0.422   4.475   9.241 -0.3034 -1.0238  1.2647
    5SAPS  C315  653   0.378   4.689   9.201  0.5753 -0.2806  0.7677
    5SAPS  H15X  654   0.469   4.753   9.206  0.7458 -0.3778 -0.8157
    5SAPS  H15Y  655   0.296   4.760   9.225 -0.1857 -1.1229  0.6881
    5SAPS  C316  656   0.377   4.650   9.046  0.2627 -0.5145 -0.1675
    5SAPS  H16X  657   0.284   4.590   9.028 -2.2101  2.7704  1.1750
    5SAPS  H16Y  658   0.462   4.580   9.029  0.5456 -0.1704 -0.1551
    5SAPS  C317  659   0.371   4.775   8.958 -0.3406  0.0200 -0.4936
    5SAPS  H17X  660   0.456   4.841   8.984  0.3461 -1.2818  0.6410
    5SAPS  H17Y  661   0.281   4.836   8.983 -0.4523 -0.2924 -0.1176
    5SAPS  C318  662   0.362   4.759   8.805 -0.2594  0.1168  0.1587
    5SAPS  H18X  663   0.270   4.702   8.781 -2.4157  3.7882 -0.7362
    5SAPS  H18Y  664   0.442   4.699   8.756  0.9390  2.6321 -1.1263
    5SAPS  H18Z  665   0.355   4.859   8.757  0.1850  0.8192  1.5238
    6SAPS     N  666   0.672   4.247  10.885  0.2628  1.2115  0.5144
    6SAPS   HN1  667   0.742   4.324  10.885 -0.4410  1.8689 -0.5677
    6SAPS   HN2  668   0.608   4.268  10.805 -2.6244 -0.4330  2.3313
    6SAPS   HN3  669   0.621   4.263  10.974 -0.5098 -0.3111  0.3578
    6SAPS   C12  670   0.726   4.109  10.884 -0.2135  0.6333 -0.1577
    6SAPS  H12A  671   0.795   4.108  10.801  1.2675  1.3696  1.0385
    6SAPS   C13  672   0.797   4.080  11.022  0.4450  0.2970 -0.0667
    6SAPS  O13A  673   0.835   4.167  11.105  0.2810 -0.4612 -0.0404
    6SAPS  O13B  674   0.838   3.965  11.031 -0.1843 -0.2748 -0.0142
    6SAPS   C11  675   0.597   4.010  10.861 -0.4726  0.0517 -0.6536
    6SAPS  H11A  676   0.542   3.992  10.956  1.2351  0.6109  0.4757
    6SAPS  H11B  677   0.647   3.912  10.845 -0.9490 -0.2875 -0.0488
    6SAPS     P  678   0.360   4.032  10.742 -0.0598 -0.7494  0.0205
    6SAPS   O13  679   0.301   4.084  10.865  0.3485 -0.0353  0.1893
    6SAPS   O14  680   0.301   4.091  10.620  0.4425  0.7310  0.7116
    6SAPS   O12  681   0.518   4.048  10.741  0.0256 -0.7126 -0.2310
    6SAPS   O11  682   0.342   3.873  10.746 -0.4390 -0.5210  0.1026
    6SAPS    C1  683   0.430   3.785  10.667  0.9853 -0.6922 -0.3562
    6SAPS    HA  684   0.518   3.822  10.610 -0.6036 -2.0202 -3.8596
    6SAPS    HB  685   0.478   3.712  10.735 -3.1232 -1.4656  1.8967
    6SAPS    C2  686   0.339   3.716  10.561  0.5459 -0.0351 -0.6221
    6SAPS    HS  687   0.412   3.654  10.504  2.9858  2.7194 -0.6299
    6SAPS   O21  688   0.276   3.813  10.470 -0.7753 -0.2086 -0.0925
    6SAPS   C21  689   0.354   3.881  10.391 -0.1906  0.1189  0.4177
    6SAPS   O22  690   0.470   3.861  10.363  0.4384 -0.1879 -0.2641
    6SAPS   C22  691   0.261   3.984  10.317  0.4538 -0.1568 -0.0055
    6SAPS   H2R  692   0.154   3.954  10.320  0.0339  1.3590  1.0538
    6SAPS   H2S  693   0.270   4.072  10.385  0.8725 -2.6080  3.2380
    6SAPS    C3  694   0.228   3.619  10.609 -0.3279 -0.2102  0.1913
    6SAPS    HX  695   0.160   3.671  10.680 -0.1059 -2.8712  2.4283
    6SAPS    HY  696   0.277   3.538  10.667  2.3045  0.6653 -0.7428
    6SAPS   O31  697   0.144   3.573  10.499  0.8275  0.1882  0.4222
    6SAPS   C31  698   0.014   3.607  10.484 -0.1041 -0.1401  0.0901
    6SAPS   O32  699  -0.052   3.683  10.550 -0.3360  0.0311 -0.1358
    6SAPS   C32  700  -0.046   3.521  10.361 -0.4871  0.8688  0.9449
    6SAPS   H2X  701  -0.067   3.420  10.402 -1.2217  0.7744  0.3424
    6SAPS   H2Y  702   0.031   3.516  10.281 -1.1045 -2.9330  0.4920
    6SAPS   C23  703   0.307   4.032  10.177  0.0512  0.4980  0.3559
    6SAPS   H3R  704   0.411   4.070  10.184  0.3092 -0.4227  1.7627
    6SAPS   H3S  705   0.240   4.106  10.128  1.4838  1.7066  0.1816
    6SAPS   C24  706   0.294   3.908  10.085  0.2403  0.2161 -0.5897
    6SAPS   H4R  707   0.186   3.879  10.084  0.2243  0.1840  0.9560
    6SAPS   H4S  708   0.346   3.819  10.126 -0.9798  0.0694  0.6676
    6SAPS   C25  709   0.355   3.932   9.945 -0.2299  0.1356 -0.6438
    6SAPS   H5R  710   0.462   3.959   9.948 -0.4239  0.7519  1.9342
    6SAPS   C26  711   0.294   3.934   9.823 -0.5595  0.7005  0.1254
    6SAPS   H6R  712   0.348   3.921   9.729 -1.2991 -0.9991 -0.0918
    6SAPS   C27  713   0.148   3.899   9.808 -0.2439  0.0411  0.0377
    6SAPS   H7R  714   0.111   3.960   9.723  3.5993  0.4629 -1.4352
    6SAPS   H7S  715   0.080   3.926   9.892  0.7482  0.6155  0.6661
    6SAPS   C28  716   0.115   3.766   9.761  0.2564  0.6032 -0.0550
    6SAPS   H8R  717   0.114   3.685   9.835 -1.9634 -0.6854 -1.4688
    6SAPS   C29  718   0.124   3.738   9.630 -0.4263  0.2026  0.2988
    6SAPS   H9R  719   0.115   3.634   9.594 -2.9572  0.8267 -1.0039
    6SAPS  C210  720   0.160   3.825   9.509 -0.3641 -0.0922 -0.4526
    6SAPS  H10R  721   0.215   3.769   9.430  2.6030  2.9635 -0.6585
    6SAPS  H10S  722   0.229   3.906   9.542 -0.1475 -0.1998 -0.6393
    6SAPS  C211  723   0.036   3.893   9.452  0.0794 -0.4885 -1.4790
    6SAPS  H11R  724  -0.027   3.937   9.532  1.2828 -0.5554 -0.4830
    6SAPS  C212  725  -0.001   3.906   9.325  0.5790  0.0317  0.3535
    6SAPS  H12R  726  -0.092   3.962   9.302  0.9375  1.1773  1.6295
    6SAPS  C213  727   0.082   3.851   9.210  0.6730 -0.3506 -0.4539
    6SAPS  H13R  728   0.138   3.759   9.238  0.5039 -0.4001 -0.2794
    6SAPS  H13S  729   0.152   3.927   9.171 -1.1143  0.2864 -2.5132
    6SAPS  C214  730   0.007   3.802   9.089 -0.5459  0.0296  0.1677
    6SAPS  H14R  731  -0.026   3.698   9.079  1.8329 -0.7133 -0.1679
    6SAPS  C215  732  -0.018   3.874   8.980  0.3564  0.3605 -0.4671
    6SAPS  H15R  733  -0.046   3.810   8.895  0.9625 -1.6304  0.7999
    6SAPS  C216  734   0.026   4.013   8.942 -0.8682 -0.0168  0.8179
    6SAPS  H16R  735   0.127   4.025   8.987 -0.5167 -1.8849  0.5949
    6SAPS  H16S  736  -0.038   4.080   9.002 -0.2856  1.2167  0.0871
    6SAPS  C217  737   0.025   4.050   8.791  0.0196  0.1372 -0.4071
    6SAPS  H17R  738   0.037   4.159   8.772 -1.4199  0.7165  1.8549
    6SAPS  H17S  739  -0.070   4.017   8.744  0.5772 -0.9962 -0.7751
    6SAPS  C218  740   0.143   3.976   8.729  0.1046  0.1991 -0.0257
    6SAPS  H18R  741   0.125   3.867   8.721  0.2020  0.1206  0.7870
    6SAPS  H18S  742   0.223   3.984   8.806  0.2262  2.4748 -0.3477
    6SAPS  C219  743   0.174   4.025   8.586 -0.3854  0.4993 -0.2680
    6SAPS  H19R  744   0.171   4.135   8.577  2.5455  0.4555 -2.3967
    6SAPS  H19S  745   0.090   3.991   8.522 -2.3368 -0.1991  2.5220
    6SAPS  C220  746   0.293   3.956   8.519 -0.0569 -0.2802 -0.1123
    6SAPS  H20R  747   0.386   3.949   8.580 -0.6128 -2.2057  0.5312
    6SAPS  H20S  748   0.318   4.000   8.420  0.2412 -0.6863 -0.2191
    6SAPS  H20T  749   0.259   3.855   8.492 -0.6640 -0.5244  1.5105
    6SAPS   C33  750  -0.169   3.586  10.290  0.0671  0.1930 -0.1235
    6SAPS   H3X  751  -0.244   3.633  10.357 -1.4805 -0.0836 -1.6327
    6SAPS   H3Y  752  -0.230   3.504  10.247  0.1990 -0.9305  1.7533
    6SAPS   C34  753  -0.133   3.693  10.197 -0.5226  0.4153 -0.0207
    6SAPS   H4X  754  -0.061   3.646  10.126 -1.7492 -0.1919 -0.8938
    6SAPS   H4Y  755  -0.085   3.783  10.241  2.1071 -2.0913  2.4116
    6SAPS   C35  756  -0.257   3.736  10.113 -0.3718  0.4082 -0.8857
    6SAPS   H5X  757  -0.325   3.809  10.164 -1.6977  1.8299 -4.5388
    6SAPS   H5Y  758  -0.310   3.645  10.079  0.2100  0.0003 -0.6910
    6SAPS   C36  759  -0.219   3.809   9.984 -0.6725  0.4651 -0.2247
    6SAPS   H6X  760  -0.130   3.757   9.943  0.1522  0.8090  1.1005
    6SAPS   H6Y  761  -0.203   3.919   9.995 -1.7698  0.7420 -1.2784
    6SAPS   C37  762  -0.333   3.797   9.882  0.0658  0.1577 -0.2831
    6SAPS   H7X  763  -0.423   3.855   9.912 -0.6970 -1.3302  0.3225
    6SAPS   H7Y  764  -0.371   3.695   9.862 -0.9877  0.3301  0.8386
    6SAPS   C38  765  -0.276   3.831   9.740 -0.8192 -0.6761  0.6302
    6SAPS   H8X  766  -0.184   3.773   9.713 -2.4348 -3.3034  0.5703
    6SAPS   H8Y  767  -0.251   3.939   9.732  1.2793 -1.0352  1.9296
    6SAPS   C39  768  -0.380   3.796   9.632  0.0368 -0.3633 -0.1171
    6SAPS   H9X  769  -0.471   3.854   9.660  2.1160  2.3200  1.4168
    6SAPS   H9Y  770  -0.413   3.690   9.637  1.0474 -0.7857 -1.9489
    6SAPS  C310  771  -0.338   3.852   9.497 -0.0907  0.7902  0.1272
    6SAPS  H10X  772  -0.252   3.795   9.457  0.4164  1.8210 -0.2881
    6SAPS  H10Y  773  -0.301   3.956   9.506 -2.3143  1.6127  0.2356
    6SAPS  C311  774  -0.463   3.847   9.408  0.0699  0.3007 -0.7478
    6SAPS  H11X  775  -0.543   3.916   9.441 -1.0944 -1.9300  1.2648
    6SAPS  H11Y  776  -0.521   3.753   9.407  0.5634 -0.0044 -3.5380
    6SAPS  C312  777  -0.436   3.884   9.266  0.0785 -0.6576 -0.4277
    6SAPS  H12X  778  -0.362   3.820   9.214  0.0492  1.2941 -2.9924
    6SAPS  H12Y  779  -0.408   3.992   9.267  0.5409 -0.7572 -1.6333
    6SAPS  C313  780  -0.567   3.881   9.179 -0.4327  0.0107 -0.1377
    6SAPS  H13X  781  -0.612   3.977   9.212 -0.6277 -0.7947  2.0796
    6SAPS  H13Y  782  -0.634   3.800   9.216 -0.4374 -1.1806 -2.6466
    6SAPS  C314  783  -0.537   3.874   9.032  0.1196 -0.4441  0.7192
    6SAPS  H14X  784  -0.484   3.782   9.001 -1.0370 -0.4306 -1.3839
    6SAPS  H14Y  785  -0.477   3.965   9.012 -2.2329  1.2193  0.9711
    6SAPS  C315  786  -0.646   3.864   8.927  0.6598  0.1831  0.0840
    6SAPS  H15X  787  -0.727   3.937   8.950 -0.5586 -1.4298  0.9529
    6SAPS  H15Y  788  -0.697   3.766   8.934 -0.6688  0.5619 -3.0542
    6SAPS  C316  789  -0.605   3.892   8.780  0.3798  0.1561 -0.2462
    6SAPS  H16X  790  -0.698   3.898   8.719  2.7180 -2.0110 -4.2123
    6SAPS  H16Y  791  -0.554   3.799   8.746  2.6747  1.1110  0.5127
    6SAPS  C317  792  -0.523   4.016   8.741  0.4603  0.3775  0.4336
    6SAPS  H17X  793  -0.423   4.001   8.788  0.1857  0.0974  0.9344
    6SAPS  H17Y  794  -0.579   4.106   8.773 -1.3287 -1.0532  1.4018
    6SAPS  C318  795  -0.496   4.023   8.590 -0.1135  0.7245 -0.8840
    6SAPS  H18X  796  -0.414   3.950   8.569 -0.4954  0.3469 -1.0730
    6SAPS  H18Y  797  -0.474   4.126   8.555  0.6176  0.9563  0.2335
    6SAPS  H18Z  798  -0.578   3.975   8.533 -0.3655  0.9559 -0.7146
    7SAPS     N  799   2.332   5.487  10.875 -0.9737 -0.1682  0.2978
    7SAPS   HN1  800   2.345   5.519  10.973 -0.7102 -0.4237  0.3481
    7SAPS   HN2  801   2.335   5.383  10.880 -1.0998 -0.1736  0.2637
    7SAPS   HN3  802   2.410   5.525  10.818  0.8058 -0.2132  2.6355
    7SAPS   C12  803   2.192   5.527  10.837  1.3955  0.2280 -0.6281
    7SAPS  H12A  804   2.121   5.498  10.913 -0.2407  3.6626 -0.7433
    7SAPS   C13  805   2.171   5.680  10.819  0.1214  0.4531 -0.1985
    7SAPS  O13A  806   2.266   5.767  10.827  0.2116  0.3902 -0.1929
    7SAPS  O13B  807   2.054   5.712  10.791 -0.1272 -0.7919 -0.2083
    7SAPS   C11  808   2.162   5.459  10.698  0.3805 -0.2220 -1.0489
    7SAPS  H11A  809   2.223   5.503  10.616  2.1478 -1.1266 -0.2350
    7SAPS  H11B  810   2.057   5.473  10.665  0.3590 -0.2151 -0.9784
    7SAPS     P  811   2.114   5.204  10.643  0.0450 -0.0659 -0.4326
    7SAPS   O13  812   2.177   5.073  10.673 -0.0414 -0.3972 -0.0855
    7SAPS   O14  813   1.970   5.218  10.688  0.8962  0.2766  0.0481
    7SAPS   O12  814   2.195   5.318  10.710  0.1781 -0.1036 -0.2348
    7SAPS   O11  815   2.135   5.228  10.486  0.2641  0.3581 -0.2675
    7SAPS    C1  816   2.267   5.238  10.432  0.5151 -0.2509  0.3172
    7SAPS    HA  817   2.322   5.322  10.481  0.5641 -0.3815  0.4861
    7SAPS    HB  818   2.325   5.144  10.440  2.7544  1.0108 -0.5837
    7SAPS    C2  819   2.270   5.263  10.279  0.4571  0.1901 -0.0638
    7SAPS    HS  820   2.376   5.286  10.259 -0.1116  0.5134 -3.0482
    7SAPS   O21  821   2.173   5.356  10.239 -0.5433 -0.3786 -0.2667
    7SAPS   C21  822   2.205   5.481  10.263  0.1858 -0.5662 -0.7934
    7SAPS   O22  823   2.295   5.526  10.331  0.5012  0.0554  0.2790
    7SAPS   C22  824   2.109   5.580  10.199  0.3919 -0.0642 -0.3938
    7SAPS   H2R  825   2.053   5.639  10.274 -1.3192  1.0806 -2.4892
    7SAPS   H2S  826   2.175   5.658  10.155 -0.2370  2.2544  2.6357
    7SAPS    C3  827   2.236   5.128  10.212 -0.7298  0.2029 -0.0259
    7SAPS    HX  828   2.153   5.087  10.274  0.6763 -0.7048  1.2812
    7SAPS    HY  829   2.322   5.067  10.247  0.1853  1.3891 -0.1664
    7SAPS   O31  830   2.212   5.127  10.071 -0.5207  0.0283 -0.1834
    7SAPS   C31  831   2.086   5.144  10.029  0.2452 -0.1224 -0.3319
    7SAPS   O32  832   1.986   5.164  10.096 -0.3366 -0.3584  0.0638
    7SAPS   C32  833   2.096   5.117   9.877  0.1602  0.1454 -0.4561
    7SAPS   H2X  834   2.127   5.011   9.865  0.9423  0.3587 -0.3756
    7SAPS   H2Y  835   2.179   5.181   9.839 -0.1063  1.5419  1.2589
    7SAPS   C23  836   2.005   5.518  10.104  0.0290  0.4517  0.2605
    7SAPS   H3R  837   1.959   5.420  10.129 -1.3236  0.3910 -2.2483
    7SAPS   H3S  838   2.054   5.498  10.006  0.8538  0.6544  0.6324
    7SAPS   C24  839   1.894   5.610  10.057 -0.1000 -0.5483 -0.2612
    7SAPS   H4R  840   1.815   5.617  10.135  1.2663 -1.2800  1.2143
    7SAPS   H4S  841   1.834   5.559   9.979  1.4553 -2.1742 -0.4269
    7SAPS   C25  842   1.955   5.733   9.997 -0.7436  0.2677  0.5609
    7SAPS   H5R  843   1.994   5.810  10.065 -1.3662 -0.0976  1.3359
    7SAPS   C26  844   1.965   5.767   9.867  0.3022 -0.3296 -0.1443
    7SAPS   H6R  845   2.002   5.866   9.834 -3.3260  1.1838  0.1078
    7SAPS   C27  846   1.923   5.678   9.751 -0.2686 -0.0360  0.3794
    7SAPS   H7R  847   1.873   5.737   9.671 -0.1722 -1.4007 -0.7184
    7SAPS   H7S  848   1.842   5.607   9.775 -1.2297  0.5117 -1.1740
    7SAPS   C28  849   2.044   5.602   9.696  0.3964 -0.5445  0.1892
    7SAPS   H8R  850   2.116   5.551   9.762 -0.6430 -1.7706  0.3863
    7SAPS   C29  851   2.076   5.599   9.566 -0.0050  0.4779  0.0982
    7SAPS   H9R  852   2.153   5.530   9.528 -1.5227 -0.6797 -0.9538
    7SAPS  C210  853   2.004   5.668   9.457 -0.4251  0.0933  0.1735
    7SAPS  H10R  854   1.979   5.773   9.482 -0.2014  0.5049 -1.2860
    7SAPS  H10S  855   1.903   5.623   9.451 -1.1341  1.5492  0.8147
    7SAPS  C211  856   2.066   5.665   9.323 -0.9053  0.2758 -0.6176
    7SAPS  H11R  857   2.169   5.703   9.333 -1.1422  0.8547 -0.3607
    7SAPS  C212  858   2.029   5.617   9.208 -0.3734  0.2416  0.1835
    7SAPS  H12R  859   2.107   5.612   9.130  0.5248 -0.1210  1.0880
    7SAPS  C213  860   1.889   5.562   9.177  0.2610  0.6252 -0.0050
    7SAPS  H13R  861   1.843   5.601   9.084 -0.6484 -1.3176 -0.3906
    7SAPS  H13S  862   1.829   5.604   9.261 -1.1430  0.1316 -0.7517
    7SAPS  C214  863   1.892   5.409   9.172  0.2944  0.1300  0.1591
    7SAPS  H14R  864   1.941   5.368   9.262 -0.9316  0.8349  1.1811
    7SAPS  C215  865   1.872   5.340   9.056  0.2981 -0.8164  0.0869
    7SAPS  H15R  866   1.867   5.231   9.071  1.1662 -0.8040  0.4870
    7SAPS  C216  867   1.845   5.399   8.919  0.5101  0.0254  0.3626
    7SAPS  H16R  868   1.792   5.496   8.931  2.1010  1.0324 -0.5689
    7SAPS  H16S  869   1.780   5.332   8.859  2.5721 -3.5800  1.9702
    7SAPS  C217  870   1.967   5.411   8.829 -0.7552  0.2693 -1.0480
    7SAPS  H17R  871   2.015   5.313   8.808  1.0245  0.6090  1.1696
    7SAPS  H17S  872   2.041   5.477   8.879 -0.3204 -1.4626  0.6477
    7SAPS  C218  873   1.936   5.478   8.692 -0.1368 -0.1446 -0.0167
    7SAPS  H18R  874   1.913   5.585   8.709  3.5405  0.5792  1.0465
    7SAPS  H18S  875   1.842   5.427   8.663  0.9339 -0.8323 -2.4100
    7SAPS  C219  876   2.048   5.482   8.578 -0.6019  0.0907  0.5822
    7SAPS  H19R  877   2.011   5.506   8.476 -0.0944  2.0167  0.8262
    7SAPS  H19S  878   2.081   5.377   8.567 -0.7831  0.2127 -1.3468
    7SAPS  C220  879   2.168   5.565   8.614 -0.0751  0.1960 -0.0670
    7SAPS  H20R  880   2.218   5.532   8.708  0.9085 -0.9223 -0.9715
    7SAPS  H20S  881   2.146   5.673   8.625 -1.7841  0.1471 -2.5688
    7SAPS  H20T  882   2.243   5.554   8.533 -0.1369  1.1332 -0.2582
    7SAPS   C33  883   1.976   5.171   9.794  0.2580  0.3140 -0.2215
    7SAPS   H3X  884   1.938   5.269   9.830 -3.1878 -1.2445  0.6101
    7SAPS   H3Y  885   1.894   5.096   9.794  1.3275 -0.8631 -1.2530
    7SAPS   C34  886   2.001   5.207   9.644  0.0649  0.0795 -0.2860
    7SAPS   H4X  887   2.087   5.278   9.646  1.5672 -1.7586  2.0796
    7SAPS   H4Y  888   1.912   5.250   9.594 -0.2033  1.0800  1.0378
    7SAPS   C35  889   2.052   5.085   9.563 -0.3867 -0.5906 -0.3858
    7SAPS   H5X  890   1.969   5.013   9.548 -0.4502 -0.3410 -1.2902
    7SAPS   H5Y  891   2.137   5.037   9.615  0.5525  1.5473  0.0943
    7SAPS   C36  892   2.109   5.139   9.429 -0.2620  0.6127  0.1507
    7SAPS   H6X  893   2.205   5.192   9.451  0.6038  0.2295 -2.5498
    7SAPS   H6Y  894   2.036   5.210   9.384 -2.0253 -1.2802  0.0047
    7SAPS   C37  895   2.142   5.024   9.338  0.2904 -0.2467 -0.1719
    7SAPS   H7X  896   2.043   4.985   9.304  0.9513 -1.6136 -0.5309
    7SAPS   H7Y  897   2.202   4.946   9.390  0.9854  1.3222  1.4311
    7SAPS   C38  898   2.221   5.072   9.217  0.0009 -0.1472 -0.3942
    7SAPS   H8X  899   2.316   5.116   9.254 -0.5076  0.0920  0.6257
    7SAPS   H8Y  900   2.162   5.147   9.161  1.1170  1.7072  0.8702
    7SAPS   C39  901   2.268   4.955   9.133  0.0546 -0.3611 -0.3952
    7SAPS   H9X  902   2.184   4.883   9.126 -1.1078  0.4409  3.9048
    7SAPS   H9Y  903   2.337   4.893   9.195 -3.1300 -0.8653  2.8103
    7SAPS  C310  904   2.325   4.996   8.993  0.2518 -0.2078 -0.4638
    7SAPS  H10X  905   2.362   4.909   8.934 -0.7865  0.7499 -2.5486
    7SAPS  H10Y  906   2.411   5.064   9.006 -0.1097  0.4051 -1.2648
    7SAPS  C311  907   2.215   5.071   8.910  0.8459 -0.3160  0.8591
    7SAPS  H11X  908   2.177   5.162   8.961 -0.4384  0.3037 -1.1397
    7SAPS  H11Y  909   2.124   5.011   8.890  1.6823 -1.9079  1.7526
    7SAPS  C312  910   2.272   5.119   8.768 -0.3798 -0.0412  0.3105
    7SAPS  H12X  911   2.364   5.179   8.787  0.3311 -1.3529  1.0743
    7SAPS  H12Y  912   2.197   5.185   8.720 -0.3195 -0.2492 -0.0705
    7SAPS  C313  913   2.317   5.000   8.685  0.0207 -0.1820 -0.2856
    7SAPS  H13X  914   2.244   4.916   8.691  1.5007 -1.5716 -1.3947
    7SAPS  H13Y  915   2.414   4.960   8.721 -0.2451  0.4390  1.1494
    7SAPS  C314  916   2.344   5.033   8.536 -0.2386 -0.1865  0.7858
    7SAPS  H14X  917   2.256   5.081   8.488  1.1705  1.1253 -0.5034
    7SAPS  H14Y  918   2.347   4.937   8.479 -1.0048  0.6042 -0.6040
    7SAPS  C315  919   2.484   5.102   8.531  0.0425  0.0881 -0.2014
    7SAPS  H15X  920   2.559   5.044   8.590 -1.4388 -1.1293  0.5258
    7SAPS  H15Y  921   2.481   5.206   8.570  1.0913  0.1923 -0.3903
    7SAPS  C316  922   2.537   5.108   8.383 -0.3648 -0.2870  0.1646
    7SAPS  H16X  923   2.522   5.010   8.333 -2.0830  0.9840 -1.9533
    7SAPS  H16Y  924   2.645   5.132   8.378 -0.6604  0.9261 -0.8156
    7SAPS  C317  925   2.469   5.211   8.291  0.4192 -0.0173 -0.2263
    7SAPS  H17X  926   2.448   5.296   8.360  0.8915 -1.6703  2.0171
    7SAPS  H17Y  927   2.369   5.175   8.258  1.2397 -1.4622 -1.1822
    7SAPS  C318  928   2.564   5.254   8.181 -0.5107  0.2430  0.1862
    7SAPS  H18X  929   2.507   5.297   8.096  0.9725  0.9687 -0.4625
    7SAPS  H18Y  930   2.611   5.159   8.148  1.1152  1.1536 -0.1854
    7SAPS  H18Z  931   2.637   5.331   8.216 -0.3263  0.1159  0.0800
    8SAPS     N  932   0.293   6.782  11.504  0.4961 -0.5721 -0.0055
    8SAPS   HN1  933   0.207   6.827  11.466  0.8668  0.2857  0.1427
    8SAPS   HN2  934   0.255   6.698  11.552 -0.5007  0.8457  1.7550
    8SAPS   HN3  935   0.332   6.835  11.584 -0.0115 -1.1189  0.6053
    8SAPS   C12  936   0.385   6.739  11.393 -0.1855 -0.4722 -0.5032
    8SAPS  H12A  937   0.407   6.824  11.330 -4.1898  0.7746 -0.3864
    8SAPS   C13  938   0.513   6.683  11.453  0.1246 -0.3950  0.0902
    8SAPS  O13A  939   0.509   6.633  11.569 -0.8504 -0.2720  0.0759
    8SAPS  O13B  940   0.614   6.659  11.373  0.4576 -0.5672  0.2609
    8SAPS   C11  941   0.327   6.630  11.303  0.0653  0.1450  0.8718
    8SAPS  H11A  942   0.305   6.543  11.369 -0.7810 -1.9279 -2.0771
    8SAPS  H11B  943   0.407   6.611  11.229  0.1842  2.0397  0.4901
    8SAPS     P  944   0.166   6.684  11.092 -0.2152 -0.2811 -0.4160
    8SAPS   O13  945   0.132   6.550  11.036  0.3832  0.4873  0.2450
    8SAPS   O14  946   0.072   6.795  11.075  0.0560 -0.0807 -0.2124
    8SAPS   O12  947   0.208   6.674  11.248 -0.1937  0.1691  0.2452
    8SAPS   O11  948   0.302   6.723  11.031  0.2983 -0.3109  0.0497
    8SAPS    C1  949   0.314   6.849  10.964  0.0542  0.2159 -0.2007
    8SAPS    HA  950   0.257   6.927  11.019 -0.1455 -1.1103  1.5442
    8SAPS    HB  951   0.420   6.880  10.976  0.3884 -0.5896 -0.9795
    8SAPS    C2  952   0.284   6.858  10.804  0.7045 -0.7269 -0.7090
    8SAPS    HS  953   0.174   6.843  10.814  0.4785  1.4552  0.1959
    8SAPS   O21  954   0.355   6.759  10.732  0.0069  0.3379  0.0629
    8SAPS   C21  955   0.288   6.667  10.667 -0.4916  0.0712  0.3184
    8SAPS   O22  956   0.165   6.669  10.643 -0.1283  0.1409 -0.4195
    8SAPS   C22  957   0.386   6.557  10.616  0.1015  0.0560 -0.0737
    8SAPS   H2R  958   0.478   6.560  10.677 -2.0193  0.3040  3.2692
    8SAPS   H2S  959   0.333   6.460  10.633 -0.9937  0.9760  1.9584
    8SAPS    C3  960   0.300   7.004  10.749  0.2609  0.7779  0.3868
    8SAPS    HX  961   0.407   7.037  10.746  0.8097 -0.7677  1.8074
    8SAPS    HY  962   0.267   7.075  10.828  0.1749 -0.2427  1.2711
    8SAPS   O31  963   0.245   7.027  10.620 -0.2862 -0.1378 -0.0921
    8SAPS   C31  964   0.114   7.027  10.618 -0.4440 -0.1666 -0.2984
    8SAPS   O32  965   0.046   7.027  10.718  0.9569  0.4027 -0.0991
    8SAPS   C32  966   0.058   7.038  10.475  0.4960  0.1627 -0.2489
    8SAPS   H2X  967   0.148   7.018  10.415  2.0264 -0.4045  2.1577
    8SAPS   H2Y  968   0.022   7.142  10.459  0.7276  0.4145  0.7872
    8SAPS   C23  969   0.401   6.572  10.469  0.3129 -0.4116  0.0249
    8SAPS   H3R  970   0.435   6.676  10.449 -1.3525  0.6261  2.3125
    8SAPS   H3S  971   0.300   6.561  10.424  0.2502 -3.0211  0.7409
    8SAPS   C24  972   0.497   6.468  10.420 -0.0926  0.2625  0.2763
    8SAPS   H4R  973   0.584   6.468  10.489  0.0359 -0.9876  0.1317
    8SAPS   H4S  974   0.534   6.489  10.317 -1.3439 -2.2667 -0.7525
    8SAPS   C25  975   0.457   6.321  10.434  0.5404 -0.3741  0.2056
    8SAPS   H5R  976   0.478   6.270  10.530  0.2531  0.9685  0.9812
    8SAPS   C26  977   0.398   6.259  10.333 -0.0916 -0.6000  0.5227
    8SAPS   H6R  978   0.366   6.155  10.350 -0.9353 -0.5186 -0.5445
    8SAPS   C27  979   0.352   6.322  10.200 -0.3258  0.0010 -0.5615
    8SAPS   H7R  980   0.427   6.295  10.122  2.1758  2.4690  0.8938
    8SAPS   H7S  981   0.363   6.432  10.209 -1.2120  0.0739 -0.3308
    8SAPS   C28  982   0.215   6.280  10.154 -0.7315  0.2523 -0.0305
    8SAPS   H8R  983   0.170   6.199  10.213  1.4909 -0.4215  0.7772
    8SAPS   C29  984   0.154   6.315  10.040  0.3076 -0.1413 -0.2990
    8SAPS   H9R  985   0.070   6.259   9.997  0.1983 -1.3635  1.4549
    8SAPS  C210  986   0.215   6.403   9.932 -0.4602 -0.9492  0.2436
    8SAPS  H10R  987   0.312   6.443   9.969 -0.4952 -0.9698  0.3566
    8SAPS  H10S  988   0.145   6.488   9.915 -0.0844  0.1900  3.9173
    8SAPS  C211  989   0.247   6.333   9.799  0.0950 -0.1530  0.3735
    8SAPS  H11R  990   0.239   6.224   9.797 -1.4150 -0.0496 -0.1015
    8SAPS  C212  991   0.280   6.394   9.680  0.3956 -0.0454  0.1017
    8SAPS  H12R  992   0.308   6.329   9.596  0.7459 -1.0283  0.9719
    8SAPS  C213  993   0.290   6.542   9.658 -0.4866 -0.6189  0.1006
    8SAPS  H13R  994   0.371   6.558   9.583  0.8674 -2.2913  1.1661
    8SAPS  H13S  995   0.325   6.596   9.749 -4.0721  2.9967 -0.5200
    8SAPS  C214  996   0.161   6.617   9.637 -0.1177  0.3026 -0.6383
    8SAPS  H14R  997   0.075   6.572   9.689 -0.3922  1.6353  0.1017
    8SAPS  C215  998   0.141   6.734   9.572 -0.6964 -0.3152 -0.6814
    8SAPS  H15R  999   0.043   6.783   9.562 -1.2252 -1.6094 -2.2056
    8SAPS  C216 1000   0.250   6.817   9.499  0.2974  1.2589 -0.0576
    8SAPS  H16R 1001   0.345   6.762   9.510 -0.9075 -1.1990 -1.4658
    8SAPS  H16S 1002   0.264   6.917   9.545 -6.1740  1.5125  1.9051
    8SAPS  C217 1003   0.203   6.827   9.351  0.5951  0.1095  0.8432
    8SAPS  H17R 1004   0.283   6.881   9.295  0.2998 -0.6018 -0.2857
    8SAPS  H17S 1005   0.110   6.886   9.340  2.3776  2.9917  0.6116
    8SAPS  C218 1006   0.203   6.686   9.283  0.8436 -0.1490  0.2560
    8SAPS  H18R 1007   0.139   6.608   9.330 -0.6077  1.1240  0.4314
    8SAPS  H18S 1008   0.302   6.638   9.298  0.6466 -1.0234 -1.1763
    8SAPS  C219 1009   0.183   6.708   9.129  0.0501  0.5629  0.2944
    8SAPS  H19R 1010   0.253   6.784   9.087 -2.1376  1.0979 -2.5005
    8SAPS  H19S 1011   0.076   6.735   9.122  0.2393  1.4216  0.6603
    8SAPS  C220 1012   0.199   6.583   9.050  0.0385 -0.0136 -0.1055
    8SAPS  H20R 1013   0.150   6.499   9.104  0.8154  0.0404  0.6908
    8SAPS  H20S 1014   0.307   6.564   9.032 -0.1891  0.1038 -1.5993
    8SAPS  H20T 1015   0.146   6.602   8.954 -0.0354 -0.4301 -0.1461
    8SAPS   C33 1016  -0.054   6.934  10.445 -0.1484 -0.3865  0.3245
    8SAPS   H3X 1017  -0.153   6.968  10.483  0.0833  2.3353 -1.4006
    8SAPS   H3Y 1018  -0.030   6.849  10.512 -0.1997  0.9233  2.0346
    8SAPS   C34 1019  -0.072   6.884  10.299  0.5448 -0.5479  0.7694
    8SAPS   H4X 1020  -0.143   6.799  10.305 -0.4595  0.2977  1.1137
    8SAPS   H4Y 1021   0.020   6.836  10.259 -0.2725 -1.1868 -0.3606
    8SAPS   C35 1022  -0.108   6.999  10.196  0.5436  0.2509 -0.2017
    8SAPS   H5X 1023  -0.017   7.060  10.179  0.6941  0.6036  1.7945
    8SAPS   H5Y 1024  -0.191   7.061  10.236 -0.3217 -1.7962  1.2966
    8SAPS   C36 1025  -0.153   6.943  10.058 -0.5825  0.0585  0.3250
    8SAPS   H6X 1026  -0.063   6.889  10.022 -0.1060  0.3597  1.0612
    8SAPS   H6Y 1027  -0.175   7.030   9.993 -0.4486  0.5930  0.9940
    8SAPS   C37 1028  -0.277   6.844  10.061  0.3711  0.3731  0.2338
    8SAPS   H7X 1029  -0.361   6.906  10.099  1.4187  0.2057  2.9354
    8SAPS   H7Y 1030  -0.254   6.753  10.121 -1.1080 -0.1603  0.0148
    8SAPS   C38 1031  -0.315   6.782   9.924 -0.3024  0.2461 -0.1271
    8SAPS   H8X 1032  -0.236   6.713   9.890 -0.7631 -1.5354  2.2587
    8SAPS   H8Y 1033  -0.297   6.865   9.852  1.7006 -0.1440 -0.1081
    8SAPS   C39 1034  -0.458   6.726   9.909 -0.3455  0.1774 -1.0190
    8SAPS   H9X 1035  -0.532   6.796   9.953 -0.4653  0.6086 -1.8918
    8SAPS   H9Y 1036  -0.458   6.628   9.960 -2.5953 -0.2753 -1.8511
    8SAPS  C310 1037  -0.495   6.690   9.762 -0.5650 -0.5583  0.0056
    8SAPS  H10X 1038  -0.565   6.606   9.744 -0.5766 -0.1705 -1.9831
    8SAPS  H10Y 1039  -0.398   6.663   9.715 -0.3712 -1.1198  0.7300
    8SAPS  C311 1040  -0.541   6.819   9.690 -0.5724 -0.7977 -0.0118
    8SAPS  H11X 1041  -0.454   6.886   9.708 -1.0358 -0.3254  0.5039
    8SAPS  H11Y 1042  -0.636   6.861   9.727  0.3395 -0.6855  2.2799
    8SAPS  C312 1043  -0.536   6.808   9.533 -0.3112  0.4134 -0.9180
    8SAPS  H12X 1044  -0.431   6.798   9.499 -0.3030  2.0013 -1.4093
    8SAPS  H12Y 1045  -0.579   6.906   9.505  1.2843  1.5727  0.6033
    8SAPS  C313 1046  -0.615   6.684   9.474  0.5430  0.7363 -0.2084
    8SAPS  H13X 1047  -0.714   6.694   9.522  0.4452 -1.8748  0.2354
    8SAPS  H13Y 1048  -0.577   6.588   9.516  0.6357 -0.0720 -2.0821
    8SAPS  C314 1049  -0.622   6.674   9.320  0.0892 -0.5483  0.5156
    8SAPS  H14X 1050  -0.521   6.634   9.299  0.3603  0.4288 -0.1038
    8SAPS  H14Y 1051  -0.628   6.775   9.274 -3.1566 -0.5434  0.8259
    8SAPS  C315 1052  -0.720   6.578   9.259  0.4986  0.0030 -0.3544
    8SAPS  H15X 1053  -0.815   6.579   9.317  1.9711 -0.1174  2.1216
    8SAPS  H15Y 1054  -0.676   6.478   9.282 -0.7668 -0.0131  2.2266
    8SAPS  C316 1055  -0.752   6.608   9.107  0.2372  0.3157 -0.4795
    8SAPS  H16X 1056  -0.663   6.631   9.046 -0.0465  2.0682 -0.2597
    8SAPS  H16Y 1057  -0.814   6.699   9.095  2.1739  1.7116 -0.0208
    8SAPS  C317 1058  -0.822   6.493   9.033  0.5377  1.1715  0.3168
    8SAPS  H17X 1059  -0.826   6.527   8.927 -0.8399  0.9488  0.2884
    8SAPS  H17Y 1060  -0.924   6.485   9.078  0.2519  2.5141 -0.0683
    8SAPS  C318 1061  -0.733   6.367   9.033  0.3795 -0.1578 -0.6101
    8SAPS  H18X 1062  -0.631   6.383   8.993 -0.8870 -0.0051 -3.9159
    8SAPS  H18Y 1063  -0.789   6.289   8.977  0.1080  0.1950 -0.8274
    8SAPS  H18Z 1064  -0.726   6.332   9.138  0.6861 -1.4205 -1.0366
    9SAPS     N 1065   1.232   1.668   6.328  0.4047  0.4681 -0.5017
    9SAPS   HN1 1066   1.281   1.578   6.343 -1.9779 -0.9238 -0.7853
    9SAPS   HN2 1067   1.146   1.645   6.274  0.3244  0.1014 -0.2196
    9SAPS   HN3 1068   1.290   1.720   6.259  1.6310 -0.4221 -0.1568
    9SAPS   C12 1069   1.198   1.736   6.459 -0.8681  0.2591  0.3408
    9SAPS  H12A 1070   1.173   1.840   6.449 -2.8193 -0.1684  0.6174
    9SAPS   C13 1071   1.088   1.655   6.533  0.1629 -0.2366  0.6918
    9SAPS  O13A 1072   1.027   1.560   6.470  0.2571 -0.3623 -0.0152
    9SAPS  O13B 1073   1.051   1.695   6.640 -0.4277  0.1815  0.5404
    9SAPS   C11 1074   1.320   1.734   6.549  0.5014  0.2483 -0.2564
    9SAPS  H11A 1075   1.340   1.633   6.591 -3.5182  0.2240  1.8987
    9SAPS  H11B 1076   1.290   1.794   6.638 -0.8364  1.8778 -1.7881
    9SAPS     P 1077   1.474   1.941   6.510 -0.2239  0.2227 -0.0592
    9SAPS   O13 1078   1.604   1.977   6.454  0.2483  0.1745 -0.8473
    9SAPS   O14 1079   1.354   2.016   6.463 -0.2495  0.2577  0.2736
    9SAPS   O12 1080   1.439   1.787   6.485 -0.4845  0.0242 -0.1882
    9SAPS   O11 1081   1.490   1.936   6.669  0.1312  0.3237 -0.4986
    9SAPS    C1 1082   1.430   2.039   6.744 -0.0303 -0.5774 -0.3650
    9SAPS    HA 1083   1.327   2.059   6.708  0.8322  2.2325 -1.3889
    9SAPS    HB 1084   1.429   1.999   6.848  2.6384 -3.1099 -1.2507
    9SAPS    C2 1085   1.511   2.167   6.752  0.3505  0.0929  0.3840
    9SAPS    HS 1086   1.525   2.203   6.648 -2.8910 -2.1730 -0.9207
    9SAPS   O21 1087   1.637   2.136   6.810  0.1562 -0.5378 -0.1207
    9SAPS   C21 1088   1.737   2.223   6.818  0.1489  0.3495  0.5753
    9SAPS   O22 1089   1.732   2.338   6.775  0.2570  0.0809 -0.3187
    9SAPS   C22 1090   1.844   2.156   6.900 -1.3935  0.0830 -0.5073
    9SAPS   H2R 1091   1.803   2.119   6.997 -0.9217  0.0895 -0.3018
    9SAPS   H2S 1092   1.870   2.067   6.839  1.6084  0.8595 -0.4171
    9SAPS    C3 1093   1.446   2.283   6.818 -0.3997 -0.1102  1.0399
    9SAPS    HX 1094   1.341   2.275   6.783  0.3091  0.3062 -1.1975
    9SAPS    HY 1095   1.478   2.379   6.773  0.8319 -0.8655  0.2617
    9SAPS   O31 1096   1.440   2.285   6.963 -0.2721  0.1153 -0.1719
    9SAPS   C31 1097   1.498   2.387   7.027  0.0487  0.5171 -0.0999
    9SAPS   O32 1098   1.521   2.495   6.976  0.8064 -0.9329 -0.4546
    9SAPS   C32 1099   1.544   2.342   7.172 -0.2619  0.3958  0.2451
    9SAPS   H2X 1100   1.649   2.306   7.175  0.0087  1.1227 -0.3201
    9SAPS   H2Y 1101   1.466   2.270   7.206  2.9975 -2.7642  1.3993
    9SAPS   C23 1102   1.978   2.225   6.920  0.1148 -0.2732  0.8784
    9SAPS   H3R 1103   2.003   2.273   6.823 -2.4716 -0.2006  0.2134
    9SAPS   H3S 1104   2.060   2.156   6.948  0.4143 -0.0805  0.4804
    9SAPS   C24 1105   1.970   2.336   7.025  0.0585  0.0658  0.1150
    9SAPS   H4R 1106   1.929   2.291   7.117 -1.1777  1.4200  0.2327
    9SAPS   H4S 1107   1.898   2.413   6.991 -0.0306 -0.0484  0.0441
    9SAPS   C25 1108   2.100   2.402   7.044 -0.0681 -0.4671 -0.5038
    9SAPS   H5R 1109   2.154   2.437   6.954 -1.4405  0.2245 -1.0671
    9SAPS   C26 1110   2.181   2.403   7.151 -0.5652 -0.0884  0.5542
    9SAPS   H6R 1111   2.271   2.466   7.146 -1.3484  1.1517  1.6209
    9SAPS   C27 1112   2.151   2.332   7.277  0.0391 -0.1392 -0.4684
    9SAPS   H7R 1113   2.162   2.224   7.256  2.0220 -0.5808  2.4472
    9SAPS   H7S 1114   2.046   2.356   7.303  0.2974 -1.1863  1.6920
    9SAPS   C28 1115   2.234   2.372   7.399  0.3272 -0.6068  0.0255
    9SAPS   H8R 1116   2.336   2.408   7.376  0.4999 -1.2167 -0.1761
    9SAPS   C29 1117   2.186   2.379   7.525 -0.3462  0.2575 -0.5962
    9SAPS   H9R 1118   2.244   2.418   7.610  2.3381  0.1772 -2.3250
    9SAPS  C210 1119   2.052   2.337   7.571 -0.8720 -0.0025 -0.0986
    9SAPS  H10R 1120   2.068   2.267   7.656 -4.8239  0.0406  0.7670
    9SAPS  H10S 1121   1.999   2.279   7.492 -1.4433 -1.7650  1.5378
    9SAPS  C211 1122   1.974   2.455   7.620 -0.1577  0.4170  0.3537
    9SAPS  H11R 1123   1.943   2.524   7.539 -3.0641 -1.7370 -0.4698
    9SAPS  C212 1124   1.956   2.494   7.745  0.4640  0.4987 -0.3260
    9SAPS  H12R 1125   1.899   2.585   7.771  1.8109  0.5471  2.6733
    9SAPS  C213 1126   2.018   2.425   7.869  0.8269 -0.4080  0.2815
    9SAPS  H13R 1127   2.008   2.489   7.960 -1.5837 -0.7286  0.2900
    9SAPS  H13S 1128   2.128   2.416   7.858  0.9213  1.3648 -0.3396
    9SAPS  C214 1129   1.955   2.292   7.908 -0.2923  0.3380  0.4387
    9SAPS  H14R 1130   1.970   2.210   7.836  2.8624 -0.6700  2.1644
    9SAPS  C215 1131   1.886   2.268   8.021 -0.7151  0.3207 -0.5584
    9SAPS  H15R 1132   1.832   2.174   8.036 -1.3352  0.8458  0.5975
    9SAPS  C216 1133   1.861   2.366   8.127 -0.2652 -0.0161 -0.8269
    9SAPS  H16R 1134   1.755   2.349   8.156 -0.4103 -0.1407 -1.4250
    9SAPS  H16S 1135   1.872   2.471   8.093  1.4466  0.0993  0.0235
    9SAPS  C217 1136   1.960   2.345   8.247 -0.0878  0.3698 -0.3918
    9SAPS  H17R 1137   2.063   2.364   8.208 -1.0299  2.5822 -1.9064
    9SAPS  H17S 1138   1.958   2.239   8.279  1.1307 -0.2450 -2.2408
    9SAPS  C218 1139   1.934   2.434   8.374  0.1271  0.4961 -0.4155
    9SAPS  H18R 1140   1.842   2.400   8.427  0.9841  0.7070  1.2318
    9SAPS  H18S 1141   1.911   2.535   8.334  0.7285  1.3369  1.3048
    9SAPS  C219 1142   2.056   2.453   8.469 -0.7901 -0.8532  0.0165
    9SAPS  H19R 1143   2.034   2.525   8.550  0.4295  1.2176 -1.4346
    9SAPS  H19S 1144   2.133   2.497   8.402 -0.9435  2.3016  1.8388
    9SAPS  C220 1145   2.111   2.328   8.537 -0.3819 -0.6789 -0.0059
    9SAPS  H20R 1146   2.185   2.363   8.612 -2.1149 -0.2106  1.5333
    9SAPS  H20S 1147   2.157   2.264   8.459 -1.1500  0.2241 -1.2184
    9SAPS  H20T 1148   2.036   2.267   8.592 -0.3833 -3.0048 -2.5374
    9SAPS   C33 1149   1.540   2.462   7.265  0.4867  0.4210  0.0920
    9SAPS   H3X 1150   1.447   2.522   7.263 -1.0297 -1.8466  1.1607
    9SAPS   H3Y 1151   1.620   2.535   7.239 -0.5568  0.4717 -3.2599
    9SAPS   C34 1152   1.569   2.425   7.411  0.5473  1.0478 -0.4590
    9SAPS   H4X 1153   1.679   2.411   7.421  0.4106 -0.4296 -0.8023
    9SAPS   H4Y 1154   1.508   2.338   7.442  2.5861 -0.1484  0.3224
    9SAPS   C35 1155   1.542   2.547   7.508 -0.1757 -0.2448 -0.1744
    9SAPS   H5X 1156   1.433   2.565   7.518 -0.5483 -2.3095 -0.1697
    9SAPS   H5Y 1157   1.594   2.643   7.487 -1.1874  0.5724  0.9929
    9SAPS   C36 1158   1.586   2.508   7.649 -0.2715  0.7754  0.2852
    9SAPS   H6X 1159   1.696   2.503   7.669 -0.3205 -0.0597  0.3562
    9SAPS   H6Y 1160   1.556   2.406   7.679 -0.7265  0.0866 -2.3941
    9SAPS   C37 1161   1.532   2.616   7.746  0.5603  0.0012  0.8056
    9SAPS   H7X 1162   1.422   2.611   7.732  0.9353  0.1002 -2.5482
    9SAPS   H7Y 1163   1.566   2.719   7.722 -1.1165  0.3511 -0.1898
    9SAPS   C38 1164   1.554   2.598   7.895 -0.1363  0.2603  0.0845
    9SAPS   H8X 1165   1.663   2.582   7.912 -0.7257 -1.5265  2.4122
    9SAPS   H8Y 1166   1.488   2.510   7.915 -0.3670  0.5391  0.5482
    9SAPS   C39 1167   1.514   2.726   7.968  0.0348  0.2460  1.1053
    9SAPS   H9X 1168   1.403   2.731   7.964 -0.1070 -2.8583 -0.8393
    9SAPS   H9Y 1169   1.555   2.820   7.925 -0.2345  0.5033  1.4130
    9SAPS  C310 1170   1.554   2.722   8.112 -0.6478  0.4621 -0.6134
    9SAPS  H10X 1171   1.664   2.739   8.123 -0.6780  0.6666 -0.6283
    9SAPS  H10Y 1172   1.531   2.623   8.156  0.8842  0.6809  0.7421
    9SAPS  C311 1173   1.470   2.817   8.198 -0.2094  0.6434 -0.1425
    9SAPS  H11X 1174   1.360   2.806   8.188 -0.5958  0.4295  3.4540
    9SAPS  H11Y 1175   1.498   2.922   8.176 -1.0703  1.4680  2.3963
    9SAPS  C312 1176   1.504   2.800   8.348 -0.3671 -0.4328  0.5517
    9SAPS  H12X 1177   1.612   2.797   8.371 -0.2415 -0.7029 -0.0485
    9SAPS  H12Y 1178   1.468   2.702   8.388 -0.9263 -1.0609 -1.4226
    9SAPS  C313 1179   1.430   2.904   8.440  0.7598 -0.3198 -0.3673
    9SAPS  H13X 1180   1.319   2.902   8.429  0.5155 -1.2205  1.9036
    9SAPS  H13Y 1181   1.460   3.008   8.418 -0.0325  0.1424  0.6649
    9SAPS  C314 1182   1.444   2.877   8.590  0.0091 -0.5419 -0.2679
    9SAPS  H14X 1183   1.552   2.875   8.615  0.0610  2.3490 -0.1299
    9SAPS  H14Y 1184   1.410   2.773   8.609  1.3769 -1.1749 -1.1669
    9SAPS  C315 1185   1.376   2.995   8.657  0.6230 -0.1306 -0.2629
    9SAPS  H15X 1186   1.266   2.986   8.643  0.7610 -2.2288 -0.2340
    9SAPS  H15Y 1187   1.400   3.093   8.611  2.2288 -1.9984 -3.6566
    9SAPS  C316 1188   1.397   3.007   8.812  0.3031 -0.6088  0.3962
    9SAPS  H16X 1189   1.505   3.005   8.840  0.6202 -0.3640 -0.7676
    9SAPS  H16Y 1190   1.353   2.914   8.853  1.5507 -0.1905  2.8273
    9SAPS  C317 1191   1.331   3.134   8.871 -0.5660  0.0014 -0.4556
    9SAPS  H17X 1192   1.220   3.130   8.875 -0.6763  1.7221 -1.3673
    9SAPS  H17Y 1193   1.358   3.218   8.804 -0.6417  0.9439  0.6812
    9SAPS  C318 1194   1.376   3.163   9.015 -0.0755  0.6086 -1.2027
    9SAPS  H18X 1195   1.343   3.257   9.063  0.2938  0.3482 -0.4430
    9SAPS  H18Y 1196   1.485   3.185   9.012 -0.4381  2.5252 -1.1333
    9SAPS  H18Z 1197   1.348   3.079   9.083 -2.1726  0.8608 -1.7061
   10SAPS     N 1198   0.905   1.435   6.270 -0.5795 -0.1276  0.2430
   10SAPS   HN1 1199   0.957   1.488   6.343  0.1275 -2.0657  1.1526
   10SAPS   HN2 1200   0.839   1.506   6.231 -1.3110  0.8458  3.1426
   10SAPS   HN3 1201   0.855   1.362   6.323  0.2572 -0.9926 -0.1556
   10SAPS   C12 1202   0.990   1.384   6.159 -0.5819  0.2614  0.0802
   10SAPS  H12A 1203   0.926   1.321   6.099  0.1247 -0.1530 -0.2489
   10SAPS   C13 1204   1.046   1.487   6.068 -0.5951  0.8435  0.3291
   10SAPS  O13A 1205   1.059   1.603   6.105  0.0662 -0.9023  0.1951
   10SAPS  O13B 1206   1.076   1.450   5.949 -0.3838  0.0703 -0.4518
   10SAPS   C11 1207   1.103   1.293   6.221  0.0403 -0.8023 -0.0968
   10SAPS  H11A 1208   1.150   1.228   6.144 -0.1113  2.2683 -2.9049
   10SAPS  H11B 1209   1.054   1.220   6.288 -2.1199 -0.6315 -1.4341
   10SAPS     P 1210   1.336   1.329   6.342 -0.5515 -0.2445 -0.2503
   10SAPS   O13 1211   1.402   1.249   6.237 -0.4153 -0.3133  0.1059
   10SAPS   O14 1212   1.410   1.447   6.390  1.0007  0.0711 -0.1542
   10SAPS   O12 1213   1.198   1.375   6.287  0.1807 -0.1081  0.5814
   10SAPS   O11 1214   1.308   1.222   6.464 -0.2084  0.3383 -0.3070
   10SAPS    C1 1215   1.227   1.259   6.570 -0.2809 -0.3558  0.0613
   10SAPS    HA 1216   1.151   1.337   6.548  0.1649 -0.0460 -0.3713
   10SAPS    HB 1217   1.166   1.167   6.589 -1.1415  0.0551 -0.6871
   10SAPS    C2 1218   1.311   1.294   6.694  0.4614 -0.6781 -0.1867
   10SAPS    HS 1219   1.383   1.370   6.657 -1.0770  0.2838 -1.2730
   10SAPS   O21 1220   1.375   1.178   6.753  0.2572 -0.1210  0.1335
   10SAPS   C21 1221   1.499   1.194   6.794  0.1318 -0.0311 -0.0652
   10SAPS   O22 1222   1.558   1.298   6.805  0.9097 -0.0817 -0.4549
   10SAPS   C22 1223   1.564   1.048   6.818  0.2995  0.0845  0.1580
   10SAPS   H2R 1224   1.481   0.981   6.851  2.0356 -2.5578 -0.7128
   10SAPS   H2S 1225   1.609   1.013   6.723  0.2814 -1.6066  0.7474
   10SAPS    C3 1226   1.224   1.360   6.803 -0.0612 -0.0877  0.3338
   10SAPS    HX 1227   1.135   1.296   6.822 -0.7031 -0.0820 -2.3664
   10SAPS    HY 1228   1.188   1.452   6.752  1.7224 -1.5432 -3.7447
   10SAPS   O31 1229   1.303   1.377   6.923  0.2709  0.1227 -0.2233
   10SAPS   C31 1230   1.374   1.489   6.940 -0.3193 -0.0260  0.9602
   10SAPS   O32 1231   1.381   1.580   6.862  0.0840  0.1480 -0.0191
   10SAPS   C32 1232   1.440   1.511   7.078  0.4232  0.4147 -1.0660
   10SAPS   H2X 1233   1.498   1.603   7.059 -0.8029  1.2036 -1.0164
   10SAPS   H2Y 1234   1.517   1.435   7.103  2.2412  0.7206 -5.3352
   10SAPS   C23 1235   1.692   1.051   6.911 -0.1211  0.0219 -0.0427
   10SAPS   H3R 1236   1.684   1.137   6.982 -5.3274 -0.6389  0.4298
   10SAPS   H3S 1237   1.788   1.060   6.857  1.1750 -2.7904  1.6734
   10SAPS   C24 1238   1.689   0.923   7.002  0.7344 -0.1227  0.0367
   10SAPS   H4R 1239   1.669   0.838   6.934 -2.8631  0.4341  0.3295
   10SAPS   H4S 1240   1.602   0.934   7.070 -1.7808 -0.3428 -3.0543
   10SAPS   C25 1241   1.806   0.884   7.089  0.3095  0.8135  0.7082
   10SAPS   H5R 1242   1.883   0.839   7.024 -1.7775 -0.3934 -1.0185
   10SAPS   C26 1243   1.824   0.887   7.223  0.0724  0.1058 -0.0324
   10SAPS   H6R 1244   1.924   0.867   7.263 -0.1455 -1.2258 -0.1111
   10SAPS   C27 1245   1.732   0.929   7.337 -0.0838  0.2471 -0.6013
   10SAPS   H7R 1246   1.708   0.831   7.383 -1.8659  0.0443 -1.9144
   10SAPS   H7S 1247   1.635   0.968   7.298 -0.7940 -0.5965  0.2954
   10SAPS   C28 1248   1.798   1.017   7.439  0.0612  0.3527  0.3696
   10SAPS   H8R 1249   1.793   1.126   7.421  0.7297  0.3613  0.2452
   10SAPS   C29 1250   1.841   0.979   7.560 -0.7438 -0.2002 -0.7398
   10SAPS   H9R 1251   1.886   1.055   7.626 -2.2731 -0.3314  0.5005
   10SAPS  C210 1252   1.837   0.834   7.616 -0.1836 -0.1880  0.5745
   10SAPS  H10R 1253   1.931   0.814   7.673 -0.5559 -1.6842  0.6798
   10SAPS  H10S 1254   1.840   0.757   7.537  1.5050 -1.4451  1.8388
   10SAPS  C211 1255   1.720   0.793   7.691  0.1219  0.0197 -0.6166
   10SAPS  H11R 1256   1.622   0.827   7.655 -0.2594 -0.7727 -0.3264
   10SAPS  C212 1257   1.714   0.714   7.797  0.2301  0.3837  0.2980
   10SAPS  H12R 1258   1.611   0.694   7.831 -1.2520  0.9422 -3.6167
   10SAPS  C213 1259   1.830   0.648   7.865 -0.6802  0.2293 -0.0827
   10SAPS  H13R 1260   1.915   0.720   7.872  0.3877 -1.1141  1.0453
   10SAPS  H13S 1261   1.872   0.571   7.797  1.9889 -0.6803  2.4986
   10SAPS  C214 1262   1.791   0.594   8.001 -0.5227 -0.1401 -0.9844
   10SAPS  H14R 1263   1.695   0.543   8.011  0.3611 -1.4697  1.0484
   10SAPS  C215 1264   1.865   0.596   8.113 -0.0014  0.4035 -0.4758
   10SAPS  H15R 1265   1.821   0.552   8.204 -0.6289  1.5959 -0.1885
   10SAPS  C216 1266   2.004   0.644   8.140 -0.2767 -0.9418  0.3061
   10SAPS  H16R 1267   1.993   0.738   8.198 -1.4197 -0.9184  0.0688
   10SAPS  H16S 1268   2.056   0.674   8.047  0.4626  1.1461  1.3484
   10SAPS  C217 1269   2.090   0.543   8.226 -0.3367  0.7918  0.0787
   10SAPS  H17R 1270   2.191   0.586   8.239 -0.2227  0.5505 -0.0017
   10SAPS  H17S 1271   2.105   0.453   8.162 -2.1132 -0.1666  0.9654
   10SAPS  C218 1272   2.030   0.495   8.359  0.4286 -0.0471  0.4531
   10SAPS  H18R 1273   1.949   0.419   8.348  0.2810  0.4963 -2.5844
   10SAPS  H18S 1274   1.984   0.575   8.421 -1.3002 -0.9991  0.4244
   10SAPS  C219 1275   2.135   0.423   8.451  0.5287 -0.7588 -0.6445
   10SAPS  H19R 1276   2.080   0.398   8.545  3.1984 -0.4788  1.0249
   10SAPS  H19S 1277   2.218   0.494   8.466 -0.7674  0.7404 -0.4280
   10SAPS  C220 1278   2.188   0.297   8.399  0.5063 -0.4107  0.9481
   10SAPS  H20R 1279   2.221   0.225   8.478 -0.5140 -0.6960  1.1236
   10SAPS  H20S 1280   2.268   0.313   8.324  1.2879 -1.5186  1.5239
   10SAPS  H20T 1281   2.105   0.248   8.344  0.3426  2.3976 -1.4075
   10SAPS   C33 1282   1.338   1.544   7.187  0.3220  0.1295 -0.0666
   10SAPS   H3X 1283   1.275   1.453   7.205  1.2018  0.0315  2.7508
   10SAPS   H3Y 1284   1.276   1.632   7.160  0.1918  0.3105  0.8035
   10SAPS   C34 1285   1.399   1.591   7.315 -0.5210  0.3926  0.2675
   10SAPS   H4X 1286   1.438   1.690   7.285 -1.7880  0.5193 -0.9979
   10SAPS   H4Y 1287   1.487   1.526   7.338 -1.1194 -0.6565 -0.3725
   10SAPS   C35 1288   1.300   1.601   7.433 -0.0458  0.1935 -0.7386
   10SAPS   H5X 1289   1.263   1.499   7.458 -2.2923  0.9162 -0.9711
   10SAPS   H5Y 1290   1.213   1.663   7.402  0.3477  1.6970  1.0781
   10SAPS   C36 1291   1.353   1.650   7.566  0.2227  0.1908 -0.0719
   10SAPS   H6X 1292   1.371   1.760   7.556 -1.2845  0.3268 -1.6234
   10SAPS   H6Y 1293   1.448   1.598   7.586 -0.3668  0.0454  2.5022
   10SAPS   C37 1294   1.250   1.641   7.674  0.0371 -0.5214 -0.0938
   10SAPS   H7X 1295   1.207   1.540   7.690 -0.7214 -0.1921 -0.0197
   10SAPS   H7Y 1296   1.166   1.712   7.657 -0.6480 -1.5390 -1.0828
   10SAPS   C38 1297   1.307   1.682   7.811  0.4206  0.1033  0.1760
   10SAPS   H8X 1298   1.346   1.785   7.799  0.2006  0.0058 -1.5046
   10SAPS   H8Y 1299   1.393   1.620   7.844 -0.8894 -1.4625  0.7233
   10SAPS   C39 1300   1.205   1.679   7.925  0.2805 -0.1076  0.4307
   10SAPS   H9X 1301   1.103   1.716   7.897 -1.2744 -3.8626  0.9209
   10SAPS   H9Y 1302   1.230   1.732   8.019  0.1456 -0.0776  0.4509
   10SAPS  C310 1303   1.185   1.535   7.977  0.1930 -0.2431 -0.0631
   10SAPS  H10X 1304   1.268   1.506   8.044 -1.1429 -0.6413  1.4581
   10SAPS  H10Y 1305   1.200   1.463   7.894 -1.8220 -2.0141  1.0256
   10SAPS  C311 1306   1.048   1.513   8.046 -0.0868  0.1909 -1.0206
   10SAPS  H11X 1307   1.052   1.411   8.088  1.6568  1.7138  2.6764
   10SAPS  H11Y 1308   0.968   1.516   7.968 -1.6158 -1.3330  0.4717
   10SAPS  C312 1309   1.024   1.606   8.163  0.3356 -0.1767 -0.0656
   10SAPS  H12X 1310   0.917   1.585   8.185  0.0650  1.4053  0.1516
   10SAPS  H12Y 1311   1.027   1.713   8.134 -1.8383  0.0337  0.3833
   10SAPS  C313 1312   1.116   1.577   8.281 -0.5001 -0.2747 -0.1788
   10SAPS  H13X 1313   1.220   1.608   8.260 -0.9210  1.1456 -0.1941
   10SAPS  H13Y 1314   1.126   1.467   8.295  0.2006 -0.2180 -0.2419
   10SAPS  C314 1315   1.056   1.656   8.400  0.1380 -0.1055 -0.3743
   10SAPS  H14X 1316   0.989   1.589   8.457 -1.2612  1.2068 -0.4467
   10SAPS  H14Y 1317   0.994   1.743   8.369  0.3052 -0.1320 -0.7933
   10SAPS  C315 1318   1.166   1.711   8.501 -0.5826  0.1988 -0.6795
   10SAPS  H15X 1319   1.219   1.614   8.519 -0.1107  0.7922  1.2359
   10SAPS  H15Y 1320   1.105   1.744   8.587  2.7345  1.9447  1.0664
   10SAPS  C316 1321   1.254   1.813   8.436 -0.2983  0.4917 -0.1041
   10SAPS  H16X 1322   1.184   1.897   8.423 -0.1777  0.4506 -1.1141
   10SAPS  H16Y 1323   1.288   1.778   8.336  1.7217 -2.0676  1.4079
   10SAPS  C317 1324   1.380   1.849   8.512  0.0774 -0.1199 -0.4526
   10SAPS  H17X 1325   1.439   1.933   8.468  2.1651 -1.2281  0.1995
   10SAPS  H17Y 1326   1.441   1.758   8.498  0.5432  0.2792 -1.0406
   10SAPS  C318 1327   1.354   1.895   8.658  0.3009 -0.4784 -0.0448
   10SAPS  H18X 1328   1.256   1.862   8.699  0.9808  0.5835  2.5313
   10SAPS  H18Y 1329   1.355   2.004   8.679  1.0979 -0.7691  1.5135
   10SAPS  H18Z 1330   1.430   1.846   8.722 -1.1259 -1.1953  1.1262
   11SAPS     N 1331   3.633   5.068   5.666  0.1812  0.5153  0.3124
   11SAPS   HN1 1332   3.631   5.063   5.770 -2.1330 -1.6919  0.2008
   11SAPS   HN2 1333   3.713   5.016   5.625  1.5501  0.9011  2.3928
   11SAPS   HN3 1334   3.645   5.170   5.646  2.6102 -0.0510 -1.3969
   11SAPS   C12 1335   3.497   5.018   5.621  0.1287 -0.0164  0.0379
   11SAPS  H12A 1336   3.424   5.073   5.679 -3.1218 -0.5634 -3.3136
   11SAPS   C13 1337   3.460   5.041   5.469  0.3922 -0.1235 -0.2623
   11SAPS  O13A 1338   3.542   5.094   5.392 -0.3010  0.0968  0.0698
   11SAPS  O13B 1339   3.350   4.994   5.427 -0.0325  0.3581 -0.1014
   11SAPS   C11 1340   3.486   4.867   5.654  0.1874 -0.1659 -0.4017
   11SAPS  H11A 1341   3.566   4.813   5.599  0.9220  2.0633 -1.5962
   11SAPS  H11B 1342   3.386   4.829   5.624 -1.3036  1.8028  1.8440
   11SAPS     P 1343   3.535   4.705   5.855  0.3177 -0.4345  0.3255
   11SAPS   O13 1344   3.419   4.623   5.828 -0.1242 -0.7047 -0.1925
   11SAPS   O14 1345   3.664   4.668   5.792 -0.2216 -0.0444 -0.0963
   11SAPS   O12 1346   3.506   4.850   5.794  0.2566  0.1929  0.2582
   11SAPS   O11 1347   3.546   4.720   6.015  0.2566  0.0180  0.7967
   11SAPS    C1 1348   3.659   4.785   6.076  0.5017  0.4462 -0.3760
   11SAPS    HA 1349   3.744   4.730   6.030 -1.9230 -3.6246 -0.2406
   11SAPS    HB 1350   3.660   4.893   6.048  0.3813  0.4872 -0.2255
   11SAPS    C2 1351   3.682   4.758   6.227  0.4202  0.6591  0.3098
   11SAPS    HS 1352   3.701   4.648   6.232 -1.1482  0.4625  3.0144
   11SAPS   O21 1353   3.570   4.809   6.314  0.1581  0.3672  0.4171
   11SAPS   C21 1354   3.498   4.710   6.360 -0.0054  0.0029 -0.8008
   11SAPS   O22 1355   3.515   4.591   6.335 -0.2975  0.5243  0.7841
   11SAPS   C22 1356   3.392   4.756   6.460  0.0788  0.1043 -0.4021
   11SAPS   H2R 1357   3.449   4.830   6.519  0.0201 -0.5615  0.5020
   11SAPS   H2S 1358   3.307   4.807   6.410  0.9364  1.9271 -0.0324
   11SAPS    C3 1359   3.805   4.839   6.272  0.7301 -0.0891  0.5180
   11SAPS    HX 1360   3.780   4.946   6.259 -0.1574 -0.2947  0.5464
   11SAPS    HY 1361   3.897   4.816   6.213  1.0646 -0.3218  1.1151
   11SAPS   O31 1362   3.835   4.810   6.408  0.5049 -0.2795  0.4011
   11SAPS   C31 1363   3.934   4.724   6.435  0.3947  0.2846  1.1319
   11SAPS   O32 1364   3.988   4.658   6.345 -0.3302  0.1972  0.0254
   11SAPS   C32 1365   3.940   4.711   6.588 -0.2762  0.5265 -0.5206
   11SAPS   H2X 1366   3.854   4.648   6.619 -0.6577  1.0058 -0.5873
   11SAPS   H2Y 1367   3.925   4.811   6.635 -0.6397 -0.6421  1.9674
   11SAPS   C23 1368   3.352   4.631   6.546 -0.1406 -0.7838  0.3837
   11SAPS   H3R 1369   3.445   4.587   6.587  0.0840 -0.0098  0.7233
   11SAPS   H3S 1370   3.301   4.559   6.479  1.4852 -2.1489  0.5952
   11SAPS   C24 1371   3.265   4.680   6.658  0.0367  0.8869  0.6426
   11SAPS   H4R 1372   3.173   4.724   6.616  0.6623  0.5620 -1.0950
   11SAPS   H4S 1373   3.320   4.766   6.703 -0.1074  1.5032 -0.3409
   11SAPS   C25 1374   3.231   4.577   6.760  0.1911  0.1412 -0.5013
   11SAPS   H5R 1375   3.167   4.495   6.725 -0.3889 -0.2094  1.3341
   11SAPS   C26 1376   3.281   4.577   6.881 -0.3697  0.1140 -0.2339
   11SAPS   H6R 1377   3.241   4.499   6.947  1.2479  1.1323  2.0412
   11SAPS   C27 1378   3.379   4.659   6.959 -0.3479  0.1466  0.0737
   11SAPS   H7R 1379   3.323   4.690   7.050  0.6219 -0.6735  0.9611
   11SAPS   H7S 1380   3.414   4.744   6.897 -1.9824 -0.5119 -1.7963
   11SAPS   C28 1381   3.494   4.573   7.009 -0.5188 -0.1539 -0.0829
   11SAPS   H8R 1382   3.524   4.502   6.930  2.6414  2.2718 -1.2027
   11SAPS   C29 1383   3.550   4.580   7.132 -0.4911  0.3820  0.8188
   11SAPS   H9R 1384   3.634   4.516   7.161 -0.0147  0.2289 -0.8914
   11SAPS  C210 1385   3.522   4.683   7.245 -0.5542  0.2375 -0.6261
   11SAPS  H10R 1386   3.459   4.627   7.318  0.4972 -1.1704 -0.7971
   11SAPS  H10S 1387   3.470   4.771   7.202 -2.1666 -0.4848 -0.1961
   11SAPS  C211 1388   3.657   4.714   7.307  0.3187  0.3972 -0.1013
   11SAPS  H11R 1389   3.718   4.773   7.238  1.1202  0.8152  0.9548
   11SAPS  C212 1390   3.707   4.687   7.431  0.0562 -0.3360 -0.3928
   11SAPS  H12R 1391   3.795   4.748   7.457 -0.4863  0.1142  0.4021
   11SAPS  C213 1392   3.635   4.615   7.545 -0.0528 -0.0487 -0.5312
   11SAPS  H13R 1393   3.704   4.536   7.583  0.6146 -0.1026 -1.8330
   11SAPS  H13S 1394   3.538   4.566   7.523 -1.5857  2.4279  0.5143
   11SAPS  C214 1395   3.599   4.722   7.647 -0.7487  0.2274 -0.3133
   11SAPS  H14R 1396   3.516   4.786   7.614  1.6243  3.4799 -0.2404
   11SAPS  C215 1397   3.637   4.740   7.773 -0.0784  0.0053  0.2148
   11SAPS  H15R 1398   3.592   4.826   7.823 -0.1807  0.8358 -1.2730
   11SAPS  C216 1399   3.729   4.660   7.857  0.0303 -0.3584 -0.3064
   11SAPS  H16R 1400   3.813   4.721   7.897  1.7591 -2.6718 -0.3165
   11SAPS  H16S 1401   3.785   4.592   7.789  3.1756  0.3396  1.4887
   11SAPS  C217 1402   3.664   4.577   7.968 -0.3411  0.7719  0.1906
   11SAPS  H17R 1403   3.602   4.497   7.920  0.4475 -0.4645  1.2001
   11SAPS  H17S 1404   3.601   4.636   8.037 -1.2806 -0.6985  0.6178
   11SAPS  C218 1405   3.770   4.502   8.053 -0.1773 -0.5447 -0.7061
   11SAPS  H18R 1406   3.857   4.568   8.072  1.0686 -2.4739  0.4396
   11SAPS  H18S 1407   3.818   4.419   7.996  0.4865 -2.3547  2.3828
   11SAPS  C219 1408   3.697   4.436   8.170  0.5115  0.3723  0.2474
   11SAPS  H19R 1409   3.594   4.415   8.135  1.7121 -2.4284 -1.8814
   11SAPS  H19S 1410   3.691   4.514   8.248 -0.1481 -1.0563  1.6554
   11SAPS  C220 1411   3.768   4.316   8.226 -0.3197 -0.2708  0.0359
   11SAPS  H20R 1412   3.718   4.296   8.323 -0.6690  0.0975 -0.0656
   11SAPS  H20S 1413   3.874   4.339   8.250 -0.5560 -1.6558  2.6609
   11SAPS  H20T 1414   3.780   4.226   8.162 -1.3405  0.4522 -1.1966
   11SAPS   C33 1415   4.067   4.639   6.633 -0.1881 -0.5906 -0.1151
   11SAPS   H3X 1416   4.155   4.673   6.575  0.8039 -2.7145  0.0927
   11SAPS   H3Y 1417   4.053   4.532   6.606 -1.6892 -0.5365  0.4197
   11SAPS   C34 1418   4.093   4.644   6.791  0.4866  0.2010  0.0489
   11SAPS   H4X 1419   4.164   4.563   6.820 -0.6745 -1.2284 -1.0113
   11SAPS   H4Y 1420   3.988   4.629   6.822 -0.0634  1.6300 -1.1267
   11SAPS   C35 1421   4.144   4.783   6.837 -0.1645  0.9633 -0.3729
   11SAPS   H5X 1422   4.096   4.868   6.784  0.6623 -0.1639 -2.9766
   11SAPS   H5Y 1423   4.251   4.800   6.813 -0.1608  1.2341 -0.1654
   11SAPS   C36 1424   4.121   4.812   6.984 -0.1361 -0.1961  0.0585
   11SAPS   H6X 1425   4.013   4.829   7.001 -0.0251  0.2961  0.2711
   11SAPS   H6Y 1426   4.175   4.907   7.006  0.0575 -0.3027  0.0448
   11SAPS   C37 1427   4.164   4.700   7.074 -0.4936 -0.9438 -0.0513
   11SAPS   H7X 1428   4.272   4.682   7.059 -0.7240 -0.9238 -1.8295
   11SAPS   H7Y 1429   4.120   4.604   7.042  0.9769 -1.6089 -0.0833
   11SAPS   C38 1430   4.157   4.730   7.225 -0.3746  0.4732  0.2890
   11SAPS   H8X 1431   4.169   4.631   7.272 -0.2439 -0.4017 -1.5312
   11SAPS   H8Y 1432   4.050   4.751   7.250 -0.1265  0.8728  1.0048
   11SAPS   C39 1433   4.229   4.851   7.279 -0.1284 -0.7050 -0.5189
   11SAPS   H9X 1434   4.187   4.942   7.234  0.5527  0.6154  1.4389
   11SAPS   H9Y 1435   4.338   4.844   7.259  0.2692  0.7894  0.9825
   11SAPS  C310 1436   4.206   4.857   7.433  0.3095  0.0411  0.3893
   11SAPS  H10X 1437   4.272   4.781   7.479  1.0211 -0.2824 -1.1485
   11SAPS  H10Y 1438   4.099   4.836   7.452 -0.2665  2.1997 -0.2487
   11SAPS  C311 1439   4.247   4.992   7.497  0.3139 -0.3445  0.3177
   11SAPS  H11X 1440   4.188   5.069   7.444  0.6694 -0.6884 -0.5856
   11SAPS  H11Y 1441   4.353   5.010   7.470  0.4958 -0.6426  0.8204
   11SAPS  C312 1442   4.232   4.992   7.648  1.1032 -0.5660  0.2253
   11SAPS  H12X 1443   4.263   4.895   7.693 -0.7486 -2.4167 -2.3563
   11SAPS  H12Y 1444   4.122   4.991   7.661  0.9026 -2.8881 -1.3946
   11SAPS  C313 1445   4.285   5.115   7.715 -0.5340 -0.5012 -1.0523
   11SAPS  H13X 1446   4.242   5.199   7.657 -2.6365 -1.2941 -0.6582
   11SAPS  H13Y 1447   4.394   5.118   7.694  0.0949 -0.2771  2.0298
   11SAPS  C314 1448   4.273   5.135   7.867 -0.6204 -0.2174 -0.0104
   11SAPS  H14X 1449   4.336   5.057   7.916  1.6844 -0.8085 -3.7598
   11SAPS  H14Y 1450   4.168   5.124   7.900 -1.4792  0.1454 -2.5489
   11SAPS  C315 1451   4.333   5.275   7.898 -0.5487 -0.0828 -0.7715
   11SAPS  H15X 1452   4.261   5.358   7.879 -0.1570  0.2202 -0.9289
   11SAPS  H15Y 1453   4.422   5.287   7.833  0.8028 -1.1438  0.8396
   11SAPS  C316 1454   4.388   5.286   8.044 -0.2747  0.7313  0.3588
   11SAPS  H16X 1455   4.465   5.212   8.074 -1.6265 -1.5372 -1.6041
   11SAPS  H16Y 1456   4.303   5.261   8.112 -0.4634 -3.0413 -1.1220
   11SAPS  C317 1457   4.436   5.430   8.075  0.1269  0.4012  0.3871
   11SAPS  H17X 1458   4.377   5.508   8.023  0.2974 -0.3906 -1.0110
   11SAPS  H17Y 1459   4.542   5.427   8.040 -0.0133  2.4764 -0.2790
   11SAPS  C318 1460   4.452   5.450   8.224 -0.4925 -0.2625  0.0852
   11SAPS  H18X 1461   4.361   5.439   8.286  0.0174 -1.3151  0.6501
   11SAPS  H18Y 1462   4.502   5.546   8.252  0.7052 -1.0732  0.7745
   11SAPS  H18Z 1463   4.516   5.372   8.269  0.9763 -0.2713 -1.9240
   12SAPS     N 1464   3.896   6.020   5.787 -0.3160  0.4374  0.2641
   12SAPS   HN1 1465   3.826   5.979   5.723 -0.0604  1.0726 -0.4367
   12SAPS   HN2 1466   3.853   6.095   5.844 -1.5230 -0.0679  0.0224
   12SAPS   HN3 1467   3.966   6.067   5.725 -0.0487 -1.3614 -0.8132
   12SAPS   C12 1468   3.956   5.926   5.879  0.0099  0.3102 -0.9069
   12SAPS  H12A 1469   3.886   5.923   5.961  1.6016 -1.9237  0.4227
   12SAPS   C13 1470   3.967   5.783   5.815 -0.1144  0.0291 -0.7781
   12SAPS  O13A 1471   3.931   5.764   5.697  0.1593  0.5074  0.4504
   12SAPS  O13B 1472   4.012   5.686   5.887  0.6712  0.4434  0.6091
   12SAPS   C11 1473   4.091   5.972   5.923  0.1595 -0.6867 -0.2587
   12SAPS  H11A 1474   4.163   5.969   5.839 -1.1674 -3.0663 -1.3707
   12SAPS  H11B 1475   4.139   5.906   6.000 -0.5020 -0.7072  0.1445
   12SAPS     P 1476   4.149   6.158   6.114 -0.1814  0.3371 -0.4497
   12SAPS   O13 1477   4.284   6.108   6.141 -0.1085 -0.0940 -0.0718
   12SAPS   O14 1478   4.123   6.298   6.124  0.5489 -0.2579  0.3015
   12SAPS   O12 1479   4.094   6.107   5.976 -0.4593  0.0885 -0.5263
   12SAPS   O11 1480   4.054   6.073   6.213 -0.3069  0.0539  0.2523
   12SAPS    C1 1481   3.918   6.113   6.227  0.8760  0.3130  0.4409
   12SAPS    HA 1482   3.876   6.176   6.146  4.0776  1.8789 -0.0722
   12SAPS    HB 1483   3.850   6.025   6.236  0.5382  0.7097  2.0938
   12SAPS    C2 1484   3.906   6.200   6.353  0.3196 -0.5128  0.2425
   12SAPS    HS 1485   3.963   6.289   6.320  3.3904 -1.9886  1.3339
   12SAPS   O21 1486   3.952   6.128   6.472  0.1954 -0.1730  0.6649
   12SAPS   C21 1487   4.028   6.199   6.551 -0.0509 -0.0899  0.1735
   12SAPS   O22 1488   4.056   6.312   6.533 -0.8171  0.9480  0.3353
   12SAPS   C22 1489   4.085   6.107   6.662 -0.3542  0.4034  0.1282
   12SAPS   H2R 1490   4.061   6.001   6.639 -0.2375  0.3331  0.3207
   12SAPS   H2S 1491   4.196   6.116   6.656 -0.2362 -1.4295 -0.6047
   12SAPS    C3 1492   3.762   6.244   6.378  0.4485 -0.7535 -0.4393
   12SAPS    HX 1493   3.705   6.149   6.374 -0.3017 -0.2196 -4.1850
   12SAPS    HY 1494   3.724   6.303   6.292  0.5893  0.5583  0.3769
   12SAPS   O31 1495   3.750   6.309   6.510  0.5465 -0.4317  0.3374
   12SAPS   C31 1496   3.748   6.442   6.503  0.6221 -0.8912  0.2343
   12SAPS   O32 1497   3.750   6.505   6.400 -0.3486  0.7487  0.0652
   12SAPS   C32 1498   3.766   6.504   6.646 -0.7617  0.2366 -0.6032
   12SAPS   H2X 1499   3.674   6.560   6.674 -0.4607  1.3978 -1.8948
   12SAPS   H2Y 1500   3.860   6.564   6.647 -0.7686  0.3915 -4.0977
   12SAPS   C23 1501   4.031   6.140   6.801 -0.0250 -0.1873 -0.5597
   12SAPS   H3R 1502   3.920   6.129   6.800 -0.0323 -0.2498 -2.7947
   12SAPS   H3S 1503   4.053   6.244   6.832 -2.0157  0.2639 -0.5970
   12SAPS   C24 1504   4.098   6.054   6.905 -0.3103  0.1926  0.7705
   12SAPS   H4R 1505   4.207   6.065   6.921 -0.1698  2.3665 -1.4212
   12SAPS   H4S 1506   4.085   5.947   6.878  2.7320 -0.4252  1.5413
   12SAPS   C25 1507   4.048   6.082   7.044 -0.2353 -0.4573  0.4096
   12SAPS   H5R 1508   4.072   6.182   7.083  0.1943 -0.3386 -0.1616
   12SAPS   C26 1509   3.986   5.997   7.129  0.2314  0.4077 -0.0945
   12SAPS   H6R 1510   3.965   6.035   7.231  0.7593 -0.0283  0.1793
   12SAPS   C27 1511   3.946   5.854   7.105  0.5118 -0.5412 -0.7885
   12SAPS   H7R 1512   4.018   5.791   7.161  2.3815 -0.4133 -2.9416
   12SAPS   H7S 1513   3.955   5.824   6.998  1.0190 -0.8814 -0.6544
   12SAPS   C28 1514   3.804   5.821   7.146  0.8405  0.1174 -0.4978
   12SAPS   H8R 1515   3.726   5.867   7.084 -1.6112  1.0084  3.0743
   12SAPS   C29 1516   3.768   5.747   7.250 -0.5145 -0.4884 -0.1606
   12SAPS   H9R 1517   3.659   5.734   7.254 -0.5427  0.1282  1.6002
   12SAPS  C210 1518   3.847   5.661   7.346 -0.5168  0.1015  0.0408
   12SAPS  H10R 1519   3.780   5.620   7.424  2.9079  1.7721  4.0302
   12SAPS  H10S 1520   3.911   5.728   7.407 -2.1427  1.1983  0.5790
   12SAPS  C211 1521   3.918   5.539   7.281 -0.0888 -0.9909 -0.3588
   12SAPS  H11R 1522   3.868   5.482   7.201  1.5110  0.9775 -2.8528
   12SAPS  C212 1523   4.038   5.477   7.330  0.1144 -0.1579  0.0571
   12SAPS  H12R 1524   4.084   5.388   7.285  1.4815 -0.6719  2.4368
   12SAPS  C213 1525   4.108   5.525   7.462  0.3647 -0.8853 -0.5725
   12SAPS  H13R 1526   4.143   5.628   7.442 -1.3282 -0.1941 -0.0375
   12SAPS  H13S 1527   4.205   5.470   7.471  0.7319 -0.5479 -2.3085
   12SAPS  C214 1528   4.041   5.493   7.594  0.1154 -0.2917 -0.6248
   12SAPS  H14R 1529   4.009   5.390   7.612 -0.7627  0.4561  2.3910
   12SAPS  C215 1530   4.019   5.579   7.692 -0.4740 -0.6958  0.3790
   12SAPS  H15R 1531   3.976   5.548   7.788  0.3164 -1.6378  0.4408
   12SAPS  C216 1532   4.051   5.722   7.683 -0.6198 -0.6257  0.1857
   12SAPS  H16R 1533   3.989   5.780   7.754 -2.9832 -1.6343 -1.0075
   12SAPS  H16S 1534   4.022   5.755   7.581 -1.5839  2.8657  1.5190
   12SAPS  C217 1535   4.198   5.747   7.702 -0.2982  0.0784 -0.1073
   12SAPS  H17R 1536   4.204   5.850   7.660  1.7669 -0.3315 -0.9006
   12SAPS  H17S 1537   4.277   5.686   7.653  1.5432 -0.0654  2.9443
   12SAPS  C218 1538   4.234   5.760   7.858  0.1314  0.2977  0.4921
   12SAPS  H18R 1539   4.280   5.661   7.879  0.6652  0.7363  1.4319
   12SAPS  H18S 1540   4.141   5.776   7.917  0.5470  0.4572  1.1086
   12SAPS  C219 1541   4.324   5.873   7.893  0.2370  0.0283  0.7598
   12SAPS  H19R 1542   4.342   5.875   8.003 -0.9172 -1.5396  0.9896
   12SAPS  H19S 1543   4.277   5.972   7.874 -1.8682 -0.7514  1.7480
   12SAPS  C220 1544   4.459   5.845   7.814 -0.4412 -0.1016 -0.1186
   12SAPS  H20R 1545   4.539   5.918   7.839 -1.4638  0.8260  0.4800
   12SAPS  H20S 1546   4.453   5.849   7.703 -3.2146 -0.3505  0.0003
   12SAPS  H20T 1547   4.493   5.744   7.845 -1.0770 -0.0740  0.6990
   12SAPS   C33 1548   3.784   6.396   6.757 -0.1372 -1.0809 -0.4137
   12SAPS   H3X 1549   3.885   6.350   6.746  0.0315 -0.0375 -3.8284
   12SAPS   H3Y 1550   3.709   6.316   6.740 -0.7721  0.1287 -3.6352
   12SAPS   C34 1551   3.769   6.451   6.905  0.2254 -0.0554 -0.4755
   12SAPS   H4X 1552   3.699   6.537   6.916  1.5118  0.8606  0.7758
   12SAPS   H4Y 1553   3.867   6.490   6.941  1.1019 -0.8979 -1.8967
   12SAPS   C35 1554   3.721   6.340   6.999 -0.3674  0.0982 -0.0761
   12SAPS   H5X 1555   3.748   6.242   6.956 -1.9874 -0.3388 -0.1565
   12SAPS   H5Y 1556   3.610   6.338   7.005 -0.3111  1.2669  1.7815
   12SAPS   C36 1557   3.757   6.360   7.146 -0.6044  0.0226 -0.1975
   12SAPS   H6X 1558   3.724   6.461   7.177 -2.0564 -0.6751  0.5637
   12SAPS   H6Y 1559   3.868   6.370   7.154 -0.7152  0.6209  0.5679
   12SAPS   C37 1560   3.702   6.245   7.234  0.4737 -1.2076 -0.0268
   12SAPS   H7X 1561   3.754   6.147   7.224 -0.0532 -1.4215 -0.6791
   12SAPS   H7Y 1562   3.597   6.222   7.207  0.4543 -1.1110 -0.0319
   12SAPS   C38 1563   3.702   6.275   7.382  0.1051 -0.5123 -0.6339
   12SAPS   H8X 1564   3.649   6.371   7.405  0.7326 -0.0219 -1.1979
   12SAPS   H8Y 1565   3.799   6.287   7.434  0.8160  0.4495 -2.1596
   12SAPS   C39 1566   3.624   6.166   7.468  0.1920  0.1550 -0.1021
   12SAPS   H9X 1567   3.527   6.129   7.428  0.0941 -2.0180  2.0333
   12SAPS   H9Y 1568   3.603   6.222   7.562 -0.4673 -2.0516  1.0994
   12SAPS  C310 1569   3.709   6.042   7.496 -0.7104 -1.1174  0.3093
   12SAPS  H10X 1570   3.806   6.080   7.534 -0.9686  0.4146 -0.5170
   12SAPS  H10Y 1571   3.730   5.994   7.398 -0.7413  0.4187 -0.4577
   12SAPS  C311 1572   3.651   5.938   7.594 -0.4372  0.5877  0.1020
   12SAPS  H11X 1573   3.676   5.834   7.565  0.5074  1.0000 -0.5849
   12SAPS  H11Y 1574   3.540   5.937   7.590 -0.4836  3.4022 -0.1540
   12SAPS  C312 1575   3.703   5.960   7.740  0.1239 -0.3469 -0.0750
   12SAPS  H12X 1576   3.814   5.955   7.738  0.2408  1.4810  0.2648
   12SAPS  H12Y 1577   3.668   5.868   7.791  1.2262 -1.6648 -1.6342
   12SAPS  C313 1578   3.673   6.094   7.810 -0.2382 -0.3601  0.7560
   12SAPS  H13X 1579   3.576   6.132   7.771 -1.2946 -1.0602  2.6528
   12SAPS  H13Y 1580   3.750   6.168   7.781 -0.4986 -0.8321 -1.1985
   12SAPS  C314 1581   3.655   6.080   7.962  0.4717 -0.3222  0.5128
   12SAPS  H14X 1582   3.728   6.008   8.003 -0.2379 -1.5077 -0.2760
   12SAPS  H14Y 1583   3.558   6.027   7.970 -1.2343  1.8516 -4.1540
   12SAPS  C315 1584   3.648   6.217   8.036  0.8408  0.4535  0.3070
   12SAPS  H15X 1585   3.540   6.243   8.043  0.4129 -1.5622  1.6794
   12SAPS  H15Y 1586   3.707   6.283   7.969  1.3986 -0.7263 -0.3798
   12SAPS  C316 1587   3.718   6.211   8.174  0.5910  0.2967 -0.5001
   12SAPS  H16X 1588   3.826   6.187   8.160  0.2451 -0.9508 -1.0916
   12SAPS  H16Y 1589   3.679   6.125   8.232  0.7329  0.5992  0.0514
   12SAPS  C317 1590   3.709   6.332   8.262 -0.6469 -0.4253  0.6006
   12SAPS  H17X 1591   3.602   6.361   8.269 -0.9706 -1.9447  2.1955
   12SAPS  H17Y 1592   3.762   6.416   8.212 -0.5454  0.1678  1.6906
   12SAPS  C318 1593   3.775   6.310   8.402  0.3294 -0.4162 -0.4101
   12SAPS  H18X 1594   3.869   6.251   8.395 -0.3733 -1.4519 -1.5002
   12SAPS  H18Y 1595   3.707   6.243   8.459  1.8008 -3.2519 -1.8693
   12SAPS  H18Z 1596   3.788   6.397   8.469 -0.9366  0.0933 -0.8162
   13SAPS     N 1597   4.069   3.258   5.704  0.3067 -0.7055  0.0504
   13SAPS   HN1 1598   4.142   3.187   5.726 -0.5702 -1.2480  1.2911
   13SAPS   HN2 1599   4.074   3.281   5.603  0.8218  0.9563  0.4333
   13SAPS   HN3 1600   4.101   3.340   5.760  1.0480  0.1987 -1.6417
   13SAPS   C12 1601   3.928   3.225   5.741 -0.4925 -1.0355  0.8677
   13SAPS  H12A 1602   3.864   3.313   5.740  0.6981 -0.1512  0.6752
   13SAPS   C13 1603   3.865   3.125   5.638 -0.4165 -0.0963 -0.4035
   13SAPS  O13A 1604   3.928   3.092   5.534 -0.5872 -0.1548  0.0841
   13SAPS  O13B 1605   3.737   3.120   5.639 -0.1907 -0.0856 -0.2575
   13SAPS   C11 1606   3.919   3.160   5.884  0.3445  0.2081 -0.2541
   13SAPS  H11A 1607   3.978   3.066   5.891 -0.7144 -0.4451  0.0148
   13SAPS  H11B 1608   3.812   3.129   5.889  0.3390 -0.0367 -1.6484
   13SAPS     P 1609   4.058   3.236   6.094 -0.0783  0.0241 -0.4131
   13SAPS   O13 1610   4.167   3.148   6.044  0.0796 -0.6410  0.6159
   13SAPS   O14 1611   4.101   3.375   6.133  0.2393 -0.4613  0.1804
   13SAPS   O12 1612   3.949   3.258   5.989  0.2338  0.1654  1.0446
   13SAPS   O11 1613   3.992   3.167   6.217  0.3208  0.3062  0.0663
   13SAPS    C1 1614   3.937   3.030   6.205  0.1159  0.0207 -0.3029
   13SAPS    HA 1615   3.974   2.967   6.121  2.4297  0.3693  0.4298
   13SAPS    HB 1616   3.958   2.970   6.296  1.1006  1.2690  0.3080
   13SAPS    C2 1617   3.778   3.027   6.208  0.8643  0.2116 -0.3261
   13SAPS    HS 1618   3.753   3.057   6.104  1.1029 -0.1226 -0.4811
   13SAPS   O21 1619   3.724   3.109   6.307  0.1604 -0.1432 -0.4049
   13SAPS   C21 1620   3.599   3.152   6.279 -0.1802 -0.9421  0.0363
   13SAPS   O22 1621   3.539   3.139   6.176  0.2093  0.3685 -0.8203
   13SAPS   C22 1622   3.544   3.213   6.405 -0.2791  0.1792  0.1295
   13SAPS   H2R 1623   3.571   3.151   6.494  0.6074 -0.7003 -0.7329
   13SAPS   H2S 1624   3.606   3.304   6.417 -0.7151  1.0587 -3.5984
   13SAPS    C3 1625   3.725   2.879   6.231  0.2818 -0.3481 -0.7805
   13SAPS    HX 1626   3.764   2.816   6.148  0.0098  0.0315 -1.1983
   13SAPS    HY 1627   3.614   2.873   6.223  0.2113  0.6740 -0.6072
   13SAPS   O31 1628   3.768   2.822   6.356  0.2056  0.4180 -0.1545
   13SAPS   C31 1629   3.692   2.833   6.464 -0.3185  0.2909 -0.3305
   13SAPS   O32 1630   3.582   2.880   6.474  0.1188  0.4743  0.3159
   13SAPS   C32 1631   3.777   2.793   6.583  0.5296 -0.3957 -0.0803
   13SAPS   H2X 1632   3.883   2.824   6.569  0.2803  1.6751  2.1922
   13SAPS   H2Y 1633   3.775   2.682   6.588 -0.6089 -0.5290 -2.6232
   13SAPS   C23 1634   3.390   3.231   6.394 -0.5248 -0.3948 -1.1350
   13SAPS   H3R 1635   3.342   3.133   6.372 -1.3647 -0.3490  0.4334
   13SAPS   H3S 1636   3.374   3.302   6.310  1.1752  1.5116  0.0911
   13SAPS   C24 1637   3.329   3.289   6.526 -0.2552  0.0179 -0.6893
   13SAPS   H4R 1638   3.351   3.222   6.612 -2.1218  0.5173  0.2197
   13SAPS   H4S 1639   3.219   3.287   6.510 -0.3725 -0.2211  0.1198
   13SAPS   C25 1640   3.369   3.433   6.569 -0.1346  0.4477 -0.0390
   13SAPS   H5R 1641   3.342   3.510   6.495 -0.7683 -0.7540 -1.0718
   13SAPS   C26 1642   3.405   3.459   6.700 -0.1755  0.5774  0.5524
   13SAPS   H6R 1643   3.425   3.564   6.723 -1.0310  0.9823 -0.5215
   13SAPS   C27 1644   3.422   3.364   6.820 -0.2797  0.7515  0.2754
   13SAPS   H7R 1645   3.404   3.259   6.788  1.1759  0.6997 -0.4057
   13SAPS   H7S 1646   3.337   3.382   6.889 -1.3536 -0.3540 -0.7496
   13SAPS   C28 1647   3.560   3.369   6.892 -0.6894  0.3536 -0.0162
   13SAPS   H8R 1648   3.648   3.363   6.826 -0.4485 -0.7771  0.4013
   13SAPS   C29 1649   3.590   3.347   7.027 -0.2112  0.0140  0.1907
   13SAPS   H9R 1650   3.695   3.342   7.058  0.2438  4.2060 -0.3150
   13SAPS  C210 1651   3.485   3.311   7.136  0.3225 -0.8292  0.6221
   13SAPS  H10R 1652   3.403   3.257   7.084  1.2627 -0.5931 -1.1287
   13SAPS  H10S 1653   3.438   3.408   7.163  1.1215 -1.1102  3.1590
   13SAPS  C211 1654   3.541   3.236   7.251 -0.5299  0.0302 -0.0328
   13SAPS  H11R 1655   3.584   3.139   7.218  1.1680 -0.1073  2.4108
   13SAPS  C212 1656   3.535   3.268   7.382  0.4708  0.1628  0.5739
   13SAPS  H12R 1657   3.590   3.214   7.461 -0.3128 -0.9209  0.3929
   13SAPS  C213 1658   3.471   3.401   7.427  0.4579 -0.2485  0.4266
   13SAPS  H13R 1659   3.360   3.396   7.417  0.5382  2.5638 -3.2650
   13SAPS  H13S 1660   3.492   3.481   7.352 -0.6557 -0.8181 -0.5119
   13SAPS  C214 1661   3.509   3.452   7.570  0.0539  0.4817  1.0774
   13SAPS  H14R 1662   3.588   3.528   7.559 -1.4791  1.9843  0.4019
   13SAPS  C215 1663   3.471   3.409   7.688  0.6825  0.0183 -0.0168
   13SAPS  H15R 1664   3.500   3.462   7.780 -1.0425 -0.5997  0.9022
   13SAPS  C216 1665   3.364   3.299   7.718  0.2985  0.5401 -0.1136
   13SAPS  H16R 1666   3.402   3.195   7.720  1.9336  1.0498 -2.1755
   13SAPS  H16S 1667   3.277   3.300   7.649  0.4887 -0.5893 -0.3788
   13SAPS  C217 1668   3.302   3.318   7.856 -0.0465  0.4735  0.2742
   13SAPS  H17R 1669   3.212   3.254   7.867 -2.1333  2.8856 -2.0622
   13SAPS  H17S 1670   3.262   3.421   7.867  0.0613  0.6174 -0.6022
   13SAPS  C218 1671   3.402   3.286   7.972 -0.5887 -0.0681  0.6493
   13SAPS  H18R 1672   3.474   3.369   7.958 -0.3988  0.0706  2.3640
   13SAPS  H18S 1673   3.452   3.189   7.952  0.5577  0.2835  1.7618
   13SAPS  C219 1674   3.327   3.281   8.110 -0.3041  0.8114  0.2845
   13SAPS  H19R 1675   3.269   3.186   8.107  1.2806 -0.2397  2.1695
   13SAPS  H19S 1676   3.253   3.364   8.107 -0.6098  0.5083 -0.8241
   13SAPS  C220 1677   3.424   3.295   8.222  0.9520  0.0525  0.0702
   13SAPS  H20R 1678   3.434   3.403   8.247 -1.9195 -0.2514  2.8490
   13SAPS  H20S 1679   3.524   3.248   8.214  1.7850  1.7139  0.3899
   13SAPS  H20T 1680   3.365   3.263   8.310 -1.6520 -0.4983 -1.8084
   13SAPS   C33 1681   3.741   2.874   6.709  0.8708 -0.5592  0.0401
   13SAPS   H3X 1682   3.630   2.875   6.722  1.0207 -1.4169  1.4341
   13SAPS   H3Y 1683   3.767   2.982   6.702 -0.7711 -0.1300  0.2885
   13SAPS   C34 1684   3.806   2.805   6.832 -0.2547 -0.5159 -0.3723
   13SAPS   H4X 1685   3.783   2.697   6.825  3.0889 -1.1856 -1.6318
   13SAPS   H4Y 1686   3.762   2.843   6.927 -1.3219 -0.8331 -0.7278
   13SAPS   C35 1687   3.962   2.818   6.847 -0.2772 -0.3256 -0.3279
   13SAPS   H5X 1688   3.990   2.921   6.876  0.3268 -1.1761  2.2088
   13SAPS   H5Y 1689   4.017   2.790   6.754 -1.1115  0.1012 -0.9604
   13SAPS   C36 1690   4.022   2.726   6.952  0.7186  0.4395 -0.0561
   13SAPS   H6X 1691   4.132   2.741   6.963  0.5035  0.6159  1.9319
   13SAPS   H6Y 1692   4.009   2.618   6.931 -1.5115  0.4422  1.1676
   13SAPS   C37 1693   3.965   2.757   7.084  0.5272  0.1751  0.3301
   13SAPS   H7X 1694   3.863   2.712   7.078  0.2117  0.9741 -0.3769
   13SAPS   H7Y 1695   3.963   2.865   7.109 -1.5706  0.4398 -0.8991
   13SAPS   C38 1696   4.029   2.670   7.194  0.9031  0.4556  0.2196
   13SAPS   H8X 1697   4.136   2.702   7.193  0.8029  0.7552 -0.8945
   13SAPS   H8Y 1698   4.033   2.560   7.178  1.8831  0.6681 -1.1180
   13SAPS   C39 1699   3.952   2.702   7.325 -0.0287  0.0191 -0.0284
   13SAPS   H9X 1700   3.848   2.665   7.311  0.2900 -0.8076 -0.2513
   13SAPS   H9Y 1701   3.945   2.811   7.342 -0.0606 -0.4313  3.2042
   13SAPS  C310 1702   4.006   2.626   7.448  0.4960  0.2042  0.3112
   13SAPS  H10X 1703   4.112   2.655   7.459 -0.0501  1.2161  3.7733
   13SAPS  H10Y 1704   4.007   2.516   7.438 -0.9731  0.1051  0.9853
   13SAPS  C311 1705   3.933   2.664   7.583 -0.1266 -0.9590  0.6760
   13SAPS  H11X 1706   3.832   2.620   7.579  0.1536 -1.4565 -1.2122
   13SAPS  H11Y 1707   3.921   2.774   7.570 -0.1161 -1.2921 -2.5877
   13SAPS  C312 1708   4.010   2.615   7.704  0.1856  0.4441  0.3269
   13SAPS  H12X 1709   4.120   2.618   7.694  0.0094 -0.0503 -2.1184
   13SAPS  H12Y 1710   3.995   2.505   7.703  0.7768  0.3541  1.4537
   13SAPS  C313 1711   3.965   2.684   7.836 -0.1358  0.6129  0.2963
   13SAPS  H13X 1712   3.854   2.682   7.845 -0.1250 -1.1734  0.2768
   13SAPS  H13Y 1713   4.000   2.789   7.825  1.1229  0.1824  0.1718
   13SAPS  C314 1714   4.026   2.613   7.959 -0.6445  0.8849  0.1678
   13SAPS  H14X 1715   4.137   2.613   7.951 -0.6263  1.3328  0.4241
   13SAPS  H14Y 1716   4.005   2.504   7.967  0.9931  0.5122 -0.5239
   13SAPS  C315 1717   3.994   2.668   8.102  0.0432 -0.1096 -0.3525
   13SAPS  H15X 1718   4.023   2.774   8.090 -1.5143  0.5278  1.2525
   13SAPS  H15Y 1719   4.048   2.620   8.187  0.2027 -1.6241 -1.2867
   13SAPS  C316 1720   3.846   2.667   8.142  0.1712  0.5800  0.7353
   13SAPS  H16X 1721   3.786   2.680   8.049  1.1732  1.8254  0.2578
   13SAPS  H16Y 1722   3.823   2.752   8.209  0.4610  1.5258 -0.3370
   13SAPS  C317 1723   3.793   2.543   8.213 -0.0066 -0.0939 -0.0878
   13SAPS  H17X 1724   3.873   2.517   8.286 -0.5602 -0.8552  0.2517
   13SAPS  H17Y 1725   3.785   2.462   8.138  1.1503 -0.5365  0.2634
   13SAPS  C318 1726   3.657   2.565   8.280  0.6767 -0.4631 -0.3509
   13SAPS  H18X 1727   3.645   2.671   8.312  1.3574 -0.6325  0.4956
   13SAPS  H18Y 1728   3.640   2.493   8.363  1.6890 -0.7183 -0.3558
   13SAPS  H18Z 1729   3.584   2.546   8.199  1.3482 -1.7897 -0.6491
   14SAPS     N 1730   3.866   5.486   5.742 -0.2390 -0.0941 -0.1129
   14SAPS   HN1 1731   3.909   5.576   5.771  2.2026 -0.9366 -1.0363
   14SAPS   HN2 1732   3.869   5.424   5.826 -1.0232  0.3860  0.2774
   14SAPS   HN3 1733   3.920   5.452   5.660 -1.2969 -0.5485 -0.6318
   14SAPS   C12 1734   3.721   5.527   5.699 -0.1972 -1.2671 -0.1374
   14SAPS  H12A 1735   3.739   5.617   5.642  2.9690 -2.3582 -0.9508
   14SAPS   C13 1736   3.649   5.440   5.602  0.2832 -0.0589  0.1829
   14SAPS  O13A 1737   3.696   5.327   5.578 -0.0143  0.3291 -0.2566
   14SAPS  O13B 1738   3.533   5.470   5.563 -0.5762  0.2153 -0.1479
   14SAPS   C11 1739   3.629   5.540   5.825  1.2268  0.3433 -0.4292
   14SAPS  H11A 1740   3.640   5.451   5.891 -0.8460 -0.7386 -1.5036
   14SAPS  H11B 1741   3.524   5.565   5.798  1.1990  0.4695 -0.2068
   14SAPS     P 1742   3.603   5.741   5.990 -0.1261 -0.0812 -0.6646
   14SAPS   O13 1743   3.690   5.825   6.074 -0.1568  0.0845 -0.1411
   14SAPS   O14 1744   3.505   5.815   5.909  0.5359  0.6045 -0.1076
   14SAPS   O12 1745   3.687   5.653   5.892  0.2532  0.5182 -0.2161
   14SAPS   O11 1746   3.519   5.639   6.081 -0.1552  0.3293  0.4326
   14SAPS    C1 1747   3.381   5.642   6.080  0.0265  0.1968  0.0185
   14SAPS    HA 1748   3.336   5.744   6.079  0.5462  0.4179 -0.7756
   14SAPS    HB 1749   3.334   5.594   5.991 -0.6686  0.6396  0.1352
   14SAPS    C2 1750   3.326   5.560   6.210  0.4304  0.4037  0.9143
   14SAPS    HS 1751   3.215   5.569   6.209  0.2865 -1.3640 -0.1691
   14SAPS   O21 1752   3.397   5.604   6.334  0.0409  0.1011  0.0687
   14SAPS   C21 1753   3.349   5.708   6.390  0.3850 -0.7845  0.4740
   14SAPS   O22 1754   3.245   5.760   6.366  0.6376 -0.7423  0.0753
   14SAPS   C22 1755   3.438   5.751   6.503 -0.6839 -0.2030 -0.1103
   14SAPS   H2R 1756   3.435   5.678   6.587  0.5078 -3.5940 -2.9504
   14SAPS   H2S 1757   3.538   5.752   6.457 -1.0424 -0.0729 -0.8922
   14SAPS    C3 1758   3.373   5.412   6.176 -0.3609  0.1515 -0.5594
   14SAPS    HX 1759   3.483   5.402   6.162 -0.0296  2.1585  0.3956
   14SAPS    HY 1760   3.333   5.373   6.081  2.1361 -2.0477 -0.7659
   14SAPS   O31 1761   3.340   5.310   6.276  0.3203 -0.7848 -0.1165
   14SAPS   C31 1762   3.214   5.290   6.304 -0.1073 -0.1244 -0.0273
   14SAPS   O32 1763   3.116   5.347   6.253 -0.3335  0.4581  0.1211
   14SAPS   C32 1764   3.205   5.174   6.407 -0.1715 -0.7822  0.8609
   14SAPS   H2X 1765   3.245   5.085   6.354 -1.5719 -0.3657 -0.9390
   14SAPS   H2Y 1766   3.097   5.154   6.423 -1.0831  2.9642 -0.1042
   14SAPS   C23 1767   3.386   5.884   6.564  0.2051 -0.2389  0.3085
   14SAPS   H3R 1768   3.281   5.880   6.602 -0.0692 -0.7349 -0.4819
   14SAPS   H3S 1769   3.397   5.958   6.481  1.9415 -1.5641 -0.6731
   14SAPS   C24 1770   3.477   5.930   6.673  0.3609  0.1326  0.0524
   14SAPS   H4R 1771   3.489   5.858   6.757  2.2195  0.0626 -0.2434
   14SAPS   H4S 1772   3.443   6.027   6.715  0.6343  0.9017 -1.4598
   14SAPS   C25 1773   3.615   5.968   6.631  0.8941  0.1631  0.3716
   14SAPS   H5R 1774   3.615   6.071   6.592 -1.0195 -0.0616 -0.2858
   14SAPS   C26 1775   3.740   5.903   6.644  0.2485  0.1716 -0.8763
   14SAPS   H6R 1776   3.831   5.944   6.598  1.2130 -0.4121  0.4882
   14SAPS   C27 1777   3.767   5.774   6.712  0.2163  0.4850  0.0058
   14SAPS   H7R 1778   3.672   5.731   6.751 -0.2432 -0.4391 -2.0884
   14SAPS   H7S 1779   3.831   5.782   6.803  1.0210  0.1287 -0.5212
   14SAPS   C28 1780   3.844   5.677   6.625 -0.2153 -0.4859 -0.1094
   14SAPS   H8R 1781   3.802   5.663   6.525 -2.0394  2.7779  0.0984
   14SAPS   C29 1782   3.952   5.603   6.651 -0.6415 -0.7538  0.0673
   14SAPS   H9R 1783   4.009   5.544   6.578  0.9547 -1.2079  1.6398
   14SAPS  C210 1784   4.020   5.610   6.784 -0.1672  0.3631  0.2187
   14SAPS  H10R 1785   4.031   5.717   6.815 -1.5256  0.5430  0.0961
   14SAPS  H10S 1786   4.122   5.571   6.762  0.4318  2.2947 -0.5232
   14SAPS  C211 1787   3.960   5.531   6.896 -0.4728 -0.1470 -0.0152
   14SAPS  H11R 1788   3.872   5.575   6.946 -1.2297  0.8207 -2.1226
   14SAPS  C212 1789   3.999   5.406   6.937  0.2124 -0.2772 -0.3398
   14SAPS  H12R 1790   3.961   5.368   7.032  0.3903 -2.7496 -1.2363
   14SAPS  C213 1791   4.112   5.322   6.882 -0.6875 -0.8519 -0.3944
   14SAPS  H13R 1792   4.196   5.392   6.868 -0.5383 -1.0932 -0.7087
   14SAPS  H13S 1793   4.074   5.276   6.788  0.7472 -1.8261 -0.5167
   14SAPS  C214 1794   4.150   5.202   6.969  0.2578  0.0056 -0.1161
   14SAPS  H14R 1795   4.076   5.121   6.975 -0.6110  0.8013  0.2291
   14SAPS  C215 1796   4.268   5.178   7.023 -0.4740  0.4228 -0.6061
   14SAPS  H15R 1797   4.262   5.097   7.097  0.2979 -1.8775 -3.0053
   14SAPS  C216 1798   4.387   5.265   7.015  0.1681  0.0317 -0.1136
   14SAPS  H16R 1799   4.384   5.323   6.920 -2.1952  0.0574 -0.0557
   14SAPS  H16S 1800   4.480   5.205   7.004  0.4819  0.6317 -0.7772
   14SAPS  C217 1801   4.393   5.361   7.139 -0.1145 -0.0561  0.6829
   14SAPS  H17R 1802   4.310   5.435   7.134  0.2051  0.4293  2.2322
   14SAPS  H17S 1803   4.482   5.428   7.130 -2.1653  2.6694 -0.0401
   14SAPS  C218 1804   4.415   5.302   7.285  0.1255 -0.4107 -0.3082
   14SAPS  H18R 1805   4.477   5.210   7.281  0.6411 -0.1582  1.4353
   14SAPS  H18S 1806   4.319   5.270   7.330 -1.1274  0.2225 -2.4572
   14SAPS  C219 1807   4.488   5.405   7.369  0.2731  0.1131 -0.5480
   14SAPS  H19R 1808   4.436   5.503   7.358  1.6032  0.8243 -0.5800
   14SAPS  H19S 1809   4.589   5.413   7.323  0.4587 -1.1774 -0.3605
   14SAPS  C220 1810   4.521   5.362   7.512 -0.7771  0.4858  0.3395
   14SAPS  H20R 1811   4.430   5.374   7.575 -0.9670 -0.6724  0.2923
   14SAPS  H20S 1812   4.603   5.415   7.564 -2.0522 -0.2198  3.1904
   14SAPS  H20T 1813   4.546   5.255   7.498  0.8531  0.8766  0.1829
   14SAPS   C33 1814   3.289   5.195   6.535 -0.3816 -0.8219 -0.1861
   14SAPS   H3X 1815   3.394   5.212   6.501 -0.1962  1.2432  1.3398
   14SAPS   H3Y 1816   3.274   5.099   6.589  1.2786 -0.1642  1.4864
   14SAPS   C34 1817   3.231   5.316   6.623  0.5376 -0.3169 -0.3074
   14SAPS   H4X 1818   3.126   5.281   6.634 -0.0334  1.4317 -0.1020
   14SAPS   H4Y 1819   3.226   5.408   6.562  0.4843 -1.8585 -2.7096
   14SAPS   C35 1820   3.314   5.341   6.752  0.0311  0.1687  0.0992
   14SAPS   H5X 1821   3.350   5.244   6.793 -2.3227 -0.7302  0.1122
   14SAPS   H5Y 1822   3.248   5.383   6.831 -1.2697 -1.4933 -0.0607
   14SAPS   C36 1823   3.432   5.437   6.737  0.7679 -0.1080 -0.3603
   14SAPS   H6X 1824   3.394   5.541   6.721 -0.2898 -0.6899 -1.6993
   14SAPS   H6Y 1825   3.492   5.417   6.646  0.2306 -1.0096 -0.5269
   14SAPS   C37 1826   3.524   5.438   6.857 -0.1669  0.3803 -0.1155
   14SAPS   H7X 1827   3.609   5.507   6.839 -0.7917  1.6534  1.6516
   14SAPS   H7Y 1828   3.576   5.342   6.874  1.2564  1.3332  1.0946
   14SAPS   C38 1829   3.452   5.488   6.984 -0.0556 -0.0770  0.2574
   14SAPS   H8X 1830   3.344   5.464   6.991  0.0458  0.1486  3.4189
   14SAPS   H8Y 1831   3.464   5.598   6.994  1.9730 -0.3904  1.5863
   14SAPS   C39 1832   3.515   5.437   7.109 -0.8014 -0.4456 -0.5025
   14SAPS   H9X 1833   3.609   5.494   7.121 -0.5468 -1.3927  2.2174
   14SAPS   H9Y 1834   3.537   5.330   7.090 -0.0531 -0.2580 -0.6889
   14SAPS  C310 1835   3.442   5.438   7.241 -0.0392  0.2765  0.9655
   14SAPS  H10X 1836   3.352   5.373   7.237  0.0222  0.2330  0.1331
   14SAPS  H10Y 1837   3.399   5.534   7.274 -1.2145 -0.5365  1.8199
   14SAPS  C311 1838   3.528   5.404   7.362  0.5152  0.3986  0.6295
   14SAPS  H11X 1839   3.621   5.461   7.341  0.4751  0.4368  0.5560
   14SAPS  H11Y 1840   3.544   5.295   7.349 -1.4418  0.2028 -0.4394
   14SAPS  C312 1841   3.472   5.449   7.499  0.6223 -0.0137 -0.1727
   14SAPS  H12X 1842   3.395   5.378   7.536  1.5677 -1.2794 -0.6221
   14SAPS  H12Y 1843   3.435   5.552   7.477 -1.3581 -0.5977  0.2775
   14SAPS  C313 1844   3.584   5.458   7.611 -0.0124  0.0920  0.6116
   14SAPS  H13X 1845   3.672   5.514   7.573  0.5374 -1.5143 -0.5435
   14SAPS  H13Y 1846   3.621   5.361   7.650  2.4484  0.4709 -0.7105
   14SAPS  C314 1847   3.520   5.537   7.720 -0.1509  0.3538  0.0397
   14SAPS  H14X 1848   3.432   5.487   7.765 -1.7361  1.1716 -2.0918
   14SAPS  H14Y 1849   3.488   5.634   7.678 -0.5062  0.1850 -0.0789
   14SAPS  C315 1850   3.630   5.574   7.826  0.5447 -0.2142 -0.2862
   14SAPS  H15X 1851   3.695   5.654   7.785  0.2322  0.3734  0.3559
   14SAPS  H15Y 1852   3.690   5.484   7.853 -2.9228 -2.7178 -0.6000
   14SAPS  C316 1853   3.560   5.631   7.943 -0.6234 -0.5612 -0.2161
   14SAPS  H16X 1854   3.478   5.562   7.972  0.0656 -0.8846  0.9942
   14SAPS  H16Y 1855   3.507   5.719   7.900 -0.6587 -1.2877 -1.6811
   14SAPS  C317 1856   3.648   5.685   8.054  0.5335  0.5310  0.0276
   14SAPS  H17X 1857   3.720   5.751   8.001 -1.2841  0.7889 -2.1810
   14SAPS  H17Y 1858   3.687   5.593   8.102 -2.6352 -1.0627 -0.3399
   14SAPS  C318 1859   3.569   5.756   8.161  0.8243 -0.3867  0.2010
   14SAPS  H18X 1860   3.480   5.695   8.186  0.8047 -1.5684 -2.6433
   14SAPS  H18Y 1861   3.550   5.863   8.134 -0.3101 -0.1846  1.7521
   14SAPS  H18Z 1862   3.631   5.770   8.252  3.1427  1.9514 -1.6453
   15SAPS     N 1863   4.145   5.038   5.857  0.5862  0.2214 -0.9163
   15SAPS   HN1 1864   4.205   4.973   5.802 -0.3516 -1.2952 -0.1946
   15SAPS   HN2 1865   4.189   5.132   5.850  1.8308 -0.2202  0.6120
   15SAPS   HN3 1866   4.141   5.001   5.954 -2.4758  1.0773 -0.6806
   15SAPS   C12 1867   4.011   5.029   5.799  0.5057  0.2022 -0.1198
   15SAPS  H12A 1868   3.981   5.131   5.780  0.0320  0.6735  3.0146
   15SAPS   C13 1869   3.997   4.944   5.672  0.3775  0.3539 -0.4737
   15SAPS  O13A 1870   4.089   4.864   5.635 -0.1816  0.4717 -0.3280
   15SAPS  O13B 1871   3.885   4.938   5.615  0.1557 -0.1138 -0.1780
   15SAPS   C11 1872   3.908   4.969   5.900  0.6933 -0.0795 -0.1663
   15SAPS  H11A 1873   3.937   4.873   5.948  2.6161  1.1885  1.2946
   15SAPS  H11B 1874   3.815   4.935   5.851  2.3432 -0.7275 -2.9846
   15SAPS     P 1875   3.793   5.186   6.003 -0.2337 -0.2854  0.2480
   15SAPS   O13 1876   3.877   5.297   5.946  0.0872 -0.0757 -0.1910
   15SAPS   O14 1877   3.672   5.145   5.931  0.3191 -0.7376  0.9715
   15SAPS   O12 1878   3.878   5.055   6.008 -0.0289 -0.3720 -0.4370
   15SAPS   O11 1879   3.741   5.219   6.146 -0.5722 -0.5352  0.1917
   15SAPS    C1 1880   3.806   5.336   6.207  0.0145  0.5524  0.2500
   15SAPS    HA 1881   3.840   5.408   6.130 -0.0937 -1.3629 -1.6451
   15SAPS    HB 1882   3.730   5.390   6.267 -0.2475  0.9456 -0.4361
   15SAPS    C2 1883   3.920   5.309   6.305  0.5845  0.7101  0.4838
   15SAPS    HS 1884   3.988   5.228   6.270 -1.1028  0.4088 -2.1987
   15SAPS   O21 1885   3.861   5.285   6.434  0.3934  0.1183  0.0005
   15SAPS   C21 1886   3.906   5.180   6.497 -0.5008 -0.2485  0.8954
   15SAPS   O22 1887   4.007   5.117   6.466 -0.1057  0.3120 -0.0243
   15SAPS   C22 1888   3.808   5.149   6.613 -0.0557 -0.2581 -0.2572
   15SAPS   H2R 1889   3.864   5.085   6.684  0.6372  0.4981 -0.1112
   15SAPS   H2S 1890   3.786   5.242   6.669 -1.7086 -0.3784 -0.6746
   15SAPS    C3 1891   4.014   5.431   6.320  0.2635  0.1089 -0.4009
   15SAPS    HX 1892   3.944   5.516   6.335  1.5532  0.8792  1.3175
   15SAPS    HY 1893   4.064   5.462   6.225 -1.1725  0.2827 -1.1195
   15SAPS   O31 1894   4.112   5.435   6.428 -0.2597  0.2192 -0.2021
   15SAPS   C31 1895   4.214   5.354   6.421  0.6374  0.6309  0.4614
   15SAPS   O32 1896   4.252   5.295   6.318 -0.2653  0.2008  0.0946
   15SAPS   C32 1897   4.296   5.347   6.553 -0.0067 -0.1172 -0.3650
   15SAPS   H2X 1898   4.249   5.414   6.629 -0.5072 -1.2455  0.3294
   15SAPS   H2Y 1899   4.395   5.393   6.536  0.0130  1.0851  2.6116
   15SAPS   C23 1900   3.678   5.093   6.559 -0.4033 -0.2431  0.0470
   15SAPS   H3R 1901   3.696   5.007   6.492 -2.4783 -0.5733 -0.1244
   15SAPS   H3S 1902   3.630   5.164   6.488 -0.2882 -0.7705 -0.5608
   15SAPS   C24 1903   3.575   5.061   6.669  0.1321 -0.1454  0.9972
   15SAPS   H4R 1904   3.478   5.047   6.615  0.7148 -1.1791  0.2085
   15SAPS   H4S 1905   3.562   5.152   6.732 -2.0776  2.2777 -2.6878
   15SAPS   C25 1906   3.606   4.944   6.755 -0.1033  0.8410 -0.1428
   15SAPS   H5R 1907   3.569   4.846   6.720  2.1682  0.5731 -1.9544
   15SAPS   C26 1908   3.655   4.939   6.880 -0.0937  0.1286 -0.6046
   15SAPS   H6R 1909   3.665   4.844   6.935  1.9856 -0.0802 -1.3191
   15SAPS   C27 1910   3.681   5.053   6.968 -0.1480 -0.5431 -0.1586
   15SAPS   H7R 1911   3.592   5.054   7.035  0.0190 -3.0197  0.1431
   15SAPS   H7S 1912   3.688   5.149   6.912 -2.5895 -0.0291  0.3553
   15SAPS   C28 1913   3.816   5.027   7.033  0.4907 -0.1937 -0.0824
   15SAPS   H8R 1914   3.891   5.013   6.954  0.9684 -0.5890  0.4443
   15SAPS   C29 1915   3.839   5.022   7.166 -0.1986  0.7801  0.2303
   15SAPS   H9R 1916   3.943   5.021   7.201  0.5133  0.3379 -1.8202
   15SAPS  C210 1917   3.747   5.036   7.285 -0.8483  0.7349  0.1357
   15SAPS  H10R 1918   3.768   4.952   7.355 -0.5685  1.1690  0.5708
   15SAPS  H10S 1919   3.638   5.037   7.262 -0.6552 -2.1763 -1.1466
   15SAPS  C211 1920   3.784   5.173   7.338  0.2542 -0.7657 -0.4709
   15SAPS  H11R 1921   3.755   5.259   7.276 -1.9052 -0.5449  0.7758
   15SAPS  C212 1922   3.831   5.209   7.460  0.4405  1.2754 -0.8319
   15SAPS  H12R 1923   3.872   5.308   7.486  0.3266  1.1875 -0.3156
   15SAPS  C213 1924   3.866   5.118   7.579  0.4429 -0.6793  0.3358
   15SAPS  H13R 1925   3.961   5.149   7.628  0.5280 -0.2135 -0.1233
   15SAPS  H13S 1926   3.903   5.024   7.533  0.0249 -0.0614 -1.3034
   15SAPS  C214 1927   3.747   5.090   7.666  0.4211  0.0523  0.1241
   15SAPS  H14R 1928   3.655   5.070   7.609  1.5209 -1.0466 -1.3144
   15SAPS  C215 1929   3.753   5.069   7.802 -0.5938 -0.2772 -0.6163
   15SAPS  H15R 1930   3.666   5.031   7.859  0.3213 -3.7508 -1.4495
   15SAPS  C216 1931   3.870   5.077   7.899  0.5257  0.0677  0.1796
   15SAPS  H16R 1932   3.968   5.085   7.846  0.8540  2.0361  1.0632
   15SAPS  H16S 1933   3.870   4.990   7.968  0.6184  1.3561  1.8390
   15SAPS  C217 1934   3.850   5.206   7.982  0.5392  0.2729  0.5410
   15SAPS  H17R 1935   3.760   5.193   8.046  1.5570 -1.4816  1.6692
   15SAPS  H17S 1936   3.814   5.292   7.923 -0.3455 -1.3479 -1.3341
   15SAPS  C218 1937   3.972   5.262   8.048 -0.1933 -0.0504  0.0032
   15SAPS  H18R 1938   4.050   5.267   7.968  1.4876 -0.8062  1.5524
   15SAPS  H18S 1939   4.011   5.198   8.130  2.4150  1.0739 -0.3010
   15SAPS  C219 1940   3.966   5.404   8.089 -0.2893  0.3849  0.4786
   15SAPS  H19R 1941   3.891   5.420   8.170 -3.4378 -3.3119 -1.5715
   15SAPS  H19S 1942   3.945   5.461   7.996  1.7494 -1.6413 -1.2647
   15SAPS  C220 1943   4.100   5.457   8.150 -0.1262  0.2123 -0.3052
   15SAPS  H20R 1944   4.087   5.555   8.201 -0.5293 -0.5986  1.1956
   15SAPS  H20S 1945   4.167   5.461   8.061 -0.4721 -0.9767 -0.6277
   15SAPS  H20T 1946   4.144   5.379   8.216 -1.3239 -0.4102 -0.2195
   15SAPS   C33 1947   4.311   5.205   6.602  0.2356  0.5594 -0.2605
   15SAPS   H3X 1948   4.218   5.148   6.580  0.2852  0.6947 -0.8481
   15SAPS   H3Y 1949   4.330   5.222   6.710  2.6191 -1.3351 -0.3336
   15SAPS   C34 1950   4.434   5.134   6.547  0.8467  0.2803 -0.1984
   15SAPS   H4X 1951   4.524   5.194   6.571 -0.3534  1.2780  1.9755
   15SAPS   H4Y 1952   4.428   5.126   6.436 -2.0430 -0.2052 -0.0486
   15SAPS   C35 1953   4.442   4.994   6.605  0.4132 -0.9982  0.0085
   15SAPS   H5X 1954   4.501   4.925   6.541  0.5696 -0.1178 -0.8045
   15SAPS   H5Y 1955   4.342   4.946   6.614 -1.0914  2.0330  0.0713
   15SAPS   C36 1956   4.506   4.993   6.749  0.0050  0.1879  0.0604
   15SAPS   H6X 1957   4.431   4.992   6.831  1.9931  1.0919  1.9601
   15SAPS   H6Y 1958   4.563   5.087   6.763  3.3119 -1.8145  0.6138
   15SAPS   C37 1959   4.597   4.868   6.772  0.2188  0.5167  0.4374
   15SAPS   H7X 1960   4.691   4.884   6.716  1.0255  2.6011  2.3272
   15SAPS   H7Y 1961   4.552   4.781   6.719  1.7301 -0.3782  0.5919
   15SAPS   C38 1962   4.620   4.813   6.917  0.4742 -0.3776 -0.1228
   15SAPS   H8X 1963   4.678   4.718   6.917  0.9125 -0.1213 -1.7955
   15SAPS   H8Y 1964   4.518   4.779   6.943 -0.0170  0.2906 -1.1253
   15SAPS   C39 1965   4.671   4.915   7.021  0.6780 -0.1722  0.1699
   15SAPS   H9X 1966   4.623   5.014   7.010  0.4852 -0.3913 -1.1210
   15SAPS   H9Y 1967   4.778   4.926   6.993  0.2536  1.1506 -0.9537
   15SAPS  C310 1968   4.666   4.879   7.167  0.3274 -0.0506 -0.4786
   15SAPS  H10X 1969   4.559   4.852   7.179  0.4885 -0.4020  0.1889
   15SAPS  H10Y 1970   4.698   4.962   7.234  1.2756 -1.2918  0.6394
   15SAPS  C311 1971   4.750   4.749   7.203  0.0641  0.6197  0.0503
   15SAPS  H11X 1972   4.858   4.771   7.214 -0.2469  0.7820  2.9551
   15SAPS  H11Y 1973   4.754   4.680   7.116 -3.2920  0.3408  0.0264
   15SAPS  C312 1974   4.693   4.672   7.323  0.1234 -0.3990 -0.1217
   15SAPS  H12X 1975   4.739   4.573   7.342  0.2375 -0.6477 -1.6721
   15SAPS  H12Y 1976   4.590   4.647   7.291  0.0210  1.3476 -1.2334
   15SAPS  C313 1977   4.684   4.749   7.455 -0.4967  0.1968  0.5072
   15SAPS  H13X 1978   4.632   4.843   7.428  1.4637  1.1645 -0.0009
   15SAPS  H13Y 1979   4.785   4.768   7.499 -0.8415  1.1002  0.9128
   15SAPS  C314 1980   4.609   4.668   7.557 -0.1483 -1.1624  0.0812
   15SAPS  H14X 1981   4.651   4.569   7.587 -0.5902 -0.6363  2.5940
   15SAPS  H14Y 1982   4.514   4.646   7.505  1.5130 -0.8703 -3.1896
   15SAPS  C315 1983   4.572   4.754   7.685  0.7818  0.1644  0.3880
   15SAPS  H15X 1984   4.521   4.844   7.644 -0.7189  0.4558  2.8240
   15SAPS  H15Y 1985   4.670   4.778   7.731  0.2490  3.5366 -0.1483
   15SAPS  C316 1986   4.495   4.683   7.794 -0.0054 -0.0609 -0.1694
   15SAPS  H16X 1987   4.404   4.638   7.748  0.2914 -2.0280  1.0966
   15SAPS  H16Y 1988   4.457   4.752   7.873 -0.5449  0.3155 -0.7491
   15SAPS  C317 1989   4.552   4.565   7.869  0.3699 -0.2977  0.0820
   15SAPS  H17X 1990   4.573   4.477   7.803 -1.0547 -1.5115  1.2029
   15SAPS  H17Y 1991   4.472   4.525   7.936 -1.6968 -2.1777 -3.3235
   15SAPS  C318 1992   4.679   4.592   7.948  0.6544 -0.6789 -0.1967
   15SAPS  H18X 1993   4.728   4.495   7.972  0.4544 -1.0710 -1.3437
   15SAPS  H18Y 1994   4.655   4.640   8.045  0.2606 -1.4809  0.1064
   15SAPS  H18Z 1995   4.757   4.650   7.893  1.9098 -0.8960  1.3072
   16SAPS     N 1996   5.616   0.135   6.548  0.3116 -0.6810 -0.2630
   16SAPS   HN1 1997   5.580   0.037   6.558 -0.3138 -0.3804  0.5840
   16SAPS   HN2 1998   5.617   0.179   6.643  3.0569 -0.8785 -0.1581
   16SAPS   HN3 1999   5.549   0.187   6.488  1.3834  0.3897 -0.5329
   16SAPS   C12 2000   5.759   0.124   6.499  0.4997 -0.0951  0.2971
   16SAPS  H12A 2001   5.803   0.048   6.561  0.8196  0.5157  0.8371
   16SAPS   C13 2002   5.774   0.083   6.355 -0.3214 -0.2873 -0.7729
   16SAPS  O13A 2003   5.677   0.067   6.279  0.7892  0.2254 -0.4366
   16SAPS  O13B 2004   5.891   0.062   6.304 -0.6434 -0.5541  0.3169
   16SAPS   C11 2005   5.836   0.261   6.527 -0.1334  0.2419  0.1784
   16SAPS  H11A 2006   5.770   0.347   6.502 -0.4981 -0.0115  0.2647
   16SAPS  H11B 2007   5.916   0.278   6.452 -1.8390  2.8081 -1.1120
   16SAPS     P 2008   6.037   0.276   6.696 -0.0592  0.0848 -0.3901
   16SAPS   O13 2009   6.129   0.266   6.584  0.0494  0.2085  0.4322
   16SAPS   O14 2010   6.057   0.397   6.781  0.0831 -0.0190  0.0716
   16SAPS   O12 2011   5.885   0.271   6.659 -0.3892  0.7185 -0.7109
   16SAPS   O11 2012   6.052   0.148   6.783 -0.6918 -0.3014 -0.2469
   16SAPS    C1 2013   5.948   0.100   6.871 -0.2109 -0.4272 -0.3275
   16SAPS    HA 2014   5.847   0.093   6.825 -0.2731 -0.5869 -0.1662
   16SAPS    HB 2015   5.973  -0.003   6.906 -0.0026 -0.3950 -0.3840
   16SAPS    C2 2016   5.936   0.184   7.005 -0.8479 -0.8582 -0.5889
   16SAPS    HS 2017   5.894   0.282   6.974 -1.9403 -0.6167  1.5297
   16SAPS   O21 2018   6.068   0.194   7.062 -0.3096  0.7030 -0.3292
   16SAPS   C21 2019   6.091   0.308   7.124  0.2874 -0.1348 -0.5594
   16SAPS   O22 2020   6.014   0.397   7.147 -0.2927  0.2857 -0.3261
   16SAPS   C22 2021   6.243   0.314   7.145 -0.1802 -0.7396  0.2591
   16SAPS   H2R 2022   6.274   0.230   7.210 -0.8629 -0.5916  0.7793
   16SAPS   H2S 2023   6.286   0.303   7.043  1.3856  2.1317  0.5336
   16SAPS    C3 2024   5.836   0.113   7.102  0.2690  0.2564  0.9542
   16SAPS    HX 2025   5.858   0.005   7.093  1.0108  0.5836 -1.6525
   16SAPS    HY 2026   5.732   0.138   7.070 -0.0387 -0.2140  1.5801
   16SAPS   O31 2027   5.855   0.133   7.240 -0.4705 -0.1574 -0.1775
   16SAPS   C31 2028   5.778   0.231   7.289  0.2844 -0.0797  0.3526
   16SAPS   O32 2029   5.687   0.289   7.232 -0.0401  0.4067 -0.4254
   16SAPS   C32 2030   5.804   0.269   7.433 -0.6441  0.6374 -0.4040
   16SAPS   H2X 2031   5.734   0.351   7.460  0.9131  1.7463  0.3557
   16SAPS   H2Y 2032   5.908   0.309   7.433 -0.4549  0.1583 -1.2104
   16SAPS   C23 2033   6.299   0.458   7.194 -0.5570 -0.1278 -0.5027
   16SAPS   H3R 2034   6.241   0.542   7.148  1.9715  1.1198 -1.4846
   16SAPS   H3S 2035   6.402   0.463   7.153 -0.8767  3.4049 -1.0942
   16SAPS   C24 2036   6.283   0.486   7.349 -0.0840  0.1354 -0.0035
   16SAPS   H4R 2037   6.176   0.476   7.378 -0.0110 -2.7294 -0.5823
   16SAPS   H4S 2038   6.311   0.592   7.369 -1.5073  0.2103  1.6513
   16SAPS   C25 2039   6.373   0.400   7.433  0.1109  0.2984  0.5359
   16SAPS   H5R 2040   6.448   0.344   7.375 -0.4804  0.0141  0.0372
   16SAPS   C26 2041   6.385   0.394   7.570  0.3064 -0.2088  0.3155
   16SAPS   H6R 2042   6.441   0.319   7.627  1.6417 -0.9396 -1.9241
   16SAPS   C27 2043   6.298   0.483   7.657 -0.7097  0.3633 -0.5793
   16SAPS   H7R 2044   6.252   0.567   7.600 -0.3879  0.0315 -1.3386
   16SAPS   H7S 2045   6.359   0.548   7.723  2.5508 -0.4815 -2.6333
   16SAPS   C28 2046   6.195   0.396   7.724 -0.0340 -0.0463 -0.1062
   16SAPS   H8R 2047   6.109   0.374   7.659 -0.8639  0.2224  0.8966
   16SAPS   C29 2048   6.201   0.361   7.857 -0.2712  0.2937 -0.0799
   16SAPS   H9R 2049   6.115   0.306   7.898  1.4126 -1.8876  0.6239
   16SAPS  C210 2050   6.311   0.395   7.955  0.2890  0.9969 -0.2165
   16SAPS  H10R 2051   6.402   0.424   7.897 -0.9842  2.7869 -1.3612
   16SAPS  H10S 2052   6.336   0.307   8.017 -0.7897  1.1346  0.4195
   16SAPS  C211 2053   6.294   0.509   8.050 -0.1597  0.1450  0.3230
   16SAPS  H11R 2054   6.351   0.597   8.015  1.1071 -1.3362 -1.4764
   16SAPS  C212 2055   6.222   0.508   8.163 -0.5472 -0.7228 -0.4579
   16SAPS  H12R 2056   6.209   0.597   8.226  0.5726 -2.0093  1.6586
   16SAPS  C213 2057   6.139   0.388   8.206 -0.9022  0.7072  0.5968
   16SAPS  H13R 2058   6.212   0.310   8.234 -0.4632  1.1751  0.7638
   16SAPS  H13S 2059   6.089   0.339   8.120  1.0605 -2.0399  0.9716
   16SAPS  C214 2060   6.047   0.394   8.323  0.0158  0.0658  0.3137
   16SAPS  H14R 2061   6.078   0.475   8.392 -0.6704  0.1865  0.4808
   16SAPS  C215 2062   5.959   0.297   8.359  0.1206 -0.0932  0.6008
   16SAPS  H15R 2063   5.892   0.308   8.445  1.0924  0.7966  1.2535
   16SAPS  C216 2064   5.933   0.176   8.276  0.6820  0.0544 -0.5554
   16SAPS  H16R 2065   5.999   0.170   8.187 -0.1338 -1.4963 -1.0614
   16SAPS  H16S 2066   5.827   0.173   8.245  0.2729  1.2615  0.6781
   16SAPS  C217 2067   5.954   0.043   8.358  0.4575 -0.0277  0.7381
   16SAPS  H17R 2068   5.884   0.028   8.443 -1.5637 -1.1268 -1.0805
   16SAPS  H17S 2069   6.058   0.034   8.396  0.3841 -1.1692  0.6970
   16SAPS  C218 2070   5.928  -0.082   8.266  0.4567  0.4679  0.1656
   16SAPS  H18R 2071   6.004  -0.156   8.300  0.1040  0.7628  1.6493
   16SAPS  H18S 2072   5.948  -0.058   8.160 -0.0184 -0.6444 -0.1774
   16SAPS  C219 2073   5.788  -0.134   8.271 -0.3398  0.8560 -0.4352
   16SAPS  H19R 2074   5.711  -0.068   8.226 -0.1807  2.1780  1.2072
   16SAPS  H19S 2075   5.769  -0.143   8.380  0.9740  2.8255 -0.0303
   16SAPS  C220 2076   5.782  -0.271   8.211  0.0253  0.7149  0.7055
   16SAPS  H20R 2077   5.858  -0.335   8.262  0.1914  0.2814 -0.0730
   16SAPS  H20S 2078   5.802  -0.257   8.103 -2.1755 -0.4541  0.1108
   16SAPS  H20T 2079   5.684  -0.321   8.226  1.6960 -2.6109  1.0790
   16SAPS   C33 2080   5.796   0.144   7.522  0.3107  0.7891 -0.9740
   16SAPS   H3X 2081   5.833   0.155   7.626  1.6509 -1.3591 -1.1952
   16SAPS   H3Y 2082   5.848   0.055   7.479  1.2135  1.4210 -1.2049
   16SAPS   C34 2083   5.643   0.108   7.548 -0.2056  0.4536 -0.9681
   16SAPS   H4X 2084   5.623   0.056   7.452 -1.0878 -3.1778  1.0725
   16SAPS   H4Y 2085   5.585   0.202   7.558  0.8682  0.7620  2.9793
   16SAPS   C35 2086   5.623   0.007   7.661 -0.5227  0.1351  1.0986
   16SAPS   H5X 2087   5.702  -0.071   7.657  1.3511  2.0889 -1.6704
   16SAPS   H5Y 2088   5.525  -0.044   7.650 -0.1911  0.0095 -1.4869
   16SAPS   C36 2089   5.635   0.070   7.802  0.0746 -0.0277 -0.0601
   16SAPS   H6X 2090   5.719   0.139   7.822 -0.2156  0.2552  0.1910
   16SAPS   H6Y 2091   5.629  -0.007   7.882 -0.8012  0.6978  0.5859
   16SAPS   C37 2092   5.507   0.163   7.829 -0.0163  0.0225  0.0671
   16SAPS   H7X 2093   5.408   0.119   7.806  0.4060 -0.4417 -0.9608
   16SAPS   H7Y 2094   5.516   0.245   7.755  1.3721 -1.4045 -1.4079
   16SAPS   C38 2095   5.505   0.206   7.978 -0.2142 -0.4778 -0.6744
   16SAPS   H8X 2096   5.480   0.314   7.971 -0.9320 -0.6888 -1.4625
   16SAPS   H8Y 2097   5.609   0.215   8.018 -1.0321 -1.4054  1.7207
   16SAPS   C39 2098   5.412   0.135   8.070  0.8959 -0.0830  0.3447
   16SAPS   H9X 2099   5.448   0.030   8.074  0.4426 -0.2662 -0.3397
   16SAPS   H9Y 2100   5.308   0.141   8.033  0.8110 -2.0607  0.1863
   16SAPS  C310 2101   5.419   0.187   8.216  0.1050  0.7947  0.1638
   16SAPS  H10X 2102   5.375   0.288   8.236  0.0246  0.6682  0.6267
   16SAPS  H10Y 2103   5.528   0.190   8.238  0.3380 -1.4625 -0.5413
   16SAPS  C311 2104   5.350   0.088   8.314 -0.3341  0.6547  0.5292
   16SAPS  H11X 2105   5.407  -0.007   8.302 -0.1793  0.7116  0.8279
   16SAPS  H11Y 2106   5.246   0.071   8.279  0.7222 -3.3833 -0.9678
   16SAPS  C312 2107   5.348   0.135   8.462  0.3777  0.2773  0.2875
   16SAPS  H12X 2108   5.284   0.065   8.520  0.6824  0.5124  0.9164
   16SAPS  H12Y 2109   5.293   0.231   8.463 -0.7282 -0.3107 -1.9625
   16SAPS  C313 2110   5.483   0.138   8.536  0.5500 -0.0292  0.0583
   16SAPS  H13X 2111   5.546   0.207   8.476 -1.0058  1.6566  0.3267
   16SAPS  H13Y 2112   5.520   0.036   8.509 -2.2669 -1.0999  0.0377
   16SAPS  C314 2113   5.477   0.172   8.688  0.6981  1.0103  0.4768
   16SAPS  H14X 2114   5.439   0.078   8.733 -0.5443  2.4251  2.4608
   16SAPS  H14Y 2115   5.397   0.246   8.712 -0.3263 -0.2676  1.0347
   16SAPS  C315 2116   5.612   0.207   8.738  0.1375  0.4668  0.0423
   16SAPS  H15X 2117   5.611   0.219   8.848 -1.8685  0.7238  0.0024
   16SAPS  H15Y 2118   5.652   0.300   8.692  0.0196  1.0127  1.0363
   16SAPS  C316 2119   5.709   0.090   8.719 -0.3968  0.3692 -1.1240
   16SAPS  H16X 2120   5.733   0.074   8.612 -1.8716  2.6941 -1.8328
   16SAPS  H16Y 2121   5.653   0.003   8.761  0.2084  1.7211  2.7195
   16SAPS  C317 2122   5.847   0.115   8.785  0.4859  0.5542  0.3452
   16SAPS  H17X 2123   5.840   0.131   8.894 -1.9522  1.7372  0.0656
   16SAPS  H17Y 2124   5.887   0.210   8.742  0.0212  0.6653  0.1522
   16SAPS  C318 2125   5.944  -0.002   8.755 -0.1892  0.1587  0.2334
   16SAPS  H18X 2126   5.911  -0.092   8.811 -0.7033 -1.1756 -2.1138
   16SAPS  H18Y 2127   6.050   0.013   8.785  0.1359 -0.7108 -0.4650
   16SAPS  H18Z 2128   5.935  -0.037   8.650  2.1407  1.3468 -0.3981
   17SAPC     N 2129   5.328   4.232  10.614  0.1503  0.0744 -0.3603
   17SAPC   C12 2130   5.362   4.228  10.463 -0.0387  0.7733  0.3051
   17SAPC  H12A 2131   5.417   4.138  10.440 -0.1038  1.0502 -0.9310
   17SAPC  H12B 2132   5.426   4.310  10.435 -1.7890  1.6368 -1.2553
   17SAPC   C13 2133   5.246   4.355  10.647 -0.4424  0.6355  0.2790
   17SAPC  H13A 2134   5.149   4.348  10.601  0.1347  1.4015 -1.1039
   17SAPC  H13B 2135   5.235   4.365  10.754  2.0509  1.5134  0.4818
   17SAPC  H13C 2136   5.283   4.448  10.608 -0.2089  0.5593  0.3148
   17SAPC   C14 2137   5.259   4.111  10.662 -0.2338 -0.4436  0.4466
   17SAPC  H14A 2138   5.324   4.025  10.658  1.1969  0.7030 -2.1168
   17SAPC  H14B 2139   5.217   4.111  10.761  2.2187 -1.8629  1.5326
   17SAPC  H14C 2140   5.191   4.083  10.583 -0.9913 -1.2923  1.3964
   17SAPC   C15 2141   5.457   4.251  10.694 -0.3228  0.0978 -0.9428
   17SAPC  H15A 2142   5.442   4.257  10.801 -0.0504 -2.1103 -0.7694
   17SAPC  H15B 2143   5.524   4.168  10.680  1.0050  0.6823  1.5428
   17SAPC  H15C 2144   5.508   4.342  10.665  1.5981 -0.7716 -0.3217
   17SAPC   C11 2145   5.246   4.254  10.358 -0.1624  0.8501 -1.1189
   17SAPC  H11A 2146   5.293   4.253  10.257  0.6787 -0.5201 -0.7136
   17SAPC  H11B 2147   5.197   4.355  10.361  0.0807  0.9867 -1.6451
   17SAPC     P 2148   5.202   4.007  10.297  0.2627 -0.2736 -0.0971
   17SAPC   O13 2149   5.350   4.004  10.264  0.2216  0.6094 -0.5483
   17SAPC   O14 2150   5.169   3.907  10.403  0.2252  0.7335 -0.3279
   17SAPC   O12 2151   5.152   4.145  10.361  0.0507 -0.4588 -0.2344
   17SAPC   O11 2152   5.121   3.982  10.169 -0.2670 -0.2598 -0.1819
   17SAPC    C1 2153   4.996   3.905  10.182 -0.2904  0.6200 -0.1545
   17SAPC    HA 2154   4.941   3.918  10.278 -0.1549  0.9001 -0.1134
   17SAPC    HB 2155   4.921   3.935  10.105  0.0219  0.6936 -0.4291
   17SAPC    C2 2156   5.015   3.757  10.144 -0.2052 -0.1601 -1.1769
   17SAPC    HS 2157   5.105   3.721  10.198 -0.8327  0.8170  0.5376
   17SAPC   O21 2158   5.042   3.754   9.999  0.4554  0.2640  0.0714
   17SAPC   C21 2159   5.149   3.676   9.972  0.2919  0.2963  0.7896
   17SAPC   O22 2160   5.192   3.594  10.048  0.0192  0.0862 -1.4456
   17SAPC   C22 2161   5.193   3.696   9.822  0.4363 -0.2344 -0.1846
   17SAPC   H2R 2162   5.104   3.702   9.756 -1.0406 -2.5541  1.5274
   17SAPC   H2S 2163   5.256   3.787   9.810  0.6925 -0.3769  0.0687
   17SAPC    C3 2164   4.889   3.673  10.180  0.0166  0.0837 -0.1118
   17SAPC    HX 2165   4.868   3.675  10.289 -2.1669 -1.4348 -0.4915
   17SAPC    HY 2166   4.920   3.570  10.153 -0.6191  0.0128 -0.5730
   17SAPC   O31 2167   4.783   3.720  10.094  0.0268 -0.4285  0.1269
   17SAPC   C31 2168   4.661   3.723  10.147  0.1365 -0.5784 -0.5542
   17SAPC   O32 2169   4.631   3.683  10.262 -0.1859 -0.4382  0.7272
   17SAPC   C32 2170   4.559   3.787  10.046 -0.3818 -0.7384 -0.4849
   17SAPC   H2X 2171   4.582   3.895  10.042 -3.6997  0.0095 -0.2117
   17SAPC   H2Y 2172   4.461   3.768  10.095  1.2443 -1.2420  2.6757
   17SAPC   C23 2173   5.282   3.585   9.774  0.1358  0.3032  0.3063
   17SAPC   H3R 2174   5.242   3.483   9.795  0.6214  0.3043  1.2660
   17SAPC   H3S 2175   5.373   3.584   9.837  0.3125 -2.7341  0.1151
   17SAPC   C24 2176   5.328   3.591   9.630 -0.2047  0.4063 -0.0451
   17SAPC   H4R 2177   5.237   3.614   9.570 -0.8331 -0.5805  0.5174
   17SAPC   H4S 2178   5.359   3.496   9.580  0.1822  0.8518 -0.6605
   17SAPC   C25 2179   5.435   3.687   9.588 -0.1497  0.5250  0.6883
   17SAPC   H5R 2180   5.529   3.691   9.645  0.5431  0.5809 -0.4540
   17SAPC   C26 2181   5.433   3.771   9.479  0.4732 -0.3229  0.2222
   17SAPC   H6R 2182   5.514   3.840   9.451  0.5306 -0.3361  0.3508
   17SAPC   C27 2183   5.326   3.793   9.386  0.0886 -0.1604  0.5653
   17SAPC   H7R 2184   5.275   3.886   9.417  0.1892  0.2930 -0.6113
   17SAPC   H7S 2185   5.240   3.724   9.399  0.1080 -0.2808  0.0503
   17SAPC   C28 2186   5.357   3.812   9.242 -0.4155  0.1986 -0.2561
   17SAPC   H8R 2187   5.458   3.783   9.212 -1.0361 -0.3984 -1.8105
   17SAPC   C29 2188   5.293   3.875   9.152  0.0407  1.0315  0.0925
   17SAPC   H9R 2189   5.329   3.869   9.048  1.5394  1.2062  0.5851
   17SAPC  C210 2190   5.155   3.936   9.166 -0.2397 -0.0208  0.1272
   17SAPC  H10R 2191   5.150   4.046   9.178 -1.0982  0.3818 -3.2742
   17SAPC  H10S 2192   5.108   3.894   9.257  0.5200  1.3618  1.1717
   17SAPC  C211 2193   5.075   3.885   9.047 -0.4171  0.0086 -0.5302
   17SAPC  H11R 2194   5.032   3.785   9.062 -0.3049 -0.2802 -1.9994
   17SAPC  C212 2195   5.069   3.937   8.922 -0.4314  0.6444  0.5987
   17SAPC  H12R 2196   5.012   3.888   8.842  2.7703 -1.0676 -0.7637
   17SAPC  C213 2197   5.145   4.060   8.891 -0.1497  0.3748  0.5212
   17SAPC  H13R 2198   5.246   4.052   8.935 -1.4994 -1.4018  3.4586
   17SAPC  H13S 2199   5.102   4.146   8.947 -0.0483  1.0686 -0.4419
   17SAPC  C214 2200   5.128   4.097   8.745  0.4416 -0.0554  0.6568
   17SAPC  H14R 2201   5.086   4.020   8.677 -0.0822  1.2902 -0.5769
   17SAPC  C215 2202   5.147   4.218   8.694 -0.1511 -0.4757 -0.0159
   17SAPC  H15R 2203   5.138   4.232   8.586  1.4462  1.7585  0.1066
   17SAPC  C216 2204   5.201   4.347   8.752 -0.0557  0.0354 -0.6352
   17SAPC  H16R 2205   5.292   4.379   8.697 -1.1686  1.7693 -1.5219
   17SAPC  H16S 2206   5.226   4.342   8.860  0.8672 -0.5519 -0.8705
   17SAPC  C217 2207   5.096   4.462   8.758  0.1773 -0.2605 -0.4902
   17SAPC  H17R 2208   5.143   4.547   8.812  0.2798 -1.0405  0.6539
   17SAPC  H17S 2209   5.014   4.432   8.826  1.9053  1.9893  2.7546
   17SAPC  C218 2210   5.034   4.494   8.621 -0.0821 -0.0694  0.2084
   17SAPC  H18R 2211   4.987   4.405   8.573 -2.6168  2.7562 -2.8415
   17SAPC  H18S 2212   5.114   4.521   8.550  0.2953 -0.7324  0.3821
   17SAPC  C219 2213   4.940   4.613   8.622  0.1355 -0.0620  0.1258
   17SAPC  H19R 2214   4.968   4.679   8.707  1.9112 -1.5995  0.7592
   17SAPC  H19S 2215   4.836   4.578   8.641 -0.3420  1.5509  0.5462
   17SAPC  C220 2216   4.941   4.700   8.491  1.0366  0.7283 -0.5251
   17SAPC  H20R 2217   4.885   4.659   8.405  0.9019  1.0395 -0.5867
   17SAPC  H20S 2218   5.047   4.707   8.458  1.2150  2.2456  0.3189
   17SAPC  H20T 2219   4.901   4.800   8.517 -0.4170  0.4981 -1.8299
   17SAPC   C33 2220   4.571   3.733   9.900  0.1028  0.1749  0.1023
   17SAPC   H3X 2221   4.537   3.628   9.895 -2.1110  0.9032 -1.2562
   17SAPC   H3Y 2222   4.674   3.742   9.861  0.5351  0.7523  1.3467
   17SAPC   C34 2223   4.470   3.803   9.818  0.5011  0.8201  0.4995
   17SAPC   H4X 2224   4.503   3.909   9.803  0.0957  1.1189  1.6673
   17SAPC   H4Y 2225   4.385   3.825   9.886 -0.1255 -1.4617  0.4934
   17SAPC   C35 2226   4.429   3.737   9.686  0.3700 -0.3161 -0.6366
   17SAPC   H5X 2227   4.371   3.645   9.707 -1.4034  0.9741  0.2593
   17SAPC   H5Y 2228   4.521   3.720   9.625  0.7562  3.1726 -1.1503
   17SAPC   C36 2229   4.340   3.832   9.607 -0.2267 -0.8005  0.2162
   17SAPC   H6X 2230   4.392   3.922   9.568 -3.3240  0.8392 -0.2811
   17SAPC   H6Y 2231   4.271   3.875   9.682 -1.7780 -1.9124 -0.5452
   17SAPC   C37 2232   4.277   3.759   9.489 -0.3316 -0.5321  0.2126
   17SAPC   H7X 2233   4.192   3.826   9.466  0.2142  0.6490  1.6062
   17SAPC   H7Y 2234   4.229   3.667   9.529 -1.1245 -0.3310 -0.2743
   17SAPC   C38 2235   4.355   3.735   9.358 -0.2565 -0.0936  0.2587
   17SAPC   H8X 2236   4.446   3.678   9.388  0.4019  0.7760 -0.0840
   17SAPC   H8Y 2237   4.381   3.832   9.311 -1.4932  0.3238  0.4044
   17SAPC   C39 2238   4.276   3.655   9.248  0.8516 -0.7073  0.5589
   17SAPC   H9X 2239   4.220   3.575   9.301  2.5492 -0.9016  2.1065
   17SAPC   H9Y 2240   4.348   3.616   9.174  0.5885  0.4480 -0.3229
   17SAPC  C310 2241   4.178   3.737   9.169 -0.6992  0.3967  0.7632
   17SAPC  H10X 2242   4.237   3.809   9.109  1.2888 -1.9502 -0.2033
   17SAPC  H10Y 2243   4.121   3.790   9.248 -2.0807 -1.4089  1.0183
   17SAPC  C311 2244   4.095   3.661   9.069 -0.1841 -0.2327 -1.0935
   17SAPC  H11X 2245   4.160   3.628   8.985  2.6907  0.8110  0.6534
   17SAPC  H11Y 2246   4.019   3.732   9.029 -0.3652  0.0983 -0.1681
   17SAPC  C312 2247   4.014   3.553   9.136 -0.3027 -0.4207 -0.1726
   17SAPC  H12X 2248   3.989   3.578   9.241 -0.6908  1.8852 -0.7886
   17SAPC  H12Y 2249   4.070   3.458   9.121 -1.6650 -1.1384 -0.7766
   17SAPC  C313 2250   3.875   3.537   9.068 -0.8109 -1.0195  0.3371
   17SAPC  H13X 2251   3.811   3.626   9.084  0.3906  0.0415 -0.6267
   17SAPC  H13Y 2252   3.824   3.454   9.121  1.6970 -1.9841  1.3287
   17SAPC  C314 2253   3.867   3.509   8.916  0.5446 -0.4488  0.1424
   17SAPC  H14X 2254   3.929   3.419   8.893  1.5068  0.1713  0.2782
   17SAPC  H14Y 2255   3.907   3.595   8.858  0.6743 -1.7304 -1.6894
   17SAPC  C315 2256   3.723   3.484   8.874  0.5029 -0.6778 -0.1194
   17SAPC  H15X 2257   3.655   3.558   8.922 -0.5861 -0.7442 -1.5191
   17SAPC  H15Y 2258   3.688   3.392   8.926 -0.6896  1.6840  3.4076
   17SAPC  C316 2259   3.698   3.481   8.730 -0.6091  0.1981  0.7097
   17SAPC  H16X 2260   3.780   3.426   8.679 -0.2900 -1.2530  2.7545
   17SAPC  H16Y 2261   3.703   3.582   8.683  0.1061  0.0161  0.3769
   17SAPC  C317 2262   3.558   3.420   8.710  0.8152 -0.1678 -0.1228
   17SAPC  H17X 2263   3.485   3.488   8.757 -0.0089  0.5216 -2.3225
   17SAPC  H17Y 2264   3.555   3.331   8.776  0.7026  1.1040  1.6309
   17SAPC  C318 2265   3.521   3.385   8.563  0.2352  0.0620  0.1778
   17SAPC  H18X 2266   3.525   3.483   8.511  0.4117 -0.0488 -0.0180
   17SAPC  H18Y 2267   3.596   3.307   8.536 -3.3333 -3.1963 -0.8151
   17SAPC  H18Z 2268   3.418   3.345   8.550  0.1232  0.1869  0.6756
   18SAPC     N 2269   5.534   3.359  10.518  0.1473  0.2349  0.1359
   18SAPC   C12 2270   5.472   3.348  10.657  0.1627 -0.3143  0.8066
   18SAPC  H12A 2271   5.406   3.433  10.668  0.1792 -0.5160  2.6023
   18SAPC  H12B 2272   5.551   3.349  10.730 -1.0918  0.7088  2.1932
   18SAPC   C13 2273   5.420   3.352  10.417 -0.2717 -0.3599  0.0012
   18SAPC  H13A 2274   5.456   3.320  10.320 -0.9669  1.7006 -0.9602
   18SAPC  H13B 2275   5.344   3.286  10.455 -0.2211  0.5772  1.7598
   18SAPC  H13C 2276   5.357   3.439  10.415 -0.6423 -0.6106  0.9854
   18SAPC   C14 2277   5.611   3.491  10.514 -0.2021 -0.2512  0.0473
   18SAPC  H14A 2278   5.689   3.484  10.589 -0.0211  0.0911 -0.1090
   18SAPC  H14B 2279   5.648   3.507  10.413  0.8003  0.4076  0.5153
   18SAPC  H14C 2280   5.544   3.570  10.543  0.5670  0.4613 -0.1086
   18SAPC   C15 2281   5.620   3.241  10.486  0.4334 -0.0284 -0.8637
   18SAPC  H15A 2282   5.713   3.257  10.538 -0.3634  2.3555 -0.0864
   18SAPC  H15B 2283   5.569   3.155  10.526 -0.5814  0.0893 -1.8806
   18SAPC  H15C 2284   5.639   3.223  10.382 -0.4557 -0.5422 -0.9476
   18SAPC   C11 2285   5.395   3.225  10.697  0.4004 -0.1920 -0.3146
   18SAPC  H11A 2286   5.382   3.217  10.807  0.1121  0.2455 -0.3179
   18SAPC  H11B 2287   5.472   3.145  10.684  0.8094  0.2999 -0.9217
   18SAPC     P 2288   5.144   3.266  10.655 -0.2739  0.1929  0.2739
   18SAPC   O13 2289   5.079   3.207  10.772  0.1550 -0.2121 -0.0536
   18SAPC   O14 2290   5.151   3.414  10.646  0.1726 -0.2567 -0.2895
   18SAPC   O12 2291   5.274   3.197  10.628  0.0832  0.5577  0.2859
   18SAPC   O11 2292   5.054   3.223  10.530  0.8225 -0.5196  0.1542
   18SAPC    C1 2293   5.031   3.095  10.486 -0.1810  0.2228  0.4332
   18SAPC    HA 2294   5.055   3.028  10.571  0.3609 -2.3382 -1.6918
   18SAPC    HB 2295   4.928   3.073  10.453  0.1248 -0.0889 -0.3172
   18SAPC    C2 2296   5.134   3.053  10.377  0.4922 -0.5603 -0.5921
   18SAPC    HS 2297   5.237   3.075  10.412 -0.7644  0.9483  2.2986
   18SAPC   O21 2298   5.102   3.133  10.265  0.2131 -0.2340  0.4786
   18SAPC   C21 2299   5.201   3.170  10.186  0.7354 -0.2132  0.7076
   18SAPC   O22 2300   5.317   3.161  10.210 -0.2692 -0.1297  0.1897
   18SAPC   C22 2301   5.141   3.232  10.060  0.3446  0.1045  1.1301
   18SAPC   H2R 2302   5.056   3.297  10.089 -1.1030 -1.6883  1.0216
   18SAPC   H2S 2303   5.214   3.295  10.005  0.0336  0.0468  0.6440
   18SAPC    C3 2304   5.117   2.900  10.350 -0.5172 -0.4937 -0.1716
   18SAPC    HX 2305   5.016   2.885  10.305 -0.6709  0.5709 -0.1966
   18SAPC    HY 2306   5.124   2.847  10.447 -0.7509 -0.7674 -0.3022
   18SAPC   O31 2307   5.221   2.851  10.258  0.4506  0.3450 -0.6164
   18SAPC   C31 2308   5.337   2.832  10.305 -0.2686  0.1085 -0.3270
   18SAPC   O32 2309   5.371   2.839  10.426 -0.2546  0.0642  0.4067
   18SAPC   C32 2310   5.438   2.810  10.194  0.6959  0.0919  0.2144
   18SAPC   H2X 2311   5.447   2.909  10.143  1.8818 -1.6292 -3.0576
   18SAPC   H2Y 2312   5.389   2.740  10.123 -0.3149  1.3702 -0.3767
   18SAPC   C23 2313   5.078   3.121   9.972 -0.5996 -0.4752 -0.9005
   18SAPC   H3R 2314   5.005   3.174   9.908 -0.5253 -1.7728 -2.0807
   18SAPC   H3S 2315   5.012   3.050  10.025 -0.7214 -0.1036 -0.5540
   18SAPC   C24 2316   5.179   3.049   9.881  0.7503  0.9050  0.4790
   18SAPC   H4R 2317   5.123   2.965   9.835  2.8402  0.0627 -0.5893
   18SAPC   H4S 2318   5.258   3.004   9.945  0.3602  0.7751  0.8729
   18SAPC   C25 2319   5.236   3.148   9.783  0.4485 -0.4391  0.3993
   18SAPC   H5R 2320   5.303   3.226   9.822 -0.1686  1.5380 -2.2888
   18SAPC   C26 2321   5.216   3.142   9.646  0.8728 -1.1315 -0.3187
   18SAPC   H6R 2322   5.270   3.214   9.582 -0.2945 -0.6948 -0.8409
   18SAPC   C27 2323   5.123   3.051   9.563  0.6201  0.8213  1.0521
   18SAPC   H7R 2324   5.082   2.966   9.623 -0.8158  0.8518  0.1207
   18SAPC   H7S 2325   5.171   3.008   9.472 -2.7867  1.6453 -1.2044
   18SAPC   C28 2326   5.011   3.132   9.502 -0.4082  0.1993  0.2046
   18SAPC   H8R 2327   4.924   3.150   9.567  0.6140 -0.6060  1.8272
   18SAPC   C29 2328   5.015   3.175   9.375 -0.1208 -0.1260 -0.0431
   18SAPC   H9R 2329   4.925   3.232   9.348  0.5843  1.0664  0.0887
   18SAPC  C210 2330   5.116   3.174   9.262 -0.2641 -0.0361 -0.1163
   18SAPC  H10R 2331   5.072   3.150   9.163 -2.3555  0.4445  0.6780
   18SAPC  H10S 2332   5.182   3.086   9.277  0.3576  0.6028  0.9693
   18SAPC  C211 2333   5.205   3.299   9.255 -0.3032 -0.3486  0.0204
   18SAPC  H11R 2334   5.281   3.291   9.335 -1.2021 -3.0610  0.6951
   18SAPC  C212 2335   5.206   3.394   9.163  0.0447 -0.0847  0.4914
   18SAPC  H12R 2336   5.276   3.479   9.164  1.1247 -0.9741  0.6800
   18SAPC  C213 2337   5.107   3.403   9.047  0.0171  0.0995 -0.0038
   18SAPC  H13R 2338   5.076   3.510   9.046 -1.0080 -0.1134  3.8474
   18SAPC  H13S 2339   5.013   3.353   9.076  0.7931 -0.0439  2.2957
   18SAPC  C214 2340   5.150   3.350   8.911 -0.1426  0.3997  0.0358
   18SAPC  H14R 2341   5.136   3.242   8.898 -0.6100  0.7583 -2.7098
   18SAPC  C215 2342   5.203   3.432   8.816 -0.1549  0.2812  0.1384
   18SAPC  H15R 2343   5.247   3.391   8.724 -0.9415 -0.3007  0.0120
   18SAPC  C216 2344   5.228   3.580   8.827 -0.2787  0.6318  0.5573
   18SAPC  H16R 2345   5.164   3.631   8.903 -2.5499  2.4711 -2.4804
   18SAPC  H16S 2346   5.181   3.627   8.738  0.2386 -0.4207 -0.2846
   18SAPC  C217 2347   5.378   3.628   8.856 -0.0227 -0.2543  0.2950
   18SAPC  H17R 2348   5.421   3.568   8.940  1.3408  2.4031  1.5440
   18SAPC  H17S 2349   5.381   3.737   8.878 -2.5080  0.1849 -1.4061
   18SAPC  C218 2350   5.475   3.596   8.741  0.3684 -0.9588  0.8722
   18SAPC  H18R 2351   5.448   3.504   8.684  0.9033  0.5018 -1.7920
   18SAPC  H18S 2352   5.578   3.579   8.778  1.2026 -1.7205 -1.6874
   18SAPC  C219 2353   5.470   3.705   8.634  0.8931  0.3294  0.2418
   18SAPC  H19R 2354   5.466   3.800   8.691 -1.0800 -0.0247  0.7507
   18SAPC  H19S 2355   5.379   3.691   8.571  1.2197  2.9671 -0.8776
   18SAPC  C220 2356   5.599   3.715   8.549  0.3554 -0.0103  0.0526
   18SAPC  H20R 2357   5.692   3.733   8.608 -0.3457  1.3280  0.7585
   18SAPC  H20S 2358   5.595   3.786   8.464 -0.4621 -1.2272 -0.9385
   18SAPC  H20T 2359   5.609   3.618   8.495  0.3633 -0.4221  0.7861
   18SAPC   C33 2360   5.576   2.771  10.247 -0.2767 -0.0609 -0.4706
   18SAPC   H3X 2361   5.591   2.666  10.280  1.2774  0.7637  1.5399
   18SAPC   H3Y 2362   5.603   2.830  10.337  0.3704 -1.1146  0.0242
   18SAPC   C34 2363   5.685   2.803  10.145  0.5326  0.5571 -0.0098
   18SAPC   H4X 2364   5.782   2.792  10.198  1.9998 -2.4840 -3.1527
   18SAPC   H4Y 2365   5.693   2.906  10.104 -1.4002  0.7259 -0.0293
   18SAPC   C35 2366   5.676   2.692  10.041  0.2157 -0.2295  0.8206
   18SAPC   H5X 2367   5.569   2.674  10.020  0.6511 -0.7288 -1.1106
   18SAPC   H5Y 2368   5.713   2.595  10.082  1.7056 -0.0859 -0.1335
   18SAPC   C36 2369   5.754   2.715   9.916  0.8339 -0.1587  0.3491
   18SAPC   H6X 2370   5.862   2.721   9.940  1.1884 -1.9316 -0.7018
   18SAPC   H6Y 2371   5.716   2.813   9.879 -0.3700 -0.9646 -0.5750
   18SAPC   C37 2372   5.737   2.602   9.821  0.5622  0.7921 -0.4861
   18SAPC   H7X 2373   5.629   2.591   9.798  0.4511  0.9043 -0.0266
   18SAPC   H7Y 2374   5.747   2.502   9.867  0.5927  0.0985 -1.9871
   18SAPC   C38 2375   5.811   2.628   9.687  0.0366  0.7968  0.2870
   18SAPC   H8X 2376   5.912   2.670   9.707 -0.1350  1.5261 -0.3325
   18SAPC   H8Y 2377   5.740   2.694   9.632  0.5889  0.7964 -0.4333
   18SAPC   C39 2378   5.836   2.498   9.600  0.1377  0.3634 -0.6144
   18SAPC   H9X 2379   5.737   2.449   9.587 -1.0804  2.0019  2.1034
   18SAPC   H9Y 2380   5.902   2.425   9.653  1.5470  1.1828 -1.2013
   18SAPC  C310 2381   5.916   2.528   9.473 -0.9385  0.5003  0.2589
   18SAPC  H10X 2382   6.005   2.587   9.502 -0.7581 -0.0760  0.9189
   18SAPC  H10Y 2383   5.863   2.593   9.401 -1.0973  0.3029  0.1974
   18SAPC  C311 2384   5.968   2.410   9.386  0.2996 -0.2262 -0.3311
   18SAPC  H11X 2385   5.882   2.344   9.359 -0.6783  1.4581 -1.4386
   18SAPC  H11Y 2386   6.037   2.341   9.438 -2.0752 -2.3524  0.1005
   18SAPC  C312 2387   6.037   2.445   9.251  0.1488  0.2342  0.7220
   18SAPC  H12X 2388   6.086   2.360   9.198 -0.5102  0.8569 -0.9112
   18SAPC  H12Y 2389   6.119   2.517   9.274  0.9394 -0.2767 -0.4667
   18SAPC  C313 2390   5.933   2.477   9.136  0.1151 -0.9423 -0.6135
   18SAPC  H13X 2391   5.885   2.573   9.165  2.2426 -0.2186  0.5649
   18SAPC  H13Y 2392   5.853   2.399   9.137 -0.6057 -0.2113  0.6213
   18SAPC  C314 2393   5.996   2.492   8.996  0.1079  0.5296 -0.0993
   18SAPC  H14X 2394   6.012   2.386   8.964 -2.5930  0.3407 -1.0059
   18SAPC  H14Y 2395   6.093   2.546   8.998  0.3603  0.1089 -0.7967
   18SAPC  C315 2396   5.901   2.550   8.897  0.1131 -0.3232 -0.0892
   18SAPC  H15X 2397   5.901   2.658   8.924 -2.6543 -0.3334  0.1021
   18SAPC  H15Y 2398   5.796   2.516   8.909 -0.3802 -0.3554 -3.9787
   18SAPC  C316 2399   5.956   2.536   8.755  0.3106 -0.0148 -0.5292
   18SAPC  H16X 2400   5.961   2.429   8.729  2.3645 -0.2665  0.8042
   18SAPC  H16Y 2401   6.063   2.567   8.750  0.7783 -1.2896  1.2842
   18SAPC  C317 2402   5.864   2.604   8.647  0.0269 -0.2173  0.0391
   18SAPC  H17X 2403   5.877   2.714   8.650 -0.1611 -0.2134  0.7834
   18SAPC  H17Y 2404   5.757   2.604   8.676 -0.3643 -0.8549 -1.3620
   18SAPC  C318 2405   5.902   2.562   8.506  0.6451 -0.7277 -1.3914
   18SAPC  H18X 2406   5.861   2.459   8.499  2.0452 -1.2361 -2.4761
   18SAPC  H18Y 2407   6.013   2.557   8.496  0.6970  0.2046 -1.2951
   18SAPC  H18Z 2408   5.857   2.635   8.437 -0.0332 -1.1766 -1.4252
   19SAPC     N 2409   4.721   5.044  10.862  0.1885 -1.2751 -0.2586
   19SAPC   C12 2410   4.732   5.093  10.723  0.3831 -0.0623 -0.4696
   19SAPC  H12A 2411   4.838   5.084  10.705  0.7457  2.9724 -0.1265
   19SAPC  H12B 2412   4.709   5.198  10.726  2.2429  0.3668 -0.6432
   19SAPC   C13 2413   4.590   5.035  10.928  0.0950  0.3937  0.9891
   19SAPC  H13A 2414   4.548   5.132  10.950 -1.8457 -0.5825  1.6882
   19SAPC  H13B 2415   4.521   4.971  10.876 -1.8370  2.9097  0.3241
   19SAPC  H13C 2416   4.599   4.989  11.025  2.5779  0.2700  0.7145
   19SAPC   C14 2417   4.788   4.908  10.880 -0.1142 -0.5256  0.3607
   19SAPC  H14A 2418   4.790   4.883  10.985  0.3151  1.5894  0.8827
   19SAPC  H14B 2419   4.738   4.826  10.831  1.6314  0.9713 -4.1008
   19SAPC  H14C 2420   4.889   4.900  10.845 -0.3764 -3.0841  0.1422
   19SAPC   C15 2421   4.808   5.133  10.952  0.6134  0.9007 -0.0305
   19SAPC  H15A 2422   4.780   5.236  10.936  0.9237  0.9003 -0.6025
   19SAPC  H15B 2423   4.805   5.101  11.055  0.3318 -3.0000 -1.1780
   19SAPC  H15C 2424   4.914   5.129  10.931  0.9602  0.7898  1.6647
   19SAPC   C11 2425   4.664   5.009  10.610 -0.0240  0.3826  0.1227
   19SAPC  H11A 2426   4.700   4.905  10.603  0.9047  0.5896  1.5382
   19SAPC  H11B 2427   4.696   5.060  10.517  1.0625 -4.7231 -2.4331
   19SAPC     P 2428   4.430   4.886  10.642  0.0508  0.4618 -0.1772
   19SAPC   O13 2429   4.483   4.804  10.754 -0.3035  0.1476  0.5480
   19SAPC   O14 2430   4.289   4.929  10.659  0.9954  0.1455  0.2824
   19SAPC   O12 2431   4.522   5.016  10.623  0.3189 -0.6014  0.1283
   19SAPC   O11 2432   4.437   4.810  10.502  0.2444 -0.1956 -0.8098
   19SAPC    C1 2433   4.380   4.855  10.377  0.2732  0.1740 -0.1015
   19SAPC    HA 2434   4.353   4.765  10.317  1.7982 -1.3926  1.5185
   19SAPC    HB 2435   4.284   4.909  10.393 -0.4683 -0.7758 -1.1557
   19SAPC    C2 2436   4.472   4.956  10.301  0.4062  0.4479 -0.5212
   19SAPC    HS 2437   4.464   5.050  10.360 -0.2274  0.7459 -1.0848
   19SAPC   O21 2438   4.425   4.974  10.163  0.4230  0.2494  0.1280
   19SAPC   C21 2439   4.311   5.037  10.136 -1.0291 -0.2044  1.1417
   19SAPC   O22 2440   4.235   5.089  10.215  0.3270 -0.2736  0.0620
   19SAPC   C22 2441   4.296   5.044   9.988 -0.1120  0.1615 -0.3789
   19SAPC   H2R 2442   4.289   5.152   9.961  0.7543  0.8684  2.0376
   19SAPC   H2S 2443   4.392   5.005   9.948 -0.0793 -3.2196  2.7070
   19SAPC    C3 2444   4.620   4.917  10.274  0.4430 -0.1939 -0.2706
   19SAPC    HX 2445   4.618   4.828  10.208  0.9894 -0.0025 -0.5543
   19SAPC    HY 2446   4.657   4.884  10.373 -3.3245  0.1373  1.3020
   19SAPC   O31 2447   4.707   5.021  10.223  0.2071 -0.0337  0.2868
   19SAPC   C31 2448   4.817   4.976  10.167 -0.0036  0.3485 -0.5134
   19SAPC   O32 2449   4.870   4.865  10.179 -0.1487  0.0124  0.1634
   19SAPC   C32 2450   4.857   5.080  10.062 -0.2510  1.0178  0.2020
   19SAPC   H2X 2451   4.966   5.088  10.082 -0.2249 -0.1577  0.6072
   19SAPC   H2Y 2452   4.811   5.176  10.092 -1.0029  1.1256 -1.2723
   19SAPC   C23 2453   4.172   4.964   9.937 -0.0323  0.1211 -0.4417
   19SAPC   H3R 2454   4.161   4.866   9.987 -1.0957  0.6293  0.3395
   19SAPC   H3S 2455   4.193   4.946   9.829 -0.4945 -1.1037 -0.3356
   19SAPC   C24 2456   4.031   5.047   9.950 -0.3254 -0.5106  0.0806
   19SAPC   H4R 2457   4.000   5.061  10.055  1.9019 -0.6876  0.7735
   19SAPC   H4S 2458   3.950   4.982   9.909 -0.0984  1.2062 -3.2496
   19SAPC   C25 2459   4.031   5.174   9.870 -0.0733  0.2267 -0.0427
   19SAPC   H5R 2460   4.057   5.266   9.923  2.0432 -0.4278  0.0917
   19SAPC   C26 2461   4.009   5.182   9.735  0.0357  0.0658 -0.2408
   19SAPC   H6R 2462   4.001   5.282   9.691  2.4060 -0.1859 -1.3371
   19SAPC   C27 2463   3.985   5.069   9.640 -0.6832  0.2476 -0.3915
   19SAPC   H7R 2464   3.883   5.088   9.601 -1.0667  1.4470  1.1226
   19SAPC   H7S 2465   3.983   4.972   9.694  0.1562  1.8229  2.5900
   19SAPC   C28 2466   4.093   5.064   9.536  0.1267 -0.1975  0.0037
   19SAPC   H8R 2467   4.198   5.060   9.568 -0.1458 -0.6229  0.8654
   19SAPC   C29 2468   4.081   5.050   9.405 -0.2306  0.0178  0.2503
   19SAPC   H9R 2469   4.162   5.069   9.334 -2.3410 -0.9262 -2.5335
   19SAPC  C210 2470   3.947   5.053   9.332 -0.6827  0.9488  0.2952
   19SAPC  H10R 2471   3.887   4.986   9.396  0.9320 -0.1870  0.6604
   19SAPC  H10S 2472   3.963   5.004   9.233  2.5385  1.8573  0.3075
   19SAPC  C211 2473   3.882   5.188   9.322 -0.1758 -0.4449 -0.2013
   19SAPC  H11R 2474   3.959   5.265   9.310  0.0650 -0.6192  0.2229
   19SAPC  C212 2475   3.752   5.210   9.328  0.2132  0.2874  0.4615
   19SAPC  H12R 2476   3.711   5.310   9.309  0.7210  0.0346 -2.1481
   19SAPC  C213 2477   3.641   5.101   9.319 -0.2317  0.2329  0.7578
   19SAPC  H13R 2478   3.567   5.136   9.395 -0.3957 -0.1961  0.7944
   19SAPC  H13S 2479   3.680   5.004   9.356  1.4817  1.6100  2.7134
   19SAPC  C214 2480   3.586   5.097   9.181 -0.4748  0.2399  0.2652
   19SAPC  H14R 2481   3.661   5.105   9.102  0.4418 -0.3471  1.0711
   19SAPC  C215 2482   3.459   5.082   9.141  0.4077  0.0671 -0.3334
   19SAPC  H15R 2483   3.428   5.094   9.036  1.4337 -0.0836 -0.6677
   19SAPC  C216 2484   3.341   5.060   9.227 -0.2132 -0.6185 -0.6671
   19SAPC  H16R 2485   3.278   5.151   9.217  0.4840 -0.2990 -2.3158
   19SAPC  H16S 2486   3.379   5.058   9.331  2.6751  0.4000 -1.6389
   19SAPC  C217 2487   3.269   4.931   9.195  0.3234 -0.2576  0.3403
   19SAPC  H17R 2488   3.204   4.911   9.284 -2.2081  0.6577 -1.2433
   19SAPC  H17S 2489   3.331   4.839   9.189 -0.1554 -0.4468 -2.4873
   19SAPC  C218 2490   3.177   4.935   9.072 -0.4552  0.0249 -0.5697
   19SAPC  H18R 2491   3.239   4.981   8.992 -1.5893  3.2518  0.3251
   19SAPC  H18S 2492   3.096   5.006   9.097  1.2977  0.3142  4.8778
   19SAPC  C219 2493   3.111   4.803   9.025 -0.1470 -0.6295 -0.6970
   19SAPC  H19R 2494   3.067   4.753   9.114  1.3666  3.2175  2.3667
   19SAPC  H19S 2495   3.186   4.733   8.983 -0.6189 -1.2615 -0.4944
   19SAPC  C220 2496   3.007   4.819   8.910  0.3603  0.0728 -0.0957
   19SAPC  H20R 2497   3.061   4.838   8.815  3.1820  0.3031  1.5029
   19SAPC  H20S 2498   2.938   4.902   8.937 -0.1263 -0.3550 -0.0152
   19SAPC  H20T 2499   2.954   4.724   8.889  4.5147 -2.4031 -0.0089
   19SAPC   C33 2500   4.836   5.047   9.914 -0.0141  0.5197  0.4877
   19SAPC   H3X 2501   4.837   4.936   9.910  0.4782  0.5522 -0.3522
   19SAPC   H3Y 2502   4.922   5.071   9.848 -1.0518  2.2290 -0.2769
   19SAPC   C34 2503   4.714   5.109   9.848 -0.2908 -0.3256  0.4075
   19SAPC   H4X 2504   4.718   5.220   9.854 -1.1966 -0.3895  2.6286
   19SAPC   H4Y 2505   4.624   5.076   9.904 -1.0977  0.2160 -0.5431
   19SAPC   C35 2506   4.700   5.058   9.698  0.4155  0.1840 -0.0647
   19SAPC   H5X 2507   4.667   4.954   9.718  0.4081  0.4451  1.3317
   19SAPC   H5Y 2508   4.797   5.064   9.644  0.4873  0.4355  0.0927
   19SAPC   C36 2509   4.590   5.133   9.616  0.2635 -0.4558 -0.0243
   19SAPC   H6X 2510   4.615   5.241   9.620 -0.2854 -0.3357  0.2817
   19SAPC   H6Y 2511   4.487   5.123   9.658  0.4549 -2.6002 -0.0130
   19SAPC   C37 2512   4.583   5.085   9.469 -0.7175 -0.0514  0.4983
   19SAPC   H7X 2513   4.544   4.981   9.465 -1.5460  0.2891 -0.6694
   19SAPC   H7Y 2514   4.687   5.089   9.431 -0.5791 -1.5683  0.6740
   19SAPC   C38 2515   4.491   5.173   9.385  0.0532 -0.1448  0.2747
   19SAPC   H8X 2516   4.540   5.272   9.375  0.6407 -0.0756  3.2068
   19SAPC   H8Y 2517   4.391   5.197   9.426  0.5971  2.1052  0.3823
   19SAPC   C39 2518   4.481   5.112   9.245 -0.2100  0.5751 -0.1075
   19SAPC   H9X 2519   4.468   5.002   9.253  0.2149  0.5665  0.4685
   19SAPC   H9Y 2520   4.583   5.127   9.203 -0.7558  0.3036 -1.5685
   19SAPC  C310 2521   4.365   5.171   9.161  0.2714 -0.3200  0.1680
   19SAPC  H10X 2522   4.412   5.257   9.109  0.7735 -1.7981 -1.8740
   19SAPC  H10Y 2523   4.279   5.206   9.222 -1.0118  0.6027 -2.0822
   19SAPC  C311 2524   4.333   5.069   9.048  0.8940 -0.1765  0.6944
   19SAPC  H11X 2525   4.294   4.971   9.085  0.8963 -0.2233  0.5709
   19SAPC  H11Y 2526   4.430   5.050   8.999 -0.1226 -1.2804 -0.9322
   19SAPC  C312 2527   4.238   5.132   8.946  0.4319  0.1763 -0.3185
   19SAPC  H12X 2528   4.237   5.083   8.846  2.7557 -0.7870  0.0937
   19SAPC  H12Y 2529   4.290   5.228   8.927  1.9842 -1.1479 -3.1061
   19SAPC  C313 2530   4.088   5.160   8.991 -0.0969  0.3391  0.1197
   19SAPC  H13X 2531   4.074   5.214   9.088 -0.5570  1.4726 -0.5755
   19SAPC  H13Y 2532   4.041   5.061   9.008 -0.4592  0.3180 -0.9812
   19SAPC  C314 2533   4.006   5.208   8.867  0.2242 -0.2975  0.5463
   19SAPC  H14X 2534   4.026   5.139   8.783  1.1766 -2.1846  2.3029
   19SAPC  H14Y 2535   4.044   5.311   8.846  0.8417 -0.6506 -0.0581
   19SAPC  C315 2536   3.855   5.215   8.892 -0.5001  0.1579  0.0164
   19SAPC  H15X 2537   3.839   5.278   8.983  1.7369  1.3526 -0.3720
   19SAPC  H15Y 2538   3.810   5.116   8.911 -1.9401  0.5679 -1.2156
   19SAPC  C316 2539   3.783   5.293   8.780 -0.6118 -0.6169 -1.0973
   19SAPC  H16X 2540   3.844   5.379   8.747 -2.2287  0.9849  0.0091
   19SAPC  H16Y 2541   3.686   5.334   8.816 -0.4212  0.4641 -1.7994
   19SAPC  C317 2542   3.740   5.192   8.673 -0.9994  0.1454  0.1196
   19SAPC  H17X 2543   3.673   5.117   8.721  0.3320 -0.9378  0.3361
   19SAPC  H17Y 2544   3.838   5.142   8.656 -0.2305  1.5117  0.4617
   19SAPC  C318 2545   3.676   5.248   8.551 -0.7051  0.1681 -0.4278
   19SAPC  H18X 2546   3.571   5.278   8.572 -0.2624  2.7624 -1.6353
   19SAPC  H18Y 2547   3.666   5.181   8.463  0.1550 -0.2247 -0.2250
   19SAPC  H18Z 2548   3.727   5.346   8.534 -1.1118  0.9506  2.5807
   20SAPC     N 2549   3.629   2.333  11.086 -0.6433  0.0448 -0.0713
   20SAPC   C12 2550   3.678   2.185  11.105 -0.7655  0.1452 -0.4175
   20SAPC  H12A 2551   3.686   2.140  11.007 -0.9484 -0.9175  0.0521
   20SAPC  H12B 2552   3.603   2.120  11.147 -0.2555 -0.4839 -0.4795
   20SAPC   C13 2553   3.512   2.325  10.992  0.2424  0.8535 -0.3749
   20SAPC  H13A 2554   3.472   2.425  10.981  0.9797  0.9997 -1.7515
   20SAPC  H13B 2555   3.538   2.287  10.895  1.8840  2.4796 -0.6079
   20SAPC  H13C 2556   3.435   2.259  11.029  0.5298  0.9998  0.4936
   20SAPC   C14 2557   3.583   2.391  11.219  0.7983  0.4958 -0.4718
   20SAPC  H14A 2558   3.564   2.497  11.213  0.4769  0.5579  1.3293
   20SAPC  H14B 2559   3.497   2.339  11.258  1.0294 -0.1678 -0.8416
   20SAPC  H14C 2560   3.651   2.366  11.298 -0.1844 -1.1911 -0.1216
   20SAPC   C15 2561   3.729   2.425  11.029  0.5703  0.4585 -1.6921
   20SAPC  H15A 2562   3.815   2.415  11.094 -2.0331  0.1616  1.8170
   20SAPC  H15B 2563   3.751   2.399  10.926 -1.7457  0.8103 -2.3120
   20SAPC  H15C 2564   3.696   2.528  11.038 -1.1832 -0.0934 -1.6214
   20SAPC   C11 2565   3.807   2.161  11.194  0.0171  0.1229 -0.5419
   20SAPC  H11A 2566   3.805   2.050  11.203 -1.9076  0.3388  2.0251
   20SAPC  H11B 2567   3.790   2.203  11.295  1.5015  0.4339 -0.4166
   20SAPC     P 2568   3.976   2.120  11.015 -0.1411 -0.3190  0.1022
   20SAPC   O13 2569   4.091   2.186  10.954  0.1885 -0.4021  0.1532
   20SAPC   O14 2570   4.005   1.987  11.070  0.4161  0.7105  0.1134
   20SAPC   O12 2571   3.930   2.207  11.136 -0.0578  0.0705  0.1547
   20SAPC   O11 2572   3.857   2.111  10.913  0.0835 -0.4425 -0.6064
   20SAPC    C1 2573   3.804   1.981  10.878 -0.2376  0.1787 -0.1245
   20SAPC    HA 2574   3.816   1.897  10.950 -2.3933 -0.7038 -0.7462
   20SAPC    HB 2575   3.693   1.984  10.869 -0.3241  0.6738  1.0258
   20SAPC    C2 2576   3.863   1.911  10.753 -0.7135 -0.3639  0.3603
   20SAPC    HS 2577   3.966   1.879  10.781 -0.6629 -1.5900 -1.1538
   20SAPC   O21 2578   3.861   2.004  10.647  0.5960  0.2899 -0.3778
   20SAPC   C21 2579   3.943   1.976  10.550 -0.2957 -0.0229  0.2449
   20SAPC   O22 2580   4.023   1.882  10.537  0.0284  0.7633 -0.2241
   20SAPC   C22 2581   3.938   2.097  10.458  0.5293  0.6346 -0.1440
   20SAPC   H2R 2582   3.836   2.140  10.449 -0.4497 -1.1393  2.0692
   20SAPC   H2S 2583   3.999   2.174  10.510 -1.4560  0.5427  2.3760
   20SAPC    C3 2584   3.774   1.781  10.717 -0.2156 -0.0389  0.6423
   20SAPC    HX 2585   3.665   1.785  10.737 -0.1779  0.0266  0.8384
   20SAPC    HY 2586   3.816   1.706  10.786 -0.9304 -2.8406 -1.8673
   20SAPC   O31 2587   3.790   1.734  10.577 -0.1337 -0.3817 -0.0921
   20SAPC   C31 2588   3.875   1.635  10.559  0.0469 -0.8876 -0.1306
   20SAPC   O32 2589   3.963   1.606  10.643  0.2552  0.4732  0.2476
   20SAPC   C32 2590   3.861   1.569  10.419  0.1785  0.5040 -1.0513
   20SAPC   H2X 2591   3.791   1.611  10.344 -2.8727  0.8938  1.8681
   20SAPC   H2Y 2592   3.814   1.469  10.433  0.2755  0.6553  0.4484
   20SAPC   C23 2593   4.001   2.083  10.313 -0.0354 -0.0856  0.0478
   20SAPC   H3R 2594   4.105   2.052  10.336  0.2058  1.2249  0.7907
   20SAPC   H3S 2595   4.013   2.187  10.277  0.0197 -0.4388 -0.9760
   20SAPC   C24 2596   3.928   1.981  10.221  0.6753  0.1308  0.6770
   20SAPC   H4R 2597   3.949   1.875  10.245  1.2935 -0.4167 -2.2017
   20SAPC   H4S 2598   3.965   1.991  10.117 -2.8202 -2.2803 -0.8713
   20SAPC   C25 2599   3.784   2.007  10.224  0.7624  0.2293 -0.3422
   20SAPC   H5R 2600   3.737   1.981  10.320  1.6091  1.0401  0.3014
   20SAPC   C26 2601   3.714   2.062  10.125  0.2872 -0.3674 -0.7250
   20SAPC   H6R 2602   3.606   2.080  10.131  0.5846  0.8703  1.2005
   20SAPC   C27 2603   3.771   2.094   9.988  0.0136  0.2540 -0.6803
   20SAPC   H7R 2604   3.682   2.097   9.921  0.4479 -0.0207 -1.2684
   20SAPC   H7S 2605   3.843   2.018   9.952  0.4261 -0.9100  2.4357
   20SAPC   C28 2606   3.835   2.231   9.976  0.3419 -0.2866  0.1788
   20SAPC   H8R 2607   3.856   2.282  10.071  2.1388 -0.9483  0.1598
   20SAPC   C29 2608   3.898   2.280   9.870  0.0852 -0.5001  1.3174
   20SAPC   H9R 2609   3.947   2.378   9.877  0.2400 -0.3605 -1.1750
   20SAPC  C210 2610   3.908   2.219   9.731  0.2046 -0.1535  0.2233
   20SAPC  H10R 2611   3.860   2.119   9.728 -1.2132  0.5099  0.5119
   20SAPC  H10S 2612   4.015   2.194   9.711  0.2876  1.0980 -1.0003
   20SAPC  C211 2613   3.845   2.312   9.631  0.0279 -0.5502 -0.0277
   20SAPC  H11R 2614   3.764   2.381   9.657 -0.0225 -1.1988  1.5658
   20SAPC  C212 2615   3.882   2.325   9.504 -0.2951  0.6574  1.2400
   20SAPC  H12R 2616   3.801   2.375   9.448  1.1769  0.5446 -1.0566
   20SAPC  C213 2617   3.994   2.243   9.432 -0.1049 -0.1436  0.1868
   20SAPC  H13R 2618   4.045   2.171   9.500 -1.1681  1.6788  3.0137
   20SAPC  H13S 2619   4.074   2.318   9.417 -0.5346  0.8431  2.5829
   20SAPC  C214 2620   3.944   2.184   9.303  0.1345  0.2093  0.7223
   20SAPC  H14R 2621   3.835   2.167   9.307  0.0390  0.8789  1.1076
   20SAPC  C215 2622   4.005   2.140   9.194 -0.3674  0.5522 -1.1273
   20SAPC  H15R 2623   3.945   2.109   9.107 -0.4571 -1.5930 -0.3270
   20SAPC  C216 2624   4.154   2.125   9.182 -0.0385  0.8077  0.3489
   20SAPC  H16R 2625   4.154   2.022   9.142  0.4842  0.5968  0.8797
   20SAPC  H16S 2626   4.207   2.113   9.280 -0.1583 -1.2781  0.1763
   20SAPC  C217 2627   4.226   2.217   9.091 -0.6153 -0.2016 -0.8398
   20SAPC  H17R 2628   4.335   2.212   9.066  0.3287 -0.2543  3.0119
   20SAPC  H17S 2629   4.210   2.319   9.131  3.1895  0.4416 -0.7056
   20SAPC  C218 2630   4.179   2.225   8.939  0.7168  0.4344 -0.0732
   20SAPC  H18R 2631   4.230   2.303   8.878  0.0307 -1.2918 -2.9577
   20SAPC  H18S 2632   4.072   2.251   8.947 -0.1042 -2.7534 -0.0666
   20SAPC  C219 2633   4.214   2.099   8.856  0.8985  0.0847  0.0051
   20SAPC  H19R 2634   4.181   2.118   8.752 -0.4878 -0.7824  0.2809
   20SAPC  H19S 2635   4.157   2.008   8.883  1.4892 -0.4818 -0.6109
   20SAPC  C220 2636   4.365   2.061   8.864  0.1681  0.5455 -0.1692
   20SAPC  H20R 2637   4.379   1.989   8.947  0.6582  2.2790  1.2922
   20SAPC  H20S 2638   4.435   2.145   8.883 -1.1408  1.4882  0.5093
   20SAPC  H20T 2639   4.392   2.023   8.763  2.4511 -0.9655  0.9744
   20SAPC   C33 2640   4.005   1.549  10.364 -0.5617  0.5213  0.3497
   20SAPC   H3X 2641   4.079   1.524  10.442  1.0966 -3.0789 -2.2250
   20SAPC   H3Y 2642   4.030   1.646  10.316  1.0323 -0.8867 -1.7697
   20SAPC   C34 2643   4.001   1.437  10.248  0.0570  0.1523 -0.6879
   20SAPC   H4X 2644   3.920   1.469  10.179  0.2090 -2.8702 -2.3749
   20SAPC   H4Y 2645   3.961   1.345  10.297 -1.4411  0.8480 -0.5677
   20SAPC   C35 2646   4.130   1.420  10.174 -0.5793  0.1157 -0.2401
   20SAPC   H5X 2647   4.101   1.328  10.120 -1.5490 -0.8909  1.9054
   20SAPC   H5Y 2648   4.211   1.392  10.245 -1.1548 -1.3431 -0.1415
   20SAPC   C36 2649   4.170   1.531  10.075 -0.0733  0.8043 -0.5272
   20SAPC   H6X 2650   4.255   1.493  10.015 -0.6501 -2.3283  0.5102
   20SAPC   H6Y 2651   4.194   1.628  10.123 -1.0806  1.1120 -0.6238
   20SAPC   C37 2652   4.064   1.553   9.966  0.6299  0.4554  0.0197
   20SAPC   H7X 2653   3.980   1.614  10.005  0.2704 -0.0890  0.0893
   20SAPC   H7Y 2654   4.036   1.458   9.915 -0.4569  1.6539 -1.6730
   20SAPC   C38 2655   4.124   1.632   9.847  0.1432  0.0184 -0.0812
   20SAPC   H8X 2656   4.062   1.623   9.756  0.7994  2.2028 -0.7926
   20SAPC   H8Y 2657   4.207   1.568   9.811  1.4771  1.3874  0.4821
   20SAPC   C39 2658   4.167   1.774   9.868 -0.0971 -0.1430 -0.3331
   20SAPC   H9X 2659   4.254   1.775   9.937  0.7133  3.1046 -1.3156
   20SAPC   H9Y 2660   4.075   1.817   9.913  1.9680  1.4464  2.5519
   20SAPC  C310 2661   4.215   1.843   9.736  0.3064  0.0134  0.6071
   20SAPC  H10X 2662   4.140   1.850   9.655  0.4124  0.3778  0.5403
   20SAPC  H10Y 2663   4.305   1.786   9.706  1.0601 -0.2065  3.1303
   20SAPC  C311 2664   4.262   1.991   9.774 -0.0146  0.5347  0.0203
   20SAPC  H11X 2665   4.318   1.985   9.869 -0.2021  1.7989  0.2192
   20SAPC  H11Y 2666   4.171   2.046   9.805 -0.3995 -0.4516  0.6772
   20SAPC  C312 2667   4.329   2.056   9.660  0.1279 -0.2587 -0.1109
   20SAPC  H12X 2668   4.346   2.162   9.689 -0.3549 -0.8432  2.4157
   20SAPC  H12Y 2669   4.270   2.047   9.567  0.1698 -1.7014 -0.0140
   20SAPC  C313 2670   4.480   2.010   9.631  0.2526 -0.2886 -0.7950
   20SAPC  H13X 2671   4.483   1.914   9.576  3.9154 -0.8659  0.2774
   20SAPC  H13Y 2672   4.519   1.984   9.732  0.2786 -2.1562 -1.2651
   20SAPC  C314 2673   4.558   2.109   9.548  0.3517  0.0868  0.2181
   20SAPC  H14X 2674   4.491   2.145   9.466  1.2649  1.1313 -0.0763
   20SAPC  H14Y 2675   4.643   2.055   9.500  0.0054 -0.6771  0.4552
   20SAPC  C315 2676   4.628   2.222   9.627 -0.3264  0.6249  0.2706
   20SAPC  H15X 2677   4.675   2.178   9.718 -2.4912 -0.1985  1.0116
   20SAPC  H15Y 2678   4.548   2.292   9.659  0.0280  1.2255 -0.1476
   20SAPC  C316 2679   4.744   2.291   9.559 -0.1616 -0.5726  0.9522
   20SAPC  H16X 2680   4.814   2.223   9.506 -1.4011 -1.2318  0.1400
   20SAPC  H16Y 2681   4.812   2.331   9.637 -0.8470  1.5466  0.5006
   20SAPC  C317 2682   4.721   2.403   9.456 -0.1083 -0.3985 -0.0818
   20SAPC  H17X 2683   4.820   2.441   9.424 -0.7097  0.2741 -1.1750
   20SAPC  H17Y 2684   4.669   2.491   9.501  1.0575 -0.2033  0.9303
   20SAPC  C318 2685   4.639   2.360   9.336  0.2614 -0.0697  0.0708
   20SAPC  H18X 2686   4.535   2.347   9.373  0.6317  0.7501  1.4354
   20SAPC  H18Y 2687   4.691   2.276   9.285 -0.7952  0.5257 -2.0523
   20SAPC  H18Z 2688   4.643   2.446   9.266  1.5419 -0.3729 -0.2527
   21SAPC     N 2689   4.079   6.468  10.652 -0.0271 -0.2413 -0.1316
   21SAPC   C12 2690   4.114   6.555  10.537  0.2212  0.2481 -0.2953
   21SAPC  H12A 2691   4.087   6.497  10.451 -1.4813 -0.4795  0.7072
   21SAPC  H12B 2692   4.220   6.573  10.542  0.3997 -1.0667  0.8955
   21SAPC   C13 2693   3.932   6.445  10.662 -0.2123  0.3586 -0.1838
   21SAPC  H13A 2694   3.914   6.411  10.763 -3.1545 -1.0450 -1.1114
   21SAPC  H13B 2695   3.878   6.533  10.633  1.0960  1.3923  0.4488
   21SAPC  H13C 2696   3.896   6.363  10.602 -0.2418  0.0831  0.2103
   21SAPC   C14 2697   4.147   6.337  10.647 -0.2613  0.2470  0.0450
   21SAPC  H14A 2698   4.153   6.287  10.742 -1.2115 -0.7298 -0.3985
   21SAPC  H14B 2699   4.117   6.267  10.571  3.3971 -1.4217 -0.0096
   21SAPC  H14C 2700   4.253   6.349  10.626  0.3432 -1.8723  1.6994
   21SAPC   C15 2701   4.131   6.540  10.775 -0.5744 -0.1478 -0.4525
   21SAPC  H15A 2702   4.108   6.645  10.762 -0.4409 -0.2498 -1.5041
   21SAPC  H15B 2703   4.087   6.503  10.866 -1.0645 -2.5170 -1.6262
   21SAPC  H15C 2704   4.238   6.534  10.763 -0.3541  1.7531  0.3238
   21SAPC   C11 2705   4.042   6.688  10.526 -0.0170  0.7236  0.0052
   21SAPC  H11A 2706   3.934   6.662  10.537 -0.1512  0.9684 -0.6635
   21SAPC  H11B 2707   4.049   6.738  10.427 -0.7566  0.9460  0.0611
   21SAPC     P 2708   4.207   6.876  10.625  0.1125  0.1118  0.2574
   21SAPC   O13 2709   4.242   6.936  10.754 -0.6224 -0.4568 -0.1299
   21SAPC   O14 2710   4.305   6.806  10.547 -0.1616  0.1035  0.2208
   21SAPC   O12 2711   4.080   6.782  10.627  0.2047 -0.8845 -0.2036
   21SAPC   O11 2712   4.158   6.997  10.544 -0.4301  0.2408 -0.0418
   21SAPC    C1 2713   4.039   7.075  10.571 -0.0578 -0.3992 -0.7533
   21SAPC    HA 2714   3.948   7.012  10.563  1.1168 -2.3388  0.5760
   21SAPC    HB 2715   4.042   7.113  10.676  0.4954  0.0116 -0.9143
   21SAPC    C2 2716   4.013   7.180  10.457 -0.5357 -0.5235  0.2201
   21SAPC    HS 2717   3.904   7.203  10.455 -0.7027 -1.3818 -0.7681
   21SAPC   O21 2718   4.068   7.145  10.325 -0.3374 -0.0363  0.1275
   21SAPC   C21 2719   4.012   7.050  10.271  0.1467  0.3124 -0.1180
   21SAPC   O22 2720   3.906   7.002  10.305 -0.7634  0.2747  0.6121
   21SAPC   C22 2721   4.086   7.027  10.137  1.0749 -0.0538 -0.1237
   21SAPC   H2R 2722   4.189   7.067  10.152  0.5774  1.1598  0.0363
   21SAPC   H2S 2723   4.091   6.916  10.143  3.0376  0.0215  0.0611
   21SAPC    C3 2724   4.078   7.311  10.513  0.3131 -0.6231  1.1455
   21SAPC    HX 2725   4.188   7.295  10.515  0.4967  0.5273  0.3976
   21SAPC    HY 2726   4.032   7.330  10.612  0.3077  1.0014  0.8400
   21SAPC   O31 2727   4.044   7.421  10.427  0.6015  0.0150 -0.0163
   21SAPC   C31 2728   4.144   7.484  10.358  0.3910  0.0305 -0.1796
   21SAPC   O32 2729   4.258   7.444  10.350  0.2494  0.0333  0.5782
   21SAPC   C32 2730   4.079   7.607  10.289  0.1227 -0.7425 -0.0941
   21SAPC   H2X 2731   4.127   7.699  10.328 -0.8949  0.0021 -0.5854
   21SAPC   H2Y 2732   3.970   7.621  10.309 -0.0372 -2.1684  0.0868
   21SAPC   C23 2733   4.021   7.096  10.014  0.2391 -0.5964  0.1490
   21SAPC   H3R 2734   4.022   7.204  10.039  1.5715 -0.1554 -1.6336
   21SAPC   H3S 2735   3.913   7.073  10.003  0.4018 -0.4863 -1.9036
   21SAPC   C24 2736   4.099   7.104   9.877 -0.7119 -0.6944 -0.2405
   21SAPC   H4R 2737   4.204   7.136   9.896 -0.9738 -1.2635  2.3885
   21SAPC   H4S 2738   4.038   7.173   9.815  1.3959  0.6350 -0.8972
   21SAPC   C25 2739   4.104   6.971   9.817 -0.3720 -0.9472 -0.1387
   21SAPC   H5R 2740   4.171   6.899   9.865 -0.4465 -2.4285 -2.1966
   21SAPC   C26 2741   4.052   6.936   9.694  0.1275  0.3567 -0.6275
   21SAPC   H6R 2742   4.069   6.835   9.653  1.1372  0.7236 -1.1067
   21SAPC   C27 2743   3.976   7.027   9.602 -1.3181  0.3151  0.8435
   21SAPC   H7R 2744   3.924   7.104   9.663 -1.0310  1.2125 -0.0447
   21SAPC   H7S 2745   3.897   6.966   9.552 -0.3294  1.4705 -2.2180
   21SAPC   C28 2746   4.059   7.098   9.507 -0.6267 -0.3106 -0.2841
   21SAPC   H8R 2747   4.143   7.156   9.548 -1.9856  0.7913  0.9784
   21SAPC   C29 2748   4.034   7.108   9.378  0.3373  0.0070  1.0844
   21SAPC   H9R 2749   4.099   7.182   9.329 -0.0199 -0.7968 -0.6678
   21SAPC  C210 2750   3.921   7.047   9.293 -0.5290 -0.1955 -0.0102
   21SAPC  H10R 2751   3.887   7.121   9.218 -0.3650  2.8698  2.8193
   21SAPC  H10S 2752   3.826   7.036   9.350  1.1507 -0.2711  2.8671
   21SAPC  C211 2753   3.975   6.922   9.226 -0.0537  0.6877 -0.3421
   21SAPC  H11R 2754   3.989   6.838   9.295 -2.3098  0.4167 -0.1789
   21SAPC  C212 2755   4.006   6.909   9.100 -0.4103  0.2437  0.6626
   21SAPC  H12R 2756   4.032   6.806   9.071 -1.9219 -0.5118  1.9227
   21SAPC  C213 2757   3.989   7.010   8.992  0.0368 -0.2410 -0.0387
   21SAPC  H13R 2758   4.081   7.071   8.981  0.9993 -1.1510  2.5551
   21SAPC  H13S 2759   3.918   7.092   9.015  0.0701 -0.3399  0.4164
   21SAPC  C214 2760   3.934   6.958   8.864  0.1553  0.3121 -1.0088
   21SAPC  H14R 2761   3.872   6.867   8.866  0.9551 -0.2622 -2.0216
   21SAPC  C215 2762   3.966   7.008   8.741  0.2517  0.1901 -0.2228
   21SAPC  H15R 2763   3.919   6.965   8.651  0.4271 -2.5446  0.9252
   21SAPC  C216 2764   4.053   7.137   8.728 -0.5979 -0.0146  0.3105
   21SAPC  H16R 2765   4.154   7.098   8.751 -0.9634 -0.9733  0.2903
   21SAPC  H16S 2766   4.033   7.210   8.809 -0.2672 -0.3801  0.7206
   21SAPC  C217 2767   4.044   7.206   8.591  0.0122 -0.1750 -0.5034
   21SAPC  H17R 2768   4.114   7.292   8.591  2.0121 -1.7746 -1.0259
   21SAPC  H17S 2769   3.946   7.257   8.572  0.3432  1.6781  2.4761
   21SAPC  C218 2770   4.076   7.114   8.476  0.1959  0.0416 -0.4100
   21SAPC  H18R 2771   3.991   7.047   8.455 -0.1309  0.7212 -1.3182
   21SAPC  H18S 2772   4.157   7.051   8.519 -0.5503 -1.6237 -1.4047
   21SAPC  C219 2773   4.128   7.174   8.348  0.9698 -0.6996  0.1121
   21SAPC  H19R 2774   4.201   7.254   8.371 -0.5043  0.8515 -0.4880
   21SAPC  H19S 2775   4.045   7.208   8.282 -1.0185 -2.3627  1.6369
   21SAPC  C220 2776   4.203   7.068   8.262  0.4903  0.3448  1.2163
   21SAPC  H20R 2777   4.146   6.977   8.233  0.1891  0.6366  0.8904
   21SAPC  H20S 2778   4.293   7.032   8.316  1.2399 -0.3100 -0.3958
   21SAPC  H20T 2779   4.236   7.112   8.165  2.4836 -0.2131  1.6134
   21SAPC   C33 2780   4.091   7.585  10.136 -0.0037 -0.3541 -0.3525
   21SAPC   H3X 2781   4.035   7.495  10.103 -0.2785 -0.2164 -0.2618
   21SAPC   H3Y 2782   4.196   7.566  10.106  0.6058  0.0235  1.4744
   21SAPC   C34 2783   4.026   7.695  10.046 -0.3270 -0.1617 -0.0445
   21SAPC   H4X 2784   4.068   7.798  10.057  0.0281 -0.5925  3.0273
   21SAPC   H4Y 2785   3.919   7.700  10.076 -0.8188 -0.3003 -1.7068
   21SAPC   C35 2786   4.032   7.660   9.893 -0.0474  0.0080 -0.3047
   21SAPC   H5X 2787   4.133   7.621   9.869 -0.2679 -0.5354 -0.3638
   21SAPC   H5Y 2788   4.027   7.753   9.832  0.0578 -1.4977 -2.6630
   21SAPC   C36 2789   3.911   7.582   9.846 -0.1538 -0.6671 -0.2016
   21SAPC   H6X 2790   3.823   7.649   9.852 -0.7917 -1.5496  0.4202
   21SAPC   H6Y 2791   3.883   7.500   9.916 -0.7128  0.8535  1.3879
   21SAPC   C37 2792   3.905   7.518   9.707 -0.7280 -0.2017  0.1604
   21SAPC   H7X 2793   3.815   7.456   9.690 -0.5360 -0.0639 -1.4477
   21SAPC   H7Y 2794   3.993   7.450   9.698  1.2167  2.1273  1.0833
   21SAPC   C38 2795   3.909   7.618   9.596 -0.4403 -0.5337  0.0010
   21SAPC   H8X 2796   3.990   7.691   9.615 -0.3750 -0.7217  0.4519
   21SAPC   H8Y 2797   3.821   7.684   9.588  1.1287  1.4829 -1.0572
   21SAPC   C39 2798   3.953   7.550   9.457 -0.0851 -0.2478 -0.2448
   21SAPC   H9X 2799   3.896   7.458   9.435 -1.1863  0.5699 -0.8856
   21SAPC   H9Y 2800   4.061   7.526   9.454 -0.3788 -1.4770 -2.2893
   21SAPC  C310 2801   3.913   7.646   9.338  0.4351  0.6738  0.1515
   21SAPC  H10X 2802   3.975   7.623   9.249  1.1411 -0.7632  0.9870
   21SAPC  H10Y 2803   3.960   7.740   9.374 -0.1357  0.6869  0.8772
   21SAPC  C311 2804   3.770   7.660   9.309  0.4653 -0.3005  0.4085
   21SAPC  H11X 2805   3.716   7.725   9.381  0.6183 -0.6425  0.8255
   21SAPC  H11Y 2806   3.721   7.561   9.321 -1.1605  0.1712 -1.8906
   21SAPC  C312 2807   3.749   7.702   9.160 -0.2502 -0.1773  0.3540
   21SAPC  H12X 2808   3.811   7.632   9.101 -1.2719  1.0031 -2.1825
   21SAPC  H12Y 2809   3.793   7.799   9.130 -0.4240 -0.7450 -1.7857
   21SAPC  C313 2810   3.606   7.678   9.102 -0.2608 -1.0730 -0.4708
   21SAPC  H13X 2811   3.531   7.720   9.172  1.4402 -0.7531  1.2005
   21SAPC  H13Y 2812   3.577   7.571   9.102 -2.2052 -0.5830  1.2655
   21SAPC  C314 2813   3.601   7.744   8.963 -0.1401  0.1447 -0.4680
   21SAPC  H14X 2814   3.664   7.680   8.898  0.2914 -2.3339  2.2741
   21SAPC  H14Y 2815   3.625   7.853   8.968  3.1279 -0.5259 -0.4644
   21SAPC  C315 2816   3.465   7.745   8.889  0.9262  0.1452  0.2540
   21SAPC  H15X 2817   3.469   7.776   8.782  1.3956  1.8555  0.7470
   21SAPC  H15Y 2818   3.415   7.820   8.954  1.8419  1.6496 -0.7623
   21SAPC  C316 2819   3.384   7.612   8.894  0.6005  0.3429 -0.2733
   21SAPC  H16X 2820   3.354   7.582   8.996  2.9943 -0.0735  0.3234
   21SAPC  H16Y 2821   3.455   7.528   8.878 -1.0762 -1.3179  0.7906
   21SAPC  C317 2822   3.258   7.594   8.797  0.2878 -0.1579 -0.1799
   21SAPC  H17X 2823   3.229   7.486   8.796  0.3480 -0.1649 -1.6235
   21SAPC  H17Y 2824   3.297   7.608   8.694  0.4712 -0.0026 -0.0904
   21SAPC  C318 2825   3.150   7.696   8.831 -0.3202  0.8213  0.1111
   21SAPC  H18X 2826   3.190   7.795   8.804 -0.5792  0.2612 -2.3957
   21SAPC  H18Y 2827   3.117   7.693   8.938 -2.0749 -0.2141 -0.4286
   21SAPC  H18Z 2828   3.065   7.681   8.762  2.1268  1.4449 -3.1210
   22SAPC     N 2829   3.817   4.986  10.931 -0.0116  0.1628  0.1844
   22SAPC   C12 2830   3.725   4.923  10.833 -0.1114 -0.5605  0.3187
   22SAPC  H12A 2831   3.707   4.824  10.872 -0.0314 -0.3459  0.8940
   22SAPC  H12B 2832   3.783   4.924  10.742 -1.1322  1.2365 -0.3431
   22SAPC   C13 2833   3.740   4.987  11.056  0.2655 -0.2541 -0.8330
   22SAPC  H13A 2834   3.802   5.015  11.140  1.0137  0.5181 -1.6368
   22SAPC  H13B 2835   3.671   5.071  11.055  1.0309  0.4008  0.1664
   22SAPC  H13C 2836   3.693   4.891  11.074  0.8600  0.0583  2.8494
   22SAPC   C14 2837   3.940   4.903  10.954 -0.2910 -0.0686 -0.2173
   22SAPC  H14A 2838   4.002   4.898  10.866 -0.9953 -1.2105 -0.6608
   22SAPC  H14B 2839   3.989   4.952  11.037  0.3231  2.5294 -2.0371
   22SAPC  H14C 2840   3.905   4.804  10.980  1.1490 -0.6180 -0.3727
   22SAPC   C15 2841   3.865   5.124  10.894  0.4711 -0.4628  0.0332
   22SAPC  H15A 2842   3.928   5.117  10.807  0.6682 -0.1762  0.1515
   22SAPC  H15B 2843   3.786   5.193  10.866  1.0577  0.5909  0.9275
   22SAPC  H15C 2844   3.908   5.170  10.982  0.5389  0.2120 -0.3497
   22SAPC   C11 2845   3.597   4.997  10.815 -0.0115  0.4802  0.8657
   22SAPC  H11A 2846   3.616   5.096  10.767  0.8878 -0.1383 -0.0745
   22SAPC  H11B 2847   3.546   5.025  10.909  0.4174  2.0778  0.6442
   22SAPC     P 2848   3.369   4.868  10.773  0.1286  0.4554 -0.5517
   22SAPC   O13 2849   3.364   4.721  10.793  0.0381 -0.3385 -0.6356
   22SAPC   O14 2850   3.310   4.951  10.877 -0.0756 -0.0907 -0.0671
   22SAPC   O12 2851   3.516   4.913  10.732  0.2213  0.2998  0.6063
   22SAPC   O11 2852   3.301   4.895  10.637  0.0114 -0.3706 -0.3021
   22SAPC    C1 2853   3.303   5.021  10.571 -0.6915 -0.8260 -0.2922
   22SAPC    HA 2854   3.197   5.053  10.567  0.3471  2.7493 -1.1691
   22SAPC    HB 2855   3.363   5.101  10.618  0.2034 -0.8197 -1.3884
   22SAPC    C2 2856   3.352   5.018  10.426  0.2598  0.1880 -0.4259
   22SAPC    HS 2857   3.365   5.125  10.398  2.3442  0.4397  1.3990
   22SAPC   O21 2858   3.246   4.956  10.341  0.1232 -0.5042 -0.5205
   22SAPC   C21 2859   3.243   4.983  10.212 -0.0991 -0.6211 -0.0786
   22SAPC   O22 2860   3.320   5.059  10.151  0.1462 -0.3659 -0.2872
   22SAPC   C22 2861   3.128   4.910  10.144 -0.2059  0.0484  0.3351
   22SAPC   H2R 2862   3.130   4.800  10.161  2.2259  0.4415  3.0519
   22SAPC   H2S 2863   3.033   4.938  10.195 -0.9244  1.4744 -1.7528
   22SAPC    C3 2864   3.485   4.936  10.416 -0.4317 -0.2347  0.1946
   22SAPC    HX 2865   3.474   4.828  10.436 -0.0402  0.1718  2.7923
   22SAPC    HY 2866   3.556   4.980  10.490 -1.5083  2.7772 -0.4678
   22SAPC   O31 2867   3.557   4.949  10.295  0.8001 -0.2349 -0.0864
   22SAPC   C31 2868   3.614   5.061  10.243  0.1548 -0.0789 -0.0631
   22SAPC   O32 2869   3.618   5.171  10.296 -0.1445  0.4505  0.1710
   22SAPC   C32 2870   3.642   5.038  10.093  0.1780  0.4132  0.3427
   22SAPC   H2X 2871   3.603   4.934  10.081 -1.0623  0.8503  0.5624
   22SAPC   H2Y 2872   3.751   5.027  10.074  0.1031 -0.8358  0.5946
   22SAPC   C23 2873   3.119   4.918   9.984  0.0987  0.0493 -0.0071
   22SAPC   H3R 2874   3.122   4.812   9.952  1.0974  0.2813 -0.6951
   22SAPC   H3S 2875   3.208   4.960   9.933 -1.3915 -1.3341 -3.9158
   22SAPC   C24 2876   2.994   4.994   9.939  0.9309  0.6079  0.0112
   22SAPC   H4R 2877   2.993   5.091   9.992  1.4688 -0.4708  2.0436
   22SAPC   H4S 2878   2.908   4.938   9.979  0.7516  2.0515  1.6790
   22SAPC   C25 2879   2.980   4.995   9.788  0.5225 -0.1390 -0.2235
   22SAPC   H5R 2880   2.963   4.896   9.742  1.0055 -0.8544  1.1085
   22SAPC   C26 2881   3.009   5.098   9.702 -0.3432 -0.5210  0.1602
   22SAPC   H6R 2882   2.996   5.078   9.595  0.8977  2.1483 -0.5139
   22SAPC   C27 2883   3.045   5.243   9.748 -0.0861 -0.2605 -0.4375
   22SAPC   H7R 2884   3.042   5.253   9.859  0.3248 -0.6836 -0.3874
   22SAPC   H7S 2885   2.979   5.324   9.710  0.2860  1.3152  2.1336
   22SAPC   C28 2886   3.189   5.276   9.722  0.2450  0.1089  0.9830
   22SAPC   H8R 2887   3.252   5.247   9.807  0.5239 -0.5352  0.5647
   22SAPC   C29 2888   3.241   5.331   9.608 -0.2241 -0.7659  0.0998
   22SAPC   H9R 2889   3.350   5.344   9.614 -0.3552 -0.5592  2.7529
   22SAPC  C210 2890   3.172   5.376   9.480  0.2095 -0.1570  0.0898
   22SAPC  H10R 2891   3.062   5.386   9.483  0.0290 -2.1734  0.5529
   22SAPC  H10S 2892   3.193   5.294   9.408 -2.0558  0.0584 -0.8586
   22SAPC  C211 2893   3.224   5.510   9.445  0.2656 -0.1637  0.1249
   22SAPC  H11R 2894   3.219   5.575   9.533 -2.6729  0.8974 -0.7403
   22SAPC  C212 2895   3.281   5.544   9.328  0.2417 -0.1407 -0.4305
   22SAPC  H12R 2896   3.320   5.647   9.318  2.4204 -1.1690 -3.3870
   22SAPC  C213 2897   3.294   5.461   9.204 -1.2441  0.2621  0.4821
   22SAPC  H13R 2898   3.211   5.388   9.199 -2.0282  1.2151 -0.7687
   22SAPC  H13S 2899   3.391   5.409   9.194  0.1928  3.2484 -2.0284
   22SAPC  C214 2900   3.300   5.557   9.088  0.0970 -0.8257 -0.2416
   22SAPC  H14R 2901   3.279   5.664   9.099  0.6310 -0.6339 -1.0453
   22SAPC  C215 2902   3.308   5.513   8.962 -0.5958  0.3393 -0.4340
   22SAPC  H15R 2903   3.321   5.580   8.876  1.4395 -1.1452 -1.3169
   22SAPC  C216 2904   3.313   5.362   8.935  0.0336  0.4073  0.8660
   22SAPC  H16R 2905   3.213   5.316   8.949  0.9060 -1.5677  0.7746
   22SAPC  H16S 2906   3.385   5.312   9.003 -0.9499  0.1292  1.7142
   22SAPC  C217 2907   3.356   5.341   8.795 -0.1924 -0.6345 -0.9465
   22SAPC  H17R 2908   3.461   5.377   8.788 -0.2270 -0.7459 -2.2625
   22SAPC  H17S 2909   3.300   5.411   8.729  1.0938  0.1715 -1.1995
   22SAPC  C218 2910   3.348   5.209   8.733  0.2389  0.9192 -0.9010
   22SAPC  H18R 2911   3.425   5.138   8.770  0.9794  2.0488 -0.2273
   22SAPC  H18S 2912   3.367   5.243   8.629 -1.6599  1.2142 -1.1595
   22SAPC  C219 2913   3.219   5.133   8.748  0.3653  0.5887  0.8340
   22SAPC  H19R 2914   3.137   5.189   8.699 -2.0113 -0.9988  2.8470
   22SAPC  H19S 2915   3.189   5.106   8.852  1.1783  3.5641  1.8965
   22SAPC  C220 2916   3.231   5.001   8.672  0.0210  0.6757  0.8882
   22SAPC  H20R 2917   3.293   4.930   8.729  1.2394 -1.3590 -2.8191
   22SAPC  H20S 2918   3.259   5.014   8.566 -0.1333 -0.9961  0.6362
   22SAPC  H20T 2919   3.133   4.950   8.657  0.8927 -0.4520 -1.0228
   22SAPC   C33 2920   3.576   5.145  10.009  0.0055  0.1438 -0.2079
   22SAPC   H3X 2921   3.638   5.236  10.007  1.5053 -0.8425  0.3846
   22SAPC   H3Y 2922   3.488   5.181  10.068 -0.6371  0.0402 -1.0963
   22SAPC   C34 2923   3.516   5.106   9.878  0.0762  0.5028 -0.0867
   22SAPC   H4X 2924   3.465   5.189   9.826 -0.1625  1.4393  1.6130
   22SAPC   H4Y 2925   3.440   5.026   9.896  0.4352  0.5355  1.6507
   22SAPC   C35 2926   3.617   5.028   9.780 -0.0048 -0.0044 -0.0826
   22SAPC   H5X 2927   3.645   4.933   9.831 -0.0650  0.4931  0.8996
   22SAPC   H5Y 2928   3.712   5.081   9.757  0.1798 -1.1458 -2.0147
   22SAPC   C36 2929   3.555   4.995   9.648  0.5451 -1.0698  0.0801
   22SAPC   H6X 2930   3.635   4.978   9.572 -0.0605 -0.2771 -0.7483
   22SAPC   H6Y 2931   3.480   5.068   9.612 -0.4330 -2.0390  0.1239
   22SAPC   C37 2932   3.462   4.872   9.647  0.0582  0.2991  0.5808
   22SAPC   H7X 2933   3.411   4.868   9.745  0.6517 -1.2114  0.8428
   22SAPC   H7Y 2934   3.505   4.771   9.632  0.2284  0.0370  2.7733
   22SAPC   C38 2935   3.359   4.882   9.539  0.5752  0.4288  0.6627
   22SAPC   H8X 2936   3.403   4.856   9.441 -0.6335  2.9089 -0.5887
   22SAPC   H8Y 2937   3.323   4.987   9.538  0.2215  0.3092 -1.8028
   22SAPC   C39 2938   3.237   4.797   9.571 -0.4462 -0.9588 -0.3597
   22SAPC   H9X 2939   3.150   4.840   9.516  0.2438  0.2453 -0.5216
   22SAPC   H9Y 2940   3.206   4.817   9.676  1.4422 -1.9775  0.4019
   22SAPC  C310 2941   3.265   4.657   9.548 -0.2155  0.2224  0.1712
   22SAPC  H10X 2942   3.211   4.589   9.618  0.9980  1.9454  2.8625
   22SAPC  H10Y 2943   3.370   4.626   9.568  0.5886  1.3542 -2.1275
   22SAPC  C311 2944   3.209   4.619   9.408 -0.3124  0.4453 -0.0431
   22SAPC  H11X 2945   3.255   4.520   9.390 -0.6694  0.3512 -0.4477
   22SAPC  H11Y 2946   3.261   4.690   9.339  1.4585 -2.1506 -1.4792
   22SAPC  C312 2947   3.060   4.612   9.381  0.7520 -1.0800  0.6267
   22SAPC  H12X 2948   3.040   4.580   9.277 -0.2751 -1.5026  0.9417
   22SAPC  H12Y 2949   3.002   4.706   9.392  0.7877 -1.1013  1.0076
   22SAPC  C313 2950   2.990   4.505   9.465 -0.7241  0.4299 -0.1140
   22SAPC  H13X 2951   2.981   4.541   9.570  3.4778  1.0830  0.0997
   22SAPC  H13Y 2952   3.054   4.417   9.484 -1.5670 -0.4720 -1.3879
   22SAPC  C314 2953   2.852   4.461   9.413 -0.2312  0.0364  0.0157
   22SAPC  H14X 2954   2.820   4.360   9.448 -0.7559 -0.1070 -0.8546
   22SAPC  H14Y 2955   2.867   4.444   9.304  1.0422 -1.2666  0.3757
   22SAPC  C315 2956   2.738   4.557   9.439 -0.3661  0.2168  0.0806
   22SAPC  H15X 2957   2.775   4.661   9.432 -0.4620  0.2928  0.6788
   22SAPC  H15Y 2958   2.712   4.541   9.545  0.6328 -2.6609 -0.0518
   22SAPC  C316 2959   2.612   4.533   9.353  0.7110  0.2662 -0.1318
   22SAPC  H16X 2960   2.535   4.611   9.366 -0.7004 -0.6415 -2.8158
   22SAPC  H16Y 2961   2.567   4.435   9.379 -0.4133  0.1197 -2.4865
   22SAPC  C317 2962   2.649   4.536   9.207  0.2138  0.2127  0.3956
   22SAPC  H17X 2963   2.556   4.539   9.145  1.1972 -1.0935 -1.2053
   22SAPC  H17Y 2964   2.690   4.438   9.175 -0.2931  0.4844 -1.1446
   22SAPC  C318 2965   2.738   4.653   9.163 -0.1193 -0.4611 -0.0186
   22SAPC  H18X 2966   2.717   4.683   9.058 -2.1073  0.0209  0.4913
   22SAPC  H18Y 2967   2.847   4.634   9.167 -0.1552 -0.7311 -0.3276
   22SAPC  H18Z 2968   2.733   4.743   9.228  0.1848 -0.4947  0.0487
   23SAPC     N 2969   4.581   0.278  10.580 -0.4306  1.2177  0.0517
   23SAPC   C12 2970   4.606   0.310  10.730  0.3859  0.3655 -0.0974
   23SAPC  H12A 2971   4.523   0.256  10.773  0.4993  0.1006 -0.2050
   23SAPC  H12B 2972   4.588   0.408  10.769 -0.2305 -0.1800  1.0098
   23SAPC   C13 2973   4.694   0.335  10.498  0.8220  0.5228  0.2518
   23SAPC  H13A 2974   4.714   0.439  10.520 -1.1523  1.4686 -2.2092
   23SAPC  H13B 2975   4.777   0.269  10.518 -1.0118 -2.0707 -0.4496
   23SAPC  H13C 2976   4.673   0.323  10.393  1.1833 -0.9877  0.3300
   23SAPC   C14 2977   4.570   0.125  10.551 -0.4302 -0.4444  0.7938
   23SAPC  H14A 2978   4.649   0.064  10.594  0.3489 -1.1955 -1.5964
   23SAPC  H14B 2979   4.478   0.078  10.581 -0.7268 -2.0239 -2.3562
   23SAPC  H14C 2980   4.582   0.109  10.445 -0.6021  0.0376  0.7011
   23SAPC   C15 2981   4.451   0.349  10.550  0.1400  0.1230  1.2958
   23SAPC  H15A 2982   4.430   0.369  10.446 -0.6108 -1.5928  1.0945
   23SAPC  H15B 2983   4.367   0.302  10.600 -0.8144  0.0878 -0.2909
   23SAPC  H15C 2984   4.455   0.451  10.584  0.0296  0.6972 -0.4008
   23SAPC   C11 2985   4.740   0.255  10.791 -0.2395  0.4579 -0.0220
   23SAPC  H11A 2986   4.752   0.287  10.897 -0.2614  0.7544 -0.1088
   23SAPC  H11B 2987   4.828   0.297  10.738  1.4432 -2.8687 -0.0173
   23SAPC     P 2988   4.875   0.022  10.740  0.1635 -0.0504 -0.1193
   23SAPC   O13 2989   4.940  -0.033  10.859 -0.6032  0.0532  0.1473
   23SAPC   O14 2990   4.828  -0.074  10.637 -0.7447 -0.3670  0.1856
   23SAPC   O12 2991   4.742   0.113  10.783 -0.1773 -0.5123  0.6155
   23SAPC   O11 2992   4.979   0.118  10.671  0.4896  0.2757  0.2011
   23SAPC    C1 2993   4.973   0.156  10.529 -0.4345  0.0843 -0.0907
   23SAPC    HA 2994   4.873   0.131  10.488 -0.6256 -0.7682  0.8931
   23SAPC    HB 2995   4.990   0.265  10.516  0.6987 -0.2751 -1.8994
   23SAPC    C2 2996   5.089   0.087  10.459  0.8354 -0.2265 -0.2321
   23SAPC    HS 2997   5.127   0.149  10.375 -0.5723  0.3396 -0.4560
   23SAPC   O21 2998   5.051  -0.047  10.414  0.9015 -0.7632 -0.3914
   23SAPC   C21 2999   5.004  -0.050  10.292 -0.0008 -0.1488  0.3826
   23SAPC   O22 3000   4.991   0.052  10.225  0.5276 -0.6183 -0.3059
   23SAPC   C22 3001   4.968  -0.193  10.252 -0.5123  0.1446  0.3649
   23SAPC   H2R 3002   4.957  -0.259  10.341 -0.5154 -1.5592 -0.8719
   23SAPC   H2S 3003   4.868  -0.184  10.204 -0.3271  0.3977  0.0288
   23SAPC    C3 3004   5.213   0.066  10.551  0.2350  0.1835  1.0072
   23SAPC    HX 3005   5.181   0.017  10.645  0.4371  0.5083  1.2424
   23SAPC    HY 3006   5.255   0.163  10.584  0.8688 -0.1094  1.0653
   23SAPC   O31 3007   5.323   0.003  10.485 -0.2500  0.2636  0.3433
   23SAPC   C31 3008   5.330  -0.131  10.474  0.0402 -0.1413  0.7876
   23SAPC   O32 3009   5.238  -0.210  10.497 -0.2623 -0.5258 -0.2436
   23SAPC   C32 3010   5.473  -0.178  10.443  0.5722 -0.0414  0.2513
   23SAPC   H2X 3011   5.497  -0.279  10.483  1.2226 -0.0469 -0.1379
   23SAPC   H2Y 3012   5.546  -0.107  10.487  0.2009  0.4771  0.0345
   23SAPC   C23 3013   5.072  -0.260  10.173 -0.3244  0.8082  0.4291
   23SAPC   H3R 3014   5.043  -0.364  10.151 -0.9830  0.8212  1.1995
   23SAPC   H3S 3015   5.164  -0.272  10.235  1.1943  1.0628 -1.7019
   23SAPC   C24 3016   5.101  -0.187  10.040  0.3613  0.0632  0.2869
   23SAPC   H4R 3017   5.130  -0.081  10.058  0.5047 -0.4552  3.4370
   23SAPC   H4S 3018   5.008  -0.194   9.980 -0.1661  0.4401  1.0485
   23SAPC   C25 3019   5.211  -0.255   9.960  0.1800 -0.6094 -0.1269
   23SAPC   H5R 3020   5.311  -0.244  10.005  0.3204 -0.4369 -0.4782
   23SAPC   C26 3021   5.207  -0.329   9.846  0.4234  0.0333  0.4262
   23SAPC   H6R 3022   5.306  -0.349   9.801 -0.5344 -1.3302 -1.1196
   23SAPC   C27 3023   5.085  -0.365   9.765  0.4202  0.6291  0.3535
   23SAPC   H7R 3024   5.015  -0.388   9.848  1.0242 -0.4591  0.5695
   23SAPC   H7S 3025   5.113  -0.451   9.701 -0.3027  1.7765 -1.5289
   23SAPC   C28 3026   5.020  -0.257   9.685  1.2495  0.0997 -0.0175
   23SAPC   H8R 3027   4.997  -0.159   9.728 -2.1771 -0.3290 -0.7269
   23SAPC   C29 3028   5.002  -0.255   9.551 -0.3916  0.3411 -0.0490
   23SAPC   H9R 3029   4.958  -0.167   9.503  1.2490  0.9143 -0.5366
   23SAPC  C210 3030   5.028  -0.369   9.453 -0.5960  0.0328  0.0777
   23SAPC  H10R 3031   4.966  -0.354   9.362  1.2613  0.6993 -1.1047
   23SAPC  H10S 3032   5.013  -0.473   9.492  1.0514  0.0397  0.7833
   23SAPC  C211 3033   5.167  -0.365   9.401 -0.9543  0.1817 -0.3941
   23SAPC  H11R 3034   5.240  -0.310   9.461 -1.0078 -0.0327 -0.1334
   23SAPC  C212 3035   5.211  -0.437   9.295 -0.2756  0.7822 -0.9118
   23SAPC  H12R 3036   5.316  -0.432   9.261  0.4795  1.1691  1.4102
   23SAPC  C213 3037   5.125  -0.536   9.217  0.1343 -0.3189  0.0760
   23SAPC  H13R 3038   5.024  -0.547   9.263  0.2546 -2.1739 -0.0625
   23SAPC  H13S 3039   5.171  -0.637   9.223  0.1434 -0.2925  0.4358
   23SAPC  C214 3040   5.115  -0.478   9.071  0.6298  0.1872  0.2110
   23SAPC  H14R 3041   5.133  -0.370   9.066  0.2368  0.2133 -0.7771
   23SAPC  C215 3042   5.118  -0.554   8.961  0.2898  0.2598  0.5998
   23SAPC  H15R 3043   5.111  -0.509   8.861  0.3467 -0.9900  0.0114
   23SAPC  C216 3044   5.132  -0.706   8.960  0.9493 -0.4474  0.8061
   23SAPC  H16R 3045   5.056  -0.754   8.895  1.8551 -0.2160 -0.4323
   23SAPC  H16S 3046   5.111  -0.743   9.063 -2.0152  0.2029  0.4875
   23SAPC  C217 3047   5.276  -0.756   8.924  0.1275  0.3093  0.2176
   23SAPC  H17R 3048   5.277  -0.867   8.920  3.8503  0.2333  1.4433
   23SAPC  H17S 3049   5.355  -0.718   8.992 -0.0823  0.3771  0.4259
   23SAPC  C218 3050   5.315  -0.727   8.773 -0.2763 -0.3751  0.0064
   23SAPC  H18R 3051   5.319  -0.619   8.746  3.2725 -0.3384  0.4243
   23SAPC  H18S 3052   5.241  -0.779   8.709 -1.1745  1.1945 -0.2421
   23SAPC  C219 3053   5.451  -0.790   8.728  0.3547 -0.1249  0.5462
   23SAPC  H19R 3054   5.452  -0.896   8.763 -0.2022 -0.9764 -1.9032
   23SAPC  H19S 3055   5.534  -0.733   8.776 -1.0279  2.0719  0.3626
   23SAPC  C220 3056   5.466  -0.788   8.576  0.8678  0.0485  0.4778
   23SAPC  H20R 3057   5.575  -0.796   8.559  0.1804 -0.6999 -4.0835
   23SAPC  H20S 3058   5.414  -0.705   8.522 -0.2422 -1.6280 -1.0885
   23SAPC  H20T 3059   5.416  -0.882   8.546 -1.3393  1.1286  0.6611
   23SAPC   C33 3060   5.498  -0.209  10.292 -0.5519  0.5173  0.2353
   23SAPC   H3X 3061   5.402  -0.223  10.237 -0.8995 -0.9544  1.2029
   23SAPC   H3Y 3062   5.563  -0.297  10.273 -0.5813  0.2660  1.2817
   23SAPC   C34 3063   5.543  -0.087  10.207  0.5373 -0.3873  1.0714
   23SAPC   H4X 3064   5.556  -0.127  10.105  1.2748 -1.7681  1.6976
   23SAPC   H4Y 3065   5.640  -0.041  10.237  2.6603 -3.4160 -0.9307
   23SAPC   C35 3066   5.433   0.026  10.183  1.4855  0.1816 -0.6744
   23SAPC   H5X 3067   5.440   0.101  10.264 -1.0927 -2.0650  1.7172
   23SAPC   H5Y 3068   5.332  -0.021  10.186  1.5486  0.0969  0.2395
   23SAPC   C36 3069   5.429   0.092  10.042 -0.0694  0.5473 -1.0655
   23SAPC   H6X 3070   5.450   0.009   9.971  0.6817 -0.5383  0.3966
   23SAPC   H6Y 3071   5.514   0.163  10.035  2.3374 -2.0445  0.7789
   23SAPC   C37 3072   5.299   0.163  10.023 -0.2388  0.6445 -0.2276
   23SAPC   H7X 3073   5.293   0.242  10.100 -0.1616 -1.4091  1.9355
   23SAPC   H7Y 3074   5.211   0.095  10.026  1.1217 -1.0619  2.8416
   23SAPC   C38 3075   5.288   0.251   9.902  0.3672 -0.5350 -0.1477
   23SAPC   H8X 3076   5.339   0.348   9.922  1.6108 -0.8596 -1.6187
   23SAPC   H8Y 3077   5.182   0.284   9.896  0.5287  0.0033 -0.1233
   23SAPC   C39 3078   5.320   0.189   9.767  0.1017 -0.8780 -0.2894
   23SAPC   H9X 3079   5.429   0.171   9.774  0.1323 -0.7013 -0.3105
   23SAPC   H9Y 3080   5.288   0.256   9.685 -2.2308 -0.0294  1.2566
   23SAPC  C310 3081   5.264   0.044   9.743  0.0227 -0.0666  0.1767
   23SAPC  H10X 3082   5.165   0.039   9.792 -0.3777  1.7818 -0.3948
   23SAPC  H10Y 3083   5.332  -0.036   9.779  0.5404  1.2577  2.2528
   23SAPC  C311 3084   5.271   0.018   9.587  0.1788 -0.1768  0.3500
   23SAPC  H11X 3085   5.269  -0.093   9.573  1.7037 -0.0291 -1.2089
   23SAPC  H11Y 3086   5.373   0.050   9.557  0.1052  2.2134  2.5112
   23SAPC  C312 3087   5.154   0.080   9.510  0.7074 -0.6046 -0.5613
   23SAPC  H12X 3088   5.147   0.190   9.521 -2.2348 -0.7733 -0.3244
   23SAPC  H12Y 3089   5.060   0.057   9.563  0.2457  1.1521 -0.5958
   23SAPC  C313 3090   5.165   0.035   9.365 -0.4271  0.3479 -0.1778
   23SAPC  H13X 3091   5.178  -0.075   9.377  2.5899  0.8587  1.8445
   23SAPC  H13Y 3092   5.255   0.080   9.319  0.6237 -1.9669 -0.4761
   23SAPC  C314 3093   5.039   0.065   9.295 -0.7158 -0.8586 -0.6507
   23SAPC  H14X 3094   5.008   0.165   9.333  0.2470 -0.5371 -0.6950
   23SAPC  H14Y 3095   4.954   0.001   9.328  1.8300 -4.1237 -0.2330
   23SAPC  C315 3096   5.046   0.050   9.138  0.0762 -0.4455 -0.3230
   23SAPC  H15X 3097   5.139   0.089   9.093  0.7599 -0.6067  0.9109
   23SAPC  H15Y 3098   4.960   0.109   9.100 -0.5513 -2.4181 -2.0641
   23SAPC  C316 3099   5.020  -0.097   9.092  0.2692 -0.6204  0.3124
   23SAPC  H16X 3100   4.927  -0.126   9.147 -0.6932  2.6502  0.5300
   23SAPC  H16Y 3101   5.102  -0.165   9.122 -1.8951 -3.2253  0.5757
   23SAPC  C317 3102   4.991  -0.105   8.943 -0.1275 -0.1652  0.3323
   23SAPC  H17X 3103   4.998  -0.211   8.909  2.4479  0.2512 -0.5548
   23SAPC  H17Y 3104   5.080  -0.061   8.894 -1.0269  1.6176  0.2726
   23SAPC  C318 3105   4.858  -0.042   8.892 -0.8755 -0.3588 -0.4524
   23SAPC  H18X 3106   4.854  -0.057   8.782  2.0505  0.1717 -0.6635
   23SAPC  H18Y 3107   4.868   0.067   8.907 -1.8094 -0.5869  2.1003
   23SAPC  H18Z 3108   4.768  -0.085   8.940  0.1223  1.4679  3.2206
   24SAPC     N 3109   0.525   0.787  11.075  0.5921 -0.1901  0.5648
   24SAPC   C12 3110   0.577   0.731  10.944 -0.6224  0.8036 -0.4303
   24SAPC  H12A 3111   0.598   0.819  10.884  0.8345  1.0997  0.4952
   24SAPC  H12B 3112   0.498   0.683  10.887  0.0614  0.5074 -1.1397
   24SAPC   C13 3113   0.419   0.886  11.049 -0.0753 -0.2103 -0.5958
   24SAPC  H13A 3114   0.449   0.953  10.970  2.9674 -1.9906 -1.0179
   24SAPC  H13B 3115   0.327   0.842  11.014 -0.0892 -1.9059  1.4704
   24SAPC  H13C 3116   0.407   0.944  11.139  3.3094  1.1018 -0.9217
   24SAPC   C14 3117   0.469   0.670  11.151 -0.7385 -0.1793 -0.3099
   24SAPC  H14A 3118   0.372   0.641  11.114 -1.6875 -0.5644  2.3176
   24SAPC  H14B 3119   0.535   0.584  11.155 -0.3830 -0.0381 -2.6593
   24SAPC  H14C 3120   0.460   0.699  11.255  0.9741 -0.6081 -0.0214
   24SAPC   C15 3121   0.630   0.851  11.153  0.6949 -0.3135  0.4409
   24SAPC  H15A 3122   0.602   0.884  11.252  2.5827  0.3311  0.7876
   24SAPC  H15B 3123   0.715   0.785  11.164  1.1567 -0.3185 -2.7431
   24SAPC  H15C 3124   0.655   0.943  11.102  0.3353 -1.7799 -2.4847
   24SAPC   C11 3125   0.701   0.634  10.946  0.7163  0.2618  0.1096
   24SAPC  H11A 3126   0.779   0.686  11.007  0.4828 -1.6013  2.0607
   24SAPC  H11B 3127   0.751   0.629  10.847 -1.3474 -0.8576 -0.8948
   24SAPC     P 3128   0.582   0.409  10.904  0.1380  0.0127 -0.1348
   24SAPC   O13 3129   0.588   0.274  10.971 -0.2157 -0.0953 -0.2003
   24SAPC   O14 3130   0.443   0.465  10.879 -0.4089 -0.1602  0.4768
   24SAPC   O12 3131   0.671   0.508  10.995  0.0251  0.2194  0.5255
   24SAPC   O11 3132   0.667   0.399  10.769  0.2659 -0.5039  0.0958
   24SAPC    C1 3133   0.785   0.313  10.764 -0.3220  0.0620  0.8063
   24SAPC    HA 3134   0.862   0.374  10.713 -3.7266  3.3859 -0.6178
   24SAPC    HB 3135   0.823   0.298  10.867  3.3354  1.2913 -0.2790
   24SAPC    C2 3136   0.768   0.181  10.684  0.2313  0.1962  0.1636
   24SAPC    HS 3137   0.865   0.151  10.639 -1.6077 -1.8365 -2.5764
   24SAPC   O21 3138   0.674   0.187  10.576 -0.5118 -0.3893 -0.3482
   24SAPC   C21 3139   0.702   0.260  10.470 -0.5218 -0.1389 -0.1228
   24SAPC   O22 3140   0.795   0.339  10.452  0.4130  0.3415 -0.2161
   24SAPC   C22 3141   0.596   0.242  10.364 -0.1056  0.4119  0.1590
   24SAPC   H2R 3142   0.528   0.330  10.361 -2.5521 -1.3934  0.5700
   24SAPC   H2S 3143   0.648   0.248  10.266  1.6257  3.2848  1.2207
   24SAPC    C3 3144   0.723   0.065  10.781  0.1523  0.7159  0.0346
   24SAPC    HX 3145   0.620   0.088  10.814 -0.0108  0.4365 -0.2728
   24SAPC    HY 3146   0.792   0.060  10.868  1.1707  0.5798 -0.7696
   24SAPC   O31 3147   0.732  -0.066  10.717 -0.4868 -0.2114 -0.6397
   24SAPC   C31 3148   0.856  -0.105  10.700  0.1102 -0.0540 -0.5844
   24SAPC   O32 3149   0.958  -0.055  10.748 -0.1570  0.2491 -0.1724
   24SAPC   C32 3150   0.856  -0.235  10.626  0.6308  0.5322 -0.2288
   24SAPC   H2X 3151   0.759  -0.276  10.590  1.7062 -0.0338 -2.6344
   24SAPC   H2Y 3152   0.912  -0.308  10.689 -0.2122 -0.0720 -0.1801
   24SAPC   C23 3153   0.512   0.110  10.359  0.4037  0.1069 -0.2436
   24SAPC   H3R 3154   0.481   0.085  10.462  1.5279 -1.5351 -0.2817
   24SAPC   H3S 3155   0.577   0.028  10.321 -0.1785 -1.3635  1.8271
   24SAPC   C24 3156   0.392   0.127  10.266 -0.6254  0.0937 -0.0505
   24SAPC   H4R 3157   0.425   0.197  10.186 -1.0238  0.6302  0.2508
   24SAPC   H4S 3158   0.321   0.177  10.334 -1.0729 -1.3773  0.5714
   24SAPC   C25 3159   0.336   0.002  10.206  0.2227  0.1150  0.4403
   24SAPC   H5R 3160   0.267  -0.056  10.269  0.3325 -2.0467 -1.3900
   24SAPC   C26 3161   0.369  -0.048  10.086 -0.0609  0.3323 -0.3308
   24SAPC   H6R 3162   0.313  -0.139  10.058 -0.0200 -0.1142  1.0003
   24SAPC   C27 3163   0.457   0.012   9.986  0.0213  0.1640 -0.4428
   24SAPC   H7R 3164   0.464   0.122   9.998  0.4107 -0.0255  1.0573
   24SAPC   H7S 3165   0.410  -0.007   9.887 -1.7302 -1.5673  0.6825
   24SAPC   C28 3166   0.598  -0.038   9.980  0.9044 -0.0960  0.2059
   24SAPC   H8R 3167   0.647  -0.072  10.073 -0.0917 -2.9332 -0.2583
   24SAPC   C29 3168   0.676  -0.023   9.869 -0.0183  0.9353  0.1916
   24SAPC   H9R 3169   0.781  -0.054   9.879 -0.8584 -1.1120  3.2773
   24SAPC  C210 3170   0.651   0.032   9.735 -1.2340 -0.1703  0.5562
   24SAPC  H10R 3171   0.700   0.132   9.738 -0.9567 -0.2213 -1.7475
   24SAPC  H10S 3172   0.544   0.052   9.711 -1.6496 -3.5124 -0.5896
   24SAPC  C211 3173   0.699  -0.050   9.622  0.3215  0.5365 -1.0905
   24SAPC  H11R 3174   0.752  -0.141   9.653  0.1964  0.6743 -0.4675
   24SAPC  C212 3175   0.687  -0.020   9.495 -0.0684 -0.5629 -0.1520
   24SAPC  H12R 3176   0.745  -0.075   9.420 -1.2330 -0.7594 -0.9171
   24SAPC  C213 3177   0.614   0.091   9.441  0.1310  0.6397 -0.3776
   24SAPC  H13R 3178   0.677   0.179   9.460 -0.0308  0.6561  0.0950
   24SAPC  H13S 3179   0.521   0.113   9.499  0.0022  0.6458 -0.5842
   24SAPC  C214 3180   0.566   0.067   9.304  0.1968  0.4180 -0.0455
   24SAPC  H14R 3181   0.484  -0.004   9.286 -0.5520  1.2833 -0.1231
   24SAPC  C215 3182   0.599   0.132   9.193 -0.2299 -0.6005  0.3646
   24SAPC  H15R 3183   0.556   0.081   9.105  2.5410 -2.4309  0.0333
   24SAPC  C216 3184   0.700   0.237   9.157 -0.2154  0.3309  0.1343
   24SAPC  H16R 3185   0.787   0.225   9.225 -0.3052  0.7186  0.3211
   24SAPC  H16S 3186   0.654   0.335   9.183  1.3850  0.8273  1.1866
   24SAPC  C217 3187   0.758   0.229   9.022 -0.7911  0.2790 -0.1863
   24SAPC  H17R 3188   0.792   0.126   8.999  0.6635  1.2708 -2.7675
   24SAPC  H17S 3189   0.847   0.294   9.005 -0.7421 -0.0332 -1.1747
   24SAPC  C218 3190   0.652   0.273   8.914 -0.2598 -0.0915 -0.0206
   24SAPC  H18R 3191   0.608   0.370   8.944  1.1351 -0.3056  2.9802
   24SAPC  H18S 3192   0.570   0.198   8.904 -1.2549  1.2385 -2.0778
   24SAPC  C219 3193   0.719   0.291   8.772 -0.2716  0.1696 -0.1086
   24SAPC  H19R 3194   0.769   0.197   8.741  0.1417  0.3836 -0.0981
   24SAPC  H19S 3195   0.804   0.362   8.786 -0.2559  0.3051 -0.8434
   24SAPC  C220 3196   0.632   0.356   8.663 -0.3229 -0.1906 -0.5988
   24SAPC  H20R 3197   0.647   0.302   8.567  0.2720  1.7306 -1.6361
   24SAPC  H20S 3198   0.661   0.464   8.665 -0.5686 -0.1374  0.5030
   24SAPC  H20T 3199   0.528   0.354   8.700 -0.4137  0.1811 -0.8298
   24SAPC   C33 3200   0.944  -0.220  10.497  0.5916 -0.6734  0.4323
   24SAPC   H3X 3201   0.937  -0.324  10.458 -0.5250  0.2656 -1.9204
   24SAPC   H3Y 3202   1.048  -0.193  10.526  0.9030  0.0241 -1.2960
   24SAPC   C34 3203   0.893  -0.129  10.387 -0.3233  0.0249  1.0773
   24SAPC   H4X 3204   0.874  -0.029  10.432  2.7247  1.1191  0.0716
   24SAPC   H4Y 3205   0.798  -0.162  10.339 -0.5902  1.7863  0.3402
   24SAPC   C35 3206   0.989  -0.116  10.278 -0.8786 -0.3536  0.0886
   24SAPC   H5X 3207   1.088  -0.073  10.306  0.6268 -2.4823 -1.7407
   24SAPC   H5Y 3208   0.942  -0.050  10.201 -1.9349 -0.0207  1.0143
   24SAPC   C36 3209   1.013  -0.245  10.200 -0.1696 -0.1463  0.3474
   24SAPC   H6X 3210   0.921  -0.301  10.171 -1.2761  1.6123  0.4326
   24SAPC   H6Y 3211   1.053  -0.319  10.273 -1.9181  0.0423  1.5246
   24SAPC   C37 3212   1.108  -0.238  10.073 -0.5045  0.3933  0.6523
   24SAPC   H7X 3213   1.135  -0.340  10.041 -1.1638  0.7832 -1.2243
   24SAPC   H7Y 3214   1.206  -0.197  10.106 -0.2168 -1.4873  2.2712
   24SAPC   C38 3215   1.043  -0.173   9.958 -0.1444 -0.0593 -0.1535
   24SAPC   H8X 3216   1.002  -0.070   9.954  1.8149  0.7102 -0.9085
   24SAPC   H8Y 3217   0.958  -0.244   9.946 -0.7154  0.1616  2.2750
   24SAPC   C39 3218   1.132  -0.188   9.831  0.0176 -1.1275  0.1471
   24SAPC   H9X 3219   1.149  -0.296   9.811 -1.6840 -1.0304 -1.9688
   24SAPC   H9Y 3220   1.225  -0.129   9.846  0.3756 -1.3633 -1.0890
   24SAPC  C310 3221   1.064  -0.135   9.702  0.2800 -0.4579 -0.0695
   24SAPC  H10X 3222   1.030  -0.030   9.701 -1.1672 -0.8992 -2.2790
   24SAPC  H10Y 3223   0.980  -0.205   9.680  1.5601 -2.1753  0.3570
   24SAPC  C311 3224   1.164  -0.145   9.586  0.1962 -0.2304  0.7087
   24SAPC  H11X 3225   1.219  -0.240   9.595 -1.3987 -1.0705  1.7992
   24SAPC  H11Y 3226   1.236  -0.062   9.600  0.8362 -0.2168 -2.2709
   24SAPC  C312 3227   1.104  -0.112   9.443  0.2805  0.1299  0.6066
   24SAPC  H12X 3228   1.017  -0.182   9.435 -0.3738  0.7934  1.7599
   24SAPC  H12Y 3229   1.187  -0.145   9.377  1.6676  3.2192  0.7683
   24SAPC  C313 3230   1.072   0.037   9.418  0.3964 -0.1795 -0.3534
   24SAPC  H13X 3231   1.143   0.118   9.447  0.0507 -0.1837  0.5333
   24SAPC  H13Y 3232   0.987   0.058   9.486  1.3337  0.6678  0.5790
   24SAPC  C314 3233   1.039   0.085   9.272  0.2501  0.0557 -0.1512
   24SAPC  H14X 3234   1.011   0.190   9.251 -0.4379 -0.3334 -1.2242
   24SAPC  H14Y 3235   0.956   0.015   9.248  1.2744 -0.7238 -1.4605
   24SAPC  C315 3236   1.154   0.056   9.175 -0.0952 -0.3753  0.3598
   24SAPC  H15X 3237   1.184  -0.051   9.177  1.2201 -0.0571 -1.6899
   24SAPC  H15Y 3238   1.249   0.109   9.195  0.5373 -1.6293  0.7836
   24SAPC  C316 3239   1.118   0.099   9.030  0.0496 -0.7122  0.0790
   24SAPC  H16X 3240   1.058   0.193   9.032 -0.3331 -0.9174 -1.0327
   24SAPC  H16Y 3241   1.053   0.022   8.983  0.1631 -0.0462 -1.1827
   24SAPC  C317 3242   1.239   0.124   8.940  0.1112 -0.2938  0.0111
   24SAPC  H17X 3243   1.294   0.029   8.958 -0.0688  0.0414  2.4837
   24SAPC  H17Y 3244   1.294   0.209   8.986  1.6963 -0.8682 -0.7555
   24SAPC  C318 3245   1.199   0.131   8.793  0.4627  0.0852  0.8851
   24SAPC  H18X 3246   1.139   0.223   8.772 -1.0145 -1.1973 -0.6063
   24SAPC  H18Y 3247   1.136   0.043   8.767 -0.5025  0.5744  1.5226
   24SAPC  H18Z 3248   1.291   0.139   8.732 -0.1238  3.2272  0.3212
   25SAPC     N 3249   2.710   3.749   5.899 -0.1568  0.5357  0.4911
   25SAPC   C12 3250   2.622   3.820   6.000 -0.0965  0.6913  0.0767
   25SAPC  H12A 3251   2.547   3.754   6.040  0.1504 -0.1003 -0.7461
   25SAPC  H12B 3252   2.564   3.893   5.945  0.0226 -0.5474 -1.7377
   25SAPC   C13 3253   2.800   3.853   5.839  0.0421 -0.2096  0.6951
   25SAPC  H13A 3254   2.741   3.927   5.787 -1.3872 -0.0873  2.4618
   25SAPC  H13B 3255   2.848   3.897   5.925 -1.5268  1.4815  0.7216
   25SAPC  H13C 3256   2.877   3.808   5.777 -0.7713  0.0151 -0.4945
   25SAPC   C14 3257   2.786   3.637   5.964 -0.2031  0.4650  0.4842
   25SAPC  H14A 3258   2.718   3.554   5.979  0.4764 -0.2016 -0.0940
   25SAPC  H14B 3259   2.867   3.611   5.898 -0.2501 -0.4943  0.8005
   25SAPC  H14C 3260   2.845   3.662   6.051  0.0663 -1.8107  0.9732
   25SAPC   C15 3261   2.631   3.690   5.785  0.0678 -0.2108  0.6478
   25SAPC  H15A 3262   2.687   3.686   5.693 -1.8853  1.0882 -0.6173
   25SAPC  H15B 3263   2.580   3.598   5.807 -1.6272  0.7360  0.7908
   25SAPC  H15C 3264   2.550   3.756   5.758 -0.2254 -1.3889 -1.4769
   25SAPC   C11 3265   2.694   3.895   6.112 -0.5954 -0.0008  0.5774
   25SAPC  H11A 3266   2.750   3.814   6.163  0.4748 -0.8449 -1.8948
   25SAPC  H11B 3267   2.621   3.936   6.185 -1.6991  0.6367 -0.8701
   25SAPC     P 3268   2.738   4.146   6.063 -0.0032  0.1796 -0.2391
   25SAPC   O13 3269   2.841   4.235   6.000  0.1651 -0.3036  0.3558
   25SAPC   O14 3270   2.616   4.144   5.982  0.1895 -0.2564 -0.4259
   25SAPC   O12 3271   2.792   3.993   6.075  0.3651 -0.3763  0.5242
   25SAPC   O11 3272   2.699   4.180   6.210  0.5354  0.6341  0.3550
   25SAPC    C1 3273   2.815   4.186   6.291  0.3918 -0.4613  0.0187
   25SAPC    HA 3274   2.893   4.108   6.284  1.3645  0.5265 -0.2812
   25SAPC    HB 3275   2.871   4.282   6.284  1.6454 -1.1653  0.2863
   25SAPC    C2 3276   2.777   4.195   6.442  0.0629 -0.4837 -0.4820
   25SAPC    HS 3277   2.866   4.170   6.503 -0.7269 -0.6980  0.6080
   25SAPC   O21 3278   2.664   4.111   6.478  0.2997 -0.6665  0.8001
   25SAPC   C21 3279   2.689   3.984   6.496  0.7418 -0.4515 -0.0642
   25SAPC   O22 3280   2.802   3.936   6.513  0.2156 -0.0987  0.3392
   25SAPC   C22 3281   2.563   3.919   6.504  0.0119  0.2663 -1.0442
   25SAPC   H2R 3282   2.478   3.984   6.476 -1.6409 -1.1832  0.4642
   25SAPC   H2S 3283   2.545   3.836   6.433 -1.1765 -0.8967  0.5726
   25SAPC    C3 3284   2.738   4.339   6.475 -0.0239 -0.3405  0.7761
   25SAPC    HX 3285   2.650   4.362   6.412  1.9761  1.1422 -1.5634
   25SAPC    HY 3286   2.824   4.404   6.445  2.3361 -3.8651 -0.4681
   25SAPC   O31 3287   2.692   4.353   6.617  0.7728  0.1842  0.4171
   25SAPC   C31 3288   2.794   4.363   6.700 -0.5372  1.4934 -0.0659
   25SAPC   O32 3289   2.909   4.361   6.660  0.5988 -0.2202  0.0586
   25SAPC   C32 3290   2.764   4.380   6.847 -0.8327  0.1350  0.6843
   25SAPC   H2X 3291   2.671   4.324   6.869 -2.1811  2.7754  1.8949
   25SAPC   H2Y 3292   2.730   4.484   6.865 -3.1918 -0.3779 -0.5233
   25SAPC   C23 3293   2.534   3.874   6.649  0.5020  0.1882 -0.1768
   25SAPC   H3R 3294   2.586   3.780   6.676  1.0066  1.0082  1.7930
   25SAPC   H3S 3295   2.425   3.853   6.645  0.2738  0.9755  1.6395
   25SAPC   C24 3296   2.569   3.974   6.758  0.4152  0.0903  0.0124
   25SAPC   H4R 3297   2.675   4.005   6.751  0.3102  1.2253  3.0491
   25SAPC   H4S 3298   2.557   3.923   6.856 -0.3879  0.6267  0.1977
   25SAPC   C25 3299   2.482   4.094   6.751  0.2842 -0.1038 -0.4533
   25SAPC   H5R 3300   2.494   4.152   6.658  0.1265 -1.7937 -1.5337
   25SAPC   C26 3301   2.409   4.142   6.853 -0.5701  0.3143  0.5109
   25SAPC   H6R 3302   2.356   4.236   6.830 -0.5070  0.2468  0.0783
   25SAPC   C27 3303   2.395   4.087   6.992 -0.0236 -0.0747  0.6343
   25SAPC   H7R 3304   2.352   4.171   7.051  3.0380  0.2752  2.4570
   25SAPC   H7S 3305   2.492   4.072   7.044 -0.5880  0.9210  1.9933
   25SAPC   C28 3306   2.313   3.958   7.001 -0.2071 -0.0691  0.1037
   25SAPC   H8R 3307   2.292   3.894   6.914 -0.2389 -0.8650  0.7032
   25SAPC   C29 3308   2.256   3.914   7.116 -0.0034 -0.3208  0.4359
   25SAPC   H9R 3309   2.183   3.832   7.104 -1.9981  1.4343  0.2970
   25SAPC  C210 3310   2.264   3.978   7.253 -0.0130  0.0109 -0.9789
   25SAPC  H10R 3311   2.175   4.042   7.265 -1.2554 -1.9439  0.6562
   25SAPC  H10S 3312   2.348   4.050   7.262  0.3427 -0.6681  1.6870
   25SAPC  C211 3313   2.276   3.876   7.369 -0.0296 -0.0502  0.1628
   25SAPC  H11R 3314   2.341   3.791   7.342 -1.3771 -1.3147  0.8477
   25SAPC  C212 3315   2.209   3.878   7.482 -0.2405 -0.0136  0.3328
   25SAPC  H12R 3316   2.240   3.802   7.555  0.5461  0.3367  0.3678
   25SAPC  C213 3317   2.106   3.979   7.526 -0.1985 -0.0750  0.3810
   25SAPC  H13R 3318   2.110   4.068   7.459 -3.3052 -0.6690 -0.6351
   25SAPC  H13S 3319   2.131   4.007   7.630 -3.0275 -0.7237  1.2700
   25SAPC  C214 3320   1.963   3.931   7.518 -0.0971  0.1972 -0.2734
   25SAPC  H14R 3321   1.916   3.927   7.418 -0.9504  1.2442  0.0752
   25SAPC  C215 3322   1.884   3.901   7.625  0.1184  0.0065 -0.0369
   25SAPC  H15R 3323   1.778   3.878   7.607  0.0860  0.0242  0.1289
   25SAPC  C216 3324   1.924   3.911   7.773  0.2865  0.1272 -0.5122
   25SAPC  H16R 3325   2.034   3.893   7.772  0.5615  1.7687 -1.0143
   25SAPC  H16S 3326   1.862   3.844   7.835 -0.4397  3.0721  2.0368
   25SAPC  C217 3327   1.890   4.054   7.822  0.6515 -0.3629  0.2019
   25SAPC  H17R 3328   1.782   4.060   7.846 -0.4222 -3.1063 -3.4982
   25SAPC  H17S 3329   1.917   4.132   7.748  0.3802 -0.4251  0.0372
   25SAPC  C218 3330   1.975   4.095   7.947 -0.0843 -0.0096  1.3388
   25SAPC  H18R 3331   2.085   4.105   7.932 -0.3655  2.6524  0.8274
   25SAPC  H18S 3332   1.965   4.014   8.023  0.0001 -0.6106  0.7157
   25SAPC  C219 3333   1.932   4.230   8.007  0.1192  0.2707 -0.7377
   25SAPC  H19R 3334   1.821   4.234   8.002  0.0778 -1.0725 -0.9921
   25SAPC  H19S 3335   1.975   4.309   7.940  2.4036 -1.4230 -1.3230
   25SAPC  C220 3336   1.984   4.238   8.151 -0.0333 -0.3505  0.2150
   25SAPC  H20R 3337   1.932   4.155   8.204 -0.7480 -1.0024 -1.4699
   25SAPC  H20S 3338   1.977   4.339   8.196  1.0365 -0.4213  0.5622
   25SAPC  H20T 3339   2.094   4.222   8.153 -0.1284 -0.8325  2.2332
   25SAPC   C33 3340   2.887   4.354   6.935  0.1521  0.1919 -0.6321
   25SAPC   H3X 3341   2.972   4.424   6.921  1.2330 -0.8972  0.4036
   25SAPC   H3Y 3342   2.937   4.260   6.904  2.5514  1.5695 -1.0763
   25SAPC   C34 3343   2.864   4.367   7.088 -1.7058 -0.3915  0.2706
   25SAPC   H4X 3344   2.790   4.292   7.124 -2.3759  1.0205  1.8947
   25SAPC   H4Y 3345   2.823   4.470   7.104  1.3421  1.0043 -0.6081
   25SAPC   C35 3346   2.997   4.351   7.167 -0.4266  0.0593  0.7884
   25SAPC   H5X 3347   3.079   4.409   7.120 -0.8998 -0.5734 -0.8424
   25SAPC   H5Y 3348   3.024   4.245   7.182 -0.2897  0.0086  0.1976
   25SAPC   C36 3349   2.974   4.404   7.308 -0.1763  0.2916 -0.3577
   25SAPC   H6X 3350   2.887   4.346   7.346 -0.0237 -1.3121 -2.3520
   25SAPC   H6Y 3351   2.945   4.510   7.326  2.8520  1.3860 -1.5668
   25SAPC   C37 3352   3.103   4.387   7.399  0.8873 -0.1927  0.7996
   25SAPC   H7X 3353   3.175   4.468   7.372  0.7694 -0.1418  0.6416
   25SAPC   H7Y 3354   3.149   4.288   7.377  1.0764  0.3526 -1.4023
   25SAPC   C38 3355   3.078   4.394   7.553 -0.3581 -0.2823  0.0184
   25SAPC   H8X 3356   3.018   4.304   7.579 -0.4590 -0.5117 -1.0048
   25SAPC   H8Y 3357   3.023   4.487   7.582 -1.7457 -1.6643  1.9697
   25SAPC   C39 3358   3.212   4.386   7.622  0.0849 -0.0836  0.2251
   25SAPC   H9X 3359   3.282   4.460   7.579  0.4326 -0.3523  0.3256
   25SAPC   H9Y 3360   3.269   4.292   7.603 -1.4268 -1.1896  0.9998
   25SAPC  C310 3361   3.210   4.413   7.769 -0.8926  0.2803  0.4365
   25SAPC  H10X 3362   3.314   4.402   7.806 -0.5380  2.0059  0.0082
   25SAPC  H10Y 3363   3.144   4.339   7.820 -1.5117  1.8073  1.8668
   25SAPC  C311 3364   3.171   4.561   7.805 -0.0248 -0.4429 -0.8009
   25SAPC  H11X 3365   3.073   4.588   7.759 -0.2365 -0.1105 -0.1610
   25SAPC  H11Y 3366   3.247   4.630   7.761 -0.9496  0.9875 -0.2049
   25SAPC  C312 3367   3.145   4.586   7.951  0.0383  0.1279  0.0608
   25SAPC  H12X 3368   3.069   4.509   7.977  0.3876 -0.6636 -1.2294
   25SAPC  H12Y 3369   3.111   4.691   7.964 -2.6110 -0.7885  0.8284
   25SAPC  C313 3370   3.276   4.569   8.033 -0.3312 -0.1765  0.9806
   25SAPC  H13X 3371   3.350   4.637   7.987  0.2121 -2.0210 -0.9451
   25SAPC  H13Y 3372   3.295   4.460   8.022 -0.2507 -0.1179  0.5464
   25SAPC  C314 3373   3.257   4.617   8.180 -0.3148 -0.3647  0.8678
   25SAPC  H14X 3374   3.167   4.566   8.221  0.7829 -2.4368  0.7621
   25SAPC  H14Y 3375   3.233   4.725   8.178 -0.5249 -0.4144  0.7194
   25SAPC  C315 3376   3.387   4.599   8.261  0.4872 -0.6010 -0.4648
   25SAPC  H15X 3377   3.480   4.639   8.215 -0.0012 -1.0184 -1.8387
   25SAPC  H15Y 3378   3.406   4.490   8.266  1.3644 -0.3654  4.6754
   25SAPC  C316 3379   3.363   4.630   8.407 -0.4391  0.0762 -0.0635
   25SAPC  H16X 3380   3.275   4.573   8.446 -0.5864 -1.3578 -2.3654
   25SAPC  H16Y 3381   3.355   4.740   8.418 -0.4560 -0.0663  1.4467
   25SAPC  C317 3382   3.486   4.596   8.497 -0.1560 -0.0632 -0.8478
   25SAPC  H17X 3383   3.457   4.644   8.593  0.5368 -0.5648 -0.3860
   25SAPC  H17Y 3384   3.582   4.644   8.466 -0.8349  1.1796 -1.0715
   25SAPC  C318 3385   3.509   4.450   8.521 -0.1274 -0.1900 -0.2729
   25SAPC  H18X 3386   3.409   4.404   8.540  0.2632 -0.2945  1.6484
   25SAPC  H18Y 3387   3.579   4.435   8.606 -0.6330 -0.4899  0.0964
   25SAPC  H18Z 3388   3.552   4.396   8.434 -0.3816 -0.9352  0.0617
   26SAPC     N 3389   2.114   6.711   6.026 -0.1132 -0.6269 -0.0518
   26SAPC   C12 3390   2.045   6.686   6.157 -0.5896  0.9567  0.2550
   26SAPC  H12A 3391   1.951   6.632   6.148  0.8203 -1.4008 -0.7960
   26SAPC  H12B 3392   2.020   6.778   6.207 -2.0622  0.8074 -0.1916
   26SAPC   C13 3393   2.241   6.781   6.048  0.2072 -0.4393 -0.8098
   26SAPC  H13A 3394   2.221   6.877   6.094 -0.3314 -1.1555  0.4776
   26SAPC  H13B 3395   2.305   6.732   6.119  0.7957  0.2358 -0.8759
   26SAPC  H13C 3396   2.295   6.801   5.957  5.1025 -1.8309  1.6476
   26SAPC   C14 3397   2.141   6.582   5.958  0.5597 -0.0959  0.3717
   26SAPC  H14A 3398   2.185   6.507   6.021 -0.1868 -0.6345  0.2625
   26SAPC  H14B 3399   2.048   6.551   5.912  0.2951  0.0196  0.8204
   26SAPC  H14C 3400   2.205   6.601   5.873 -1.0832  0.8749 -0.6974
   26SAPC   C15 3401   2.028   6.803   5.931  0.0084 -0.3865  0.5792
   26SAPC  H15A 3402   2.088   6.830   5.846 -0.4289 -0.6550  0.1830
   26SAPC  H15B 3403   1.940   6.758   5.888  1.7020 -0.8303 -2.5078
   26SAPC  H15C 3404   1.992   6.895   5.975 -2.6159 -1.7164  1.3804
   26SAPC   C11 3405   2.127   6.607   6.256  0.2400 -0.5102  0.7905
   26SAPC  H11A 3406   2.075   6.608   6.354  1.1964 -2.0999  1.3226
   26SAPC  H11B 3407   2.219   6.662   6.286  0.6595 -0.3159 -0.8327
   26SAPC     P 3408   2.073   6.347   6.262 -0.2137  0.1373  0.1086
   26SAPC   O13 3409   1.927   6.355   6.235 -0.6878 -0.3438  0.3490
   26SAPC   O14 3410   2.142   6.233   6.194 -0.2272 -0.0886 -0.2138
   26SAPC   O12 3411   2.150   6.476   6.214 -0.2774 -0.4243  0.0534
   26SAPC   O11 3412   2.098   6.322   6.417 -0.2056 -0.0384  0.1125
   26SAPC    C1 3413   2.235   6.308   6.455  0.3444 -0.5494 -0.4911
   26SAPC    HA 3414   2.284   6.232   6.391  2.4405  0.5520 -0.2254
   26SAPC    HB 3415   2.276   6.411   6.459 -0.8218 -0.0585 -0.8526
   26SAPC    C2 3416   2.248   6.239   6.596 -0.7687  0.2547  0.4839
   26SAPC    HS 3417   2.356   6.240   6.624 -0.3233  0.9953 -1.2182
   26SAPC   O21 3418   2.180   6.112   6.599  0.0860  0.0761 -0.1788
   26SAPC   C21 3419   2.237   6.020   6.536  0.8313 -0.2442 -0.4699
   26SAPC   O22 3420   2.345   6.024   6.482 -0.7622  0.5519  0.3610
   26SAPC   C22 3421   2.136   5.904   6.526  0.1185  0.1599  0.4812
   26SAPC   H2R 3422   2.050   5.933   6.462  0.8180 -1.9447 -1.4681
   26SAPC   H2S 3423   2.188   5.813   6.490  0.9270  0.1181  1.7100
   26SAPC    C3 3424   2.185   6.320   6.711 -0.3013  0.3621  0.1145
   26SAPC    HX 3425   2.078   6.350   6.702  0.1868  2.0969 -0.1390
   26SAPC    HY 3426   2.243   6.415   6.702 -2.1574  1.5924  0.7298
   26SAPC   O31 3427   2.201   6.252   6.839 -0.3621  0.0900 -0.1694
   26SAPC   C31 3428   2.097   6.178   6.880  0.0114 -0.7497  0.5218
   26SAPC   O32 3429   1.982   6.195   6.843 -0.1884  0.0072 -0.2281
   26SAPC   C32 3430   2.144   6.069   6.981  0.3390  0.1814  0.4188
   26SAPC   H2X 3431   2.234   6.014   6.946 -1.2370 -1.4314 -1.2179
   26SAPC   H2Y 3432   2.065   5.991   6.986 -0.4902  0.8970 -0.9175
   26SAPC   C23 3433   2.068   5.865   6.662 -0.6623 -0.3144 -1.0042
   26SAPC   H3R 3434   1.983   5.798   6.639 -0.2441 -1.4889  0.7459
   26SAPC   H3S 3435   2.013   5.950   6.710  1.1558 -0.1718  0.9187
   26SAPC   C24 3436   2.151   5.779   6.744  0.6593  0.3238 -0.2261
   26SAPC   H4R 3437   2.236   5.833   6.790  1.5552  1.7124 -3.3645
   26SAPC   H4S 3438   2.206   5.715   6.672 -2.0762 -2.0498 -0.3090
   26SAPC   C25 3439   2.070   5.690   6.841 -0.4814 -0.0472  0.2975
   26SAPC   H5R 3440   1.980   5.636   6.809 -1.7025  0.0990  3.2737
   26SAPC   C26 3441   2.121   5.656   6.961 -0.2333 -0.9486 -0.4446
   26SAPC   H6R 3442   2.054   5.608   7.034 -2.7738  1.6109 -1.0139
   26SAPC   C27 3443   2.256   5.686   7.020  0.0747  0.2264 -0.2320
   26SAPC   H7R 3444   2.233   5.751   7.107  0.2814 -0.5048  0.3831
   26SAPC   H7S 3445   2.327   5.733   6.949  1.6372  1.3425  1.9959
   26SAPC   C28 3446   2.327   5.567   7.059 -0.5595 -0.1215 -0.0849
   26SAPC   H8R 3447   2.400   5.534   6.983 -0.0864  0.4346  0.1227
   26SAPC   C29 3448   2.330   5.507   7.183  0.4151 -0.0989 -0.2176
   26SAPC   H9R 3449   2.400   5.422   7.192  1.4517  0.5960 -1.5253
   26SAPC  C210 3450   2.249   5.558   7.305 -0.1121  0.2430 -0.7330
   26SAPC  H10R 3451   2.141   5.566   7.280 -1.0628 -1.2440  2.6325
   26SAPC  H10S 3452   2.295   5.656   7.330 -0.9642  0.4749 -0.0318
   26SAPC  C211 3453   2.254   5.467   7.421  0.1573 -0.1078 -0.1325
   26SAPC  H11R 3454   2.277   5.361   7.398 -2.6317 -0.7762  0.0140
   26SAPC  C212 3455   2.241   5.505   7.552  1.0063  0.1880  0.1844
   26SAPC  H12R 3456   2.244   5.422   7.623 -1.0059 -1.7232 -1.8620
   26SAPC  C213 3457   2.217   5.651   7.588 -0.2547 -0.0167 -0.4400
   26SAPC  H13R 3458   2.227   5.718   7.500  1.9510  0.2301 -0.0419
   26SAPC  H13S 3459   2.303   5.689   7.648 -0.1758  1.4281 -1.4449
   26SAPC  C214 3460   2.085   5.662   7.647 -0.5432  0.0531  0.7345
   26SAPC  H14R 3461   2.004   5.621   7.585  0.9093  0.2337 -1.3258
   26SAPC  C215 3462   2.059   5.704   7.767  0.8683 -0.9073 -1.0472
   26SAPC  H15R 3463   1.954   5.697   7.801  0.7921 -1.8125 -1.4467
   26SAPC  C216 3464   2.158   5.765   7.872 -0.0878  0.2578  0.0529
   26SAPC  H16R 3465   2.116   5.858   7.915  0.5749  1.2654 -1.4559
   26SAPC  H16S 3466   2.251   5.802   7.825 -0.7715  0.8895 -0.8120
   26SAPC  C217 3467   2.196   5.663   7.981  0.4992 -0.2782 -0.7789
   26SAPC  H17R 3468   2.264   5.586   7.940 -1.0432 -0.8837 -2.2674
   26SAPC  H17S 3469   2.097   5.622   8.012  0.9484 -1.2330 -0.6072
   26SAPC  C218 3470   2.261   5.732   8.101  0.3384 -0.0238 -0.4572
   26SAPC  H18R 3471   2.207   5.825   8.129  0.4694 -0.7041  2.2476
   26SAPC  H18S 3472   2.364   5.759   8.071  0.2932 -0.7181 -1.2551
   26SAPC  C219 3473   2.255   5.653   8.227 -0.4506 -0.5658 -0.9884
   26SAPC  H19R 3474   2.164   5.590   8.232  0.2651 -1.6046 -0.9528
   26SAPC  H19S 3475   2.258   5.711   8.322 -0.0114 -2.4454  0.1628
   26SAPC  C220 3476   2.374   5.557   8.217 -0.2431  0.1385  0.0912
   26SAPC  H20R 3477   2.363   5.492   8.127  0.2609 -0.0601  0.1693
   26SAPC  H20S 3478   2.378   5.493   8.307 -2.4686 -0.7805 -0.4426
   26SAPC  H20T 3479   2.473   5.607   8.209  1.4609 -2.8450  1.4863
   26SAPC   C33 3480   2.144   6.118   7.130  0.6369 -0.1835  0.4235
   26SAPC   H3X 3481   2.047   6.171   7.143  0.4833 -0.1243 -0.9058
   26SAPC   H3Y 3482   2.235   6.178   7.151  1.2622  0.1843 -3.0079
   26SAPC   C34 3483   2.131   6.017   7.234  0.1115  0.2012  0.1166
   26SAPC   H4X 3484   2.228   5.963   7.237  0.1070  0.2490  1.3638
   26SAPC   H4Y 3485   2.039   5.957   7.220  1.0570 -1.7253  1.9285
   26SAPC   C35 3486   2.111   6.088   7.372 -0.9736 -0.6169  0.3463
   26SAPC   H5X 3487   2.013   6.141   7.370 -0.6187  0.0123 -1.7232
   26SAPC   H5Y 3488   2.192   6.160   7.395 -0.9501 -0.3123 -0.6773
   26SAPC   C36 3489   2.102   5.985   7.495 -0.7359 -0.5079 -0.2026
   26SAPC   H6X 3490   2.203   5.943   7.518 -1.1073  0.3329  3.2533
   26SAPC   H6Y 3491   2.031   5.902   7.472 -1.4352  0.2297 -0.7070
   26SAPC   C37 3492   2.038   6.054   7.620  0.3361  0.0485  0.5218
   26SAPC   H7X 3493   1.973   5.974   7.662 -1.6586  0.3830 -1.8461
   26SAPC   H7Y 3494   1.976   6.140   7.589 -0.8593 -0.5606  1.1976
   26SAPC   C38 3495   2.131   6.098   7.730  0.0745  0.1228 -0.4066
   26SAPC   H8X 3496   2.188   6.192   7.712  0.0697  0.1216 -0.4284
   26SAPC   H8Y 3497   2.212   6.024   7.748  1.0119  1.7054  2.1007
   26SAPC   C39 3498   2.051   6.116   7.864 -0.3363  0.1375  0.1319
   26SAPC   H9X 3499   1.995   6.023   7.888 -0.5336 -0.3262 -2.0378
   26SAPC   H9Y 3500   1.980   6.200   7.847 -1.4993 -1.1785 -1.7494
   26SAPC  C310 3501   2.145   6.156   7.982 -0.4539 -0.9212  0.3253
   26SAPC  H10X 3502   2.172   6.261   7.959  0.0917 -0.7534  1.6913
   26SAPC  H10Y 3503   2.231   6.087   7.991  1.0323  0.7740 -0.5267
   26SAPC  C311 3504   2.076   6.159   8.116  0.6501  0.2397  0.7626
   26SAPC  H11X 3505   2.040   6.056   8.137 -1.8457  0.5950 -1.4614
   26SAPC  H11Y 3506   1.981   6.216   8.100  0.8912 -0.3948 -3.5358
   26SAPC  C312 3507   2.163   6.211   8.232  0.1595 -0.1728 -0.2129
   26SAPC  H12X 3508   2.172   6.321   8.241 -2.2655  0.1265 -1.0358
   26SAPC  H12Y 3509   2.264   6.168   8.215  0.5713  0.6615  0.1250
   26SAPC  C313 3510   2.124   6.155   8.372  0.0891  1.1946 -0.3229
   26SAPC  H13X 3511   2.193   6.197   8.448  0.3596 -1.6015  1.0482
   26SAPC  H13Y 3512   2.133   6.044   8.375 -2.6639  0.9368 -0.5812
   26SAPC  C314 3513   1.972   6.175   8.409  0.3361  0.9432  0.4401
   26SAPC  H14X 3514   1.917   6.090   8.364 -0.2498  2.5678 -2.0440
   26SAPC  H14Y 3515   1.939   6.263   8.349  1.6048  0.8914 -0.3568
   26SAPC  C315 3516   1.958   6.189   8.562  0.5712  0.0669 -0.4174
   26SAPC  H15X 3517   2.036   6.129   8.614  2.1803  2.2925 -0.1811
   26SAPC  H15Y 3518   1.862   6.146   8.597  0.2920  2.2545  1.6420
   26SAPC  C316 3519   1.964   6.337   8.617  0.1210  0.0804  0.6638
   26SAPC  H16X 3520   1.882   6.390   8.565 -3.0983 -1.7680  3.6574
   26SAPC  H16Y 3521   2.056   6.387   8.577  1.9120 -3.3565  0.3107
   26SAPC  C317 3522   1.951   6.338   8.769  0.1116  0.4309 -0.1216
   26SAPC  H17X 3523   2.031   6.275   8.815  1.0663  1.8187  0.1272
   26SAPC  H17Y 3524   1.859   6.284   8.801  0.5598  1.3420  2.8631
   26SAPC  C318 3525   1.956   6.482   8.823 -0.1569 -0.0322 -0.3090
   26SAPC  H18X 3526   2.053   6.521   8.786 -0.0654 -1.7087 -1.8966
   26SAPC  H18Y 3527   1.968   6.489   8.933  1.3402  0.0702 -0.4744
   26SAPC  H18Z 3528   1.865   6.541   8.799 -1.2650 -1.6442 -0.1324
   27SAPC     N 3529   6.617   0.131   6.563  0.0668 -0.4065  0.3120
   27SAPC   C12 3530   6.753   0.189   6.624  0.0917  0.4734 -0.6850
   27SAPC  H12A 3531   6.744   0.295   6.638  0.8875  0.4514  0.0034
   27SAPC  H12B 3532   6.836   0.155   6.564 -0.5585 -3.2480  0.3923
   27SAPC   C13 3533   6.497   0.168   6.641  0.3170 -0.2228  0.9268
   27SAPC  H13A 3534   6.504   0.123   6.739 -1.7045  0.3182  1.3438
   27SAPC  H13B 3535   6.489   0.275   6.651  1.6764  0.1005 -1.0273
   27SAPC  H13C 3536   6.408   0.138   6.588  1.3710  0.5346 -1.3279
   27SAPC   C14 3537   6.586   0.189   6.431 -0.5482 -0.2142  0.0088
   27SAPC  H14A 3538   6.479   0.182   6.424 -0.5562  1.3371 -1.6921
   27SAPC  H14B 3539   6.603   0.296   6.422 -0.0110 -0.3653 -0.7922
   27SAPC  H14C 3540   6.626   0.135   6.346  1.5846 -0.3184  1.0357
   27SAPC   C15 3541   6.635  -0.017   6.534  0.3187 -0.0452 -0.5897
   27SAPC  H15A 3542   6.683  -0.071   6.615  3.0770  0.2312 -1.9776
   27SAPC  H15B 3543   6.541  -0.066   6.513 -0.8476  1.8426  0.1183
   27SAPC  H15C 3544   6.702  -0.039   6.453  1.2212  0.2944  0.0511
   27SAPC   C11 3545   6.797   0.127   6.763  0.2854 -0.3601  0.4008
   27SAPC  H11A 3546   6.715   0.158   6.831  0.6633  0.4115  0.5118
   27SAPC  H11B 3547   6.886   0.180   6.802  0.6171 -1.8104  1.6140
   27SAPC     P 3548   6.817  -0.107   6.882  0.0912  0.1090  0.2634
   27SAPC   O13 3549   6.845  -0.242   6.822  0.2191  0.2041 -0.0330
   27SAPC   O14 3550   6.896  -0.065   6.999  0.0711 -0.5383  0.1974
   27SAPC   O12 3551   6.826  -0.008   6.758 -0.7840 -0.1994 -0.8588
   27SAPC   O11 3552   6.668  -0.095   6.929  0.2819  0.1382 -0.0660
   27SAPC    C1 3553   6.579  -0.204   6.895 -0.0635 -0.2000  0.1739
   27SAPC    HA 3554   6.493  -0.166   6.835 -0.0165  1.7951  1.3145
   27SAPC    HB 3555   6.616  -0.287   6.832 -0.2718 -0.9620  1.0333
   27SAPC    C2 3556   6.532  -0.270   7.020 -0.7307  0.2042 -0.8328
   27SAPC    HS 3557   6.490  -0.373   7.007 -1.9873  0.5648  0.2544
   27SAPC   O21 3558   6.431  -0.188   7.085  0.0188  0.3523  0.8029
   27SAPC   C21 3559   6.306  -0.212   7.058  0.1423 -0.0421 -0.6510
   27SAPC   O22 3560   6.269  -0.305   6.987  0.5356 -0.2879 -0.8867
   27SAPC   C22 3561   6.220  -0.106   7.129 -0.5054 -0.1313 -0.4156
   27SAPC   H2R 3562   6.226  -0.015   7.065  1.6913 -1.8115 -2.6923
   27SAPC   H2S 3563   6.114  -0.141   7.127 -0.5473 -0.0956  0.6089
   27SAPC    C3 3564   6.642  -0.297   7.131  0.3323  0.6264 -0.2703
   27SAPC    HX 3565   6.680  -0.197   7.161 -1.6904  0.8637  1.6389
   27SAPC    HY 3566   6.730  -0.354   7.093 -0.0784  0.4627 -1.0023
   27SAPC   O31 3567   6.588  -0.354   7.253  0.2424 -0.5740 -0.4347
   27SAPC   C31 3568   6.630  -0.473   7.281 -0.2320 -0.5785 -0.6934
   27SAPC   O32 3569   6.694  -0.550   7.215  0.4413 -0.1312  0.5950
   27SAPC   C32 3570   6.594  -0.503   7.426 -0.2174  0.5505 -0.5287
   27SAPC   H2X 3571   6.645  -0.430   7.492  1.4136 -1.5693  0.6437
   27SAPC   H2Y 3572   6.634  -0.603   7.453 -1.4884 -0.5240 -2.4764
   27SAPC   C23 3573   6.266  -0.060   7.271  0.1934 -0.2712 -0.7003
   27SAPC   H3R 3574   6.344   0.016   7.248 -1.7445  1.3171 -2.2738
   27SAPC   H3S 3575   6.289  -0.153   7.327 -0.2312 -0.0608 -0.1722
   27SAPC   C24 3576   6.152   0.017   7.343 -0.1943 -0.5074  0.5446
   27SAPC   H4R 3577   6.069  -0.055   7.356 -0.7247 -0.1913 -1.0421
   27SAPC   H4S 3578   6.111   0.111   7.300 -1.2130 -0.0629  2.4334
   27SAPC   C25 3579   6.209   0.061   7.470 -0.2262 -0.7945 -0.6063
   27SAPC   H5R 3580   6.238   0.167   7.475  0.9233 -1.1866  1.1472
   27SAPC   C26 3581   6.207   0.007   7.589  0.1055  0.1765 -0.2049
   27SAPC   H6R 3582   6.247   0.068   7.671 -0.3442  2.3746 -1.5810
   27SAPC   C27 3583   6.147  -0.125   7.625  0.3716  0.6172  0.1015
   27SAPC   H7R 3584   6.235  -0.180   7.665  1.5140  1.6958 -0.9199
   27SAPC   H7S 3585   6.110  -0.172   7.532  1.7090  1.5345 -0.9067
   27SAPC   C28 3586   6.036  -0.118   7.725 -0.0003  0.3266 -0.0631
   27SAPC   H8R 3587   5.957  -0.048   7.694  1.5783  1.8633 -0.6745
   27SAPC   C29 3588   6.017  -0.189   7.835 -0.4224  0.4132 -0.0494
   27SAPC   H9R 3589   5.922  -0.173   7.889 -0.4126 -0.3751  0.2178
   27SAPC  C210 3590   6.109  -0.282   7.892 -0.5285 -0.0175 -0.6181
   27SAPC  H10R 3591   6.165  -0.223   7.968  0.7051 -0.1803 -1.3703
   27SAPC  H10S 3592   6.180  -0.318   7.814  1.1786  2.2237 -0.1644
   27SAPC  C211 3593   6.057  -0.402   7.966  0.4766 -0.6321 -0.3257
   27SAPC  H11R 3594   6.045  -0.389   8.074  0.3881  3.4269 -0.7608
   27SAPC  C212 3595   6.028  -0.524   7.917  0.2482 -1.1630 -0.1227
   27SAPC  H12R 3596   5.995  -0.589   7.999 -1.7887  0.0509  0.0690
   27SAPC  C213 3597   6.023  -0.573   7.777 -0.5314  0.4023  0.0946
   27SAPC  H13R 3598   6.110  -0.640   7.761 -1.5674 -0.5988 -1.4453
   27SAPC  H13S 3599   6.019  -0.491   7.701 -0.4758 -0.4307 -0.8080
   27SAPC  C214 3600   5.890  -0.643   7.779 -0.1978 -0.1215  0.1659
   27SAPC  H14R 3601   5.800  -0.583   7.760 -0.1140 -1.0039 -3.2740
   27SAPC  C215 3602   5.869  -0.776   7.796 -0.2909 -0.0110 -0.3456
   27SAPC  H15R 3603   5.766  -0.816   7.795 -0.1695 -0.3458  0.3414
   27SAPC  C216 3604   5.971  -0.888   7.808 -0.0246 -0.4362  0.1074
   27SAPC  H16R 3605   5.923  -0.964   7.873 -0.1389  0.3696  0.9608
   27SAPC  H16S 3606   6.058  -0.848   7.864  0.0141 -2.0407  1.2279
   27SAPC  C217 3607   6.000  -0.940   7.669  0.6484 -0.2536 -0.4900
   27SAPC  H17R 3608   6.053  -1.036   7.685  0.4751 -0.2152  0.3312
   27SAPC  H17S 3609   6.068  -0.870   7.616 -1.0978 -0.0108 -2.4637
   27SAPC  C218 3610   5.868  -0.978   7.590 -0.0939 -0.1925 -0.4800
   27SAPC  H18R 3611   5.827  -0.880   7.558  0.2916 -0.3927 -1.6070
   27SAPC  H18S 3612   5.801  -1.030   7.662 -0.3759  0.2618 -0.4152
   27SAPC  C219 3613   5.885  -1.065   7.469 -0.0765 -0.3099  0.7599
   27SAPC  H19R 3614   5.787  -1.100   7.431 -1.1109  2.0323  1.2151
   27SAPC  H19S 3615   5.922  -1.160   7.513 -1.8502 -0.2520  2.4684
   27SAPC  C220 3616   5.994  -1.014   7.377  0.2880  0.3838  0.0034
   27SAPC  H20R 3617   6.088  -1.001   7.436  0.9723  0.0642 -0.9894
   27SAPC  H20S 3618   5.963  -0.917   7.333  0.2860  0.2574 -0.2721
   27SAPC  H20T 3619   6.014  -1.087   7.296  2.5768 -0.2130  1.0445
   27SAPC   C33 3620   6.436  -0.496   7.448  0.6022  0.0449 -0.2334
   27SAPC   H3X 3621   6.390  -0.589   7.411  1.5768 -0.7101  0.4191
   27SAPC   H3Y 3622   6.394  -0.408   7.395  1.3222  0.6114  0.1279
   27SAPC   C34 3623   6.406  -0.461   7.597  0.2537  0.2896  0.2177
   27SAPC   H4X 3624   6.297  -0.471   7.616  0.3313  0.4046  0.7349
   27SAPC   H4Y 3625   6.428  -0.353   7.610 -2.0647  0.6130  1.7774
   27SAPC   C35 3626   6.483  -0.535   7.699 -0.4376 -0.6773 -0.3093
   27SAPC   H5X 3627   6.587  -0.499   7.685 -1.1598  2.3611  1.6383
   27SAPC   H5Y 3628   6.482  -0.645   7.685  0.6046 -0.9924  1.8740
   27SAPC   C36 3629   6.448  -0.506   7.839  0.2405 -0.4431 -0.6427
   27SAPC   H6X 3630   6.341  -0.530   7.851  0.1429  0.8763  1.4427
   27SAPC   H6Y 3631   6.455  -0.398   7.864 -0.7410 -1.1577  2.9218
   27SAPC   C37 3632   6.534  -0.594   7.938  0.5970 -0.7238 -0.1807
   27SAPC   H7X 3633   6.640  -0.562   7.928 -0.0648  2.1474  1.3359
   27SAPC   H7Y 3634   6.501  -0.695   7.906  0.3181 -0.2725 -1.3469
   27SAPC   C38 3635   6.492  -0.563   8.078  0.1027 -0.3640 -0.0601
   27SAPC   H8X 3636   6.538  -0.631   8.152  1.0786  0.8562  0.4665
   27SAPC   H8Y 3637   6.382  -0.576   8.086 -0.1486  2.0106  0.7686
   27SAPC   C39 3638   6.512  -0.423   8.130  0.3798 -0.0532 -0.8100
   27SAPC   H9X 3639   6.431  -0.360   8.086 -0.0176 -1.3471 -1.9786
   27SAPC   H9Y 3640   6.609  -0.393   8.084 -0.8751  1.8840 -2.2550
   27SAPC  C310 3641   6.513  -0.417   8.284  0.5648 -0.5675 -0.4128
   27SAPC  H10X 3642   6.592  -0.344   8.311  0.1321 -1.0497  2.2776
   27SAPC  H10Y 3643   6.537  -0.520   8.319  1.6981  0.1029  0.8468
   27SAPC  C311 3644   6.387  -0.351   8.342 -0.0627  0.6535 -0.2693
   27SAPC  H11X 3645   6.293  -0.400   8.310 -0.0706  0.5201 -0.0446
   27SAPC  H11Y 3646   6.372  -0.243   8.319  2.1223  1.1726  0.6157
   27SAPC  C312 3647   6.391  -0.370   8.498  0.0110 -0.5091 -0.6684
   27SAPC  H12X 3648   6.474  -0.308   8.537 -0.7789 -0.0964  0.4017
   27SAPC  H12Y 3649   6.397  -0.479   8.520 -0.3926 -0.5514 -0.7577
   27SAPC  C313 3650   6.258  -0.319   8.559 -0.3635  0.0662 -0.4986
   27SAPC  H13X 3651   6.237  -0.217   8.520 -1.4759 -0.7337 -2.0026
   27SAPC  H13Y 3652   6.269  -0.296   8.668 -3.0575  1.5933 -0.4894
   27SAPC  C314 3653   6.141  -0.420   8.541  0.4965  0.7453  0.4460
   27SAPC  H14X 3654   6.165  -0.511   8.599 -0.8771 -0.1664 -0.3985
   27SAPC  H14Y 3655   6.122  -0.459   8.439  0.6929  1.0405  0.2972
   27SAPC  C315 3656   6.012  -0.376   8.621  0.6500 -0.3032  0.0346
   27SAPC  H15X 3657   6.005  -0.266   8.630 -2.0125 -0.3878 -0.5948
   27SAPC  H15Y 3658   6.030  -0.400   8.728 -0.5236  2.2235  0.8305
   27SAPC  C316 3659   5.878  -0.425   8.570  0.3063  0.3346  0.3594
   27SAPC  H16X 3660   5.886  -0.535   8.563  1.1614  0.4309 -0.2320
   27SAPC  H16Y 3661   5.853  -0.388   8.468 -0.0676 -2.4875 -0.5980
   27SAPC  C317 3662   5.762  -0.392   8.669 -0.7183 -0.3763 -0.2270
   27SAPC  H17X 3663   5.738  -0.284   8.666  0.9935  0.0412  0.3049
   27SAPC  H17Y 3664   5.799  -0.431   8.766  1.6234 -1.7497 -1.6138
   27SAPC  C318 3665   5.631  -0.470   8.648 -0.1981  0.2574 -0.2972
   27SAPC  H18X 3666   5.588  -0.428   8.554  0.9755 -1.3571 -1.5866
   27SAPC  H18Y 3667   5.566  -0.440   8.733  0.5567  1.4094 -0.1134
   27SAPC  H18Z 3668   5.645  -0.579   8.656  0.6593  0.2950 -1.1721
   28SAPC     N 3669   5.657   3.629   5.913  0.5737 -0.2688 -0.1444
   28SAPC   C12 3670   5.570   3.572   6.030  0.0021 -0.9978  0.0073
   28SAPC  H12A 3671   5.524   3.486   5.983 -1.8918  0.0687 -0.1185
   28SAPC  H12B 3672   5.494   3.637   6.069 -0.6439 -0.4763 -2.0627
   28SAPC   C13 3673   5.761   3.539   5.867  0.0916 -0.0211 -0.4163
   28SAPC  H13A 3674   5.840   3.596   5.821 -0.4427  0.6496 -0.4966
   28SAPC  H13B 3675   5.807   3.476   5.942 -1.5153 -0.0311  0.5735
   28SAPC  H13C 3676   5.712   3.465   5.806  0.5560 -1.3759  0.8025
   28SAPC   C14 3677   5.560   3.651   5.802 -0.5230  0.0151 -0.1776
   28SAPC  H14A 3678   5.541   3.557   5.752 -2.8943 -0.7928  2.1227
   28SAPC  H14B 3679   5.466   3.686   5.842  0.5823  1.3383  1.3103
   28SAPC  H14C 3680   5.601   3.718   5.728  0.9464 -2.2299 -1.4421
   28SAPC   C15 3681   5.721   3.756   5.956  0.1181 -0.2935  0.1930
   28SAPC  H15A 3682   5.649   3.835   5.970 -0.6363 -1.1612  1.2319
   28SAPC  H15B 3683   5.793   3.740   6.035 -0.5034 -2.5641  0.3249
   28SAPC  H15C 3684   5.774   3.796   5.871 -2.6506  4.0253  0.3684
   28SAPC   C11 3685   5.644   3.527   6.157  0.5963  0.2945  0.2633
   28SAPC  H11A 3686   5.580   3.529   6.248  0.1942  1.0427 -0.0281
   28SAPC  H11B 3687   5.721   3.606   6.162  2.7715 -1.6124 -1.6617
   28SAPC     P 3688   5.623   3.262   6.127 -0.2980  0.2713  0.4519
   28SAPC   O13 3689   5.489   3.296   6.069  0.1666 -0.0987  0.0524
   28SAPC   O14 3690   5.697   3.159   6.053 -0.0979 -0.3944  0.1545
   28SAPC   O12 3691   5.712   3.399   6.141 -0.4730  0.4362  0.0642
   28SAPC   O11 3692   5.602   3.223   6.279  0.6518 -0.0829 -0.4890
   28SAPC    C1 3693   5.708   3.184   6.359 -0.2782 -0.5632  0.0162
   28SAPC    HA 3694   5.703   3.075   6.380  1.0276 -0.5866  0.2287
   28SAPC    HB 3695   5.809   3.210   6.322 -0.3704  1.2560  0.9527
   28SAPC    C2 3696   5.705   3.253   6.503 -0.0345  0.3572 -0.5715
   28SAPC    HS 3697   5.809   3.264   6.539  0.1165  1.2671 -1.2613
   28SAPC   O21 3698   5.616   3.166   6.578  0.3868 -0.1156  0.0472
   28SAPC   C21 3699   5.664   3.132   6.707 -0.1342 -0.1127  0.1365
   28SAPC   O22 3700   5.775   3.155   6.746 -0.4004 -0.1844 -0.4857
   28SAPC   C22 3701   5.549   3.076   6.798 -0.8036  0.3972  0.4301
   28SAPC   H2R 3702   5.451   3.101   6.751 -1.5316 -0.6137  1.4153
   28SAPC   H2S 3703   5.573   2.968   6.796  2.6210  1.1096 -0.3624
   28SAPC    C3 3704   5.648   3.395   6.504  0.2868  0.9009  0.7501
   28SAPC    HX 3705   5.546   3.391   6.459  0.1328  2.2888  0.9388
   28SAPC    HY 3706   5.709   3.463   6.441 -0.3455 -1.1007 -2.1171
   28SAPC   O31 3707   5.623   3.449   6.632  0.5303 -0.0943  0.2384
   28SAPC   C31 3708   5.731   3.502   6.694  0.8080 -0.2694  0.3565
   28SAPC   O32 3709   5.834   3.531   6.641 -0.2366 -0.0610 -0.2442
   28SAPC   C32 3710   5.707   3.503   6.850  0.4530 -0.6354  0.2294
   28SAPC   H2X 3711   5.605   3.462   6.868 -1.2297  3.2594  0.2021
   28SAPC   H2Y 3712   5.704   3.612   6.872  0.1978 -0.7105  0.5694
   28SAPC   C23 3713   5.548   3.123   6.948 -0.0623 -0.3191 -0.3840
   28SAPC   H3R 3714   5.549   3.234   6.950  0.4477 -0.3365  0.3517
   28SAPC   H3S 3715   5.634   3.082   7.005 -0.5403  3.0360  2.9137
   28SAPC   C24 3716   5.422   3.076   7.026 -0.7900 -0.2031  0.6350
   28SAPC   H4R 3717   5.433   3.123   7.127  0.2818 -0.0875  0.4750
   28SAPC   H4S 3718   5.331   3.122   6.983  0.8392  2.8449  0.2374
   28SAPC   C25 3719   5.415   2.925   7.033  0.4490 -0.3129  0.0058
   28SAPC   H5R 3720   5.352   2.884   6.953  2.2600 -1.8801 -0.6582
   28SAPC   C26 3721   5.452   2.837   7.127  1.0066  0.2115 -0.4864
   28SAPC   H6R 3722   5.423   2.732   7.110  0.2081  0.4756 -0.7907
   28SAPC   C27 3723   5.522   2.874   7.252 -0.1250  0.0700  0.1534
   28SAPC   H7R 3724   5.446   2.888   7.332  0.3179 -1.7080  0.9176
   28SAPC   H7S 3725   5.582   2.967   7.235  0.3853 -0.0204  1.4129
   28SAPC   C28 3726   5.615   2.759   7.294 -0.3074 -0.2202 -0.4658
   28SAPC   H8R 3727   5.629   2.673   7.227 -2.1041  0.1054 -1.2732
   28SAPC   C29 3728   5.668   2.755   7.421  0.3475  0.0905 -0.1406
   28SAPC   H9R 3729   5.728   2.663   7.432  0.2987  0.1276  0.4239
   28SAPC  C210 3730   5.668   2.865   7.534  0.0124  0.0526 -0.1864
   28SAPC  H10R 3731   5.611   2.822   7.619 -0.1859  0.3537 -0.1686
   28SAPC  H10S 3732   5.602   2.953   7.517 -0.9676 -0.6976 -0.2607
   28SAPC  C211 3733   5.805   2.908   7.576 -0.6819 -0.8239  0.8493
   28SAPC  H11R 3734   5.882   2.878   7.504  0.4104  0.3373  1.5177
   28SAPC  C212 3735   5.840   2.962   7.692  0.3354  0.3399 -0.1501
   28SAPC  H12R 3736   5.947   2.975   7.714  0.3455 -1.1249  0.7804
   28SAPC  C213 3737   5.745   3.008   7.802  0.8458 -0.3123  0.0116
   28SAPC  H13R 3738   5.640   3.016   7.767  0.0570  1.0181  2.5171
   28SAPC  H13S 3739   5.780   3.101   7.852  0.5775 -1.1614  1.8323
   28SAPC  C214 3740   5.720   2.907   7.906  0.7273  0.1262 -0.6251
   28SAPC  H14R 3741   5.672   2.820   7.859  1.0819  1.1358 -2.9233
   28SAPC  C215 3742   5.743   2.913   8.035  0.0724  0.1183 -0.4780
   28SAPC  H15R 3743   5.719   2.823   8.093 -2.5030  1.3374  0.4007
   28SAPC  C216 3744   5.801   3.026   8.122 -0.3800 -0.0827 -0.6686
   28SAPC  H16R 3745   5.723   3.094   8.161  1.1562  0.5731  1.3512
   28SAPC  H16S 3746   5.872   3.090   8.065  0.0178 -1.7238 -2.0798
   28SAPC  C217 3747   5.876   2.973   8.241  0.3473 -0.8987  0.0155
   28SAPC  H17R 3748   5.808   2.949   8.326  1.2750 -1.0158  0.7230
   28SAPC  H17S 3749   5.938   3.055   8.282  3.0719 -3.7277  1.7965
   28SAPC  C218 3750   5.969   2.845   8.225  0.4171 -0.8326  0.3741
   28SAPC  H18R 3751   5.917   2.757   8.183  0.3859  0.1848 -1.7990
   28SAPC  H18S 3752   6.003   2.813   8.325 -1.5892  1.6490  1.9168
   28SAPC  C219 3753   6.106   2.867   8.152 -0.1069 -0.0770  0.8030
   28SAPC  H19R 3754   6.147   2.955   8.207 -0.0193  0.6044 -0.3285
   28SAPC  H19S 3755   6.092   2.899   8.046  1.4612 -0.9810  0.2952
   28SAPC  C220 3756   6.205   2.754   8.156 -0.2619 -0.6964 -0.6204
   28SAPC  H20R 3757   6.302   2.775   8.105  1.7426 -4.2755  1.5097
   28SAPC  H20S 3758   6.157   2.667   8.106  1.5584 -2.9448  1.4044
   28SAPC  H20T 3759   6.234   2.733   8.261  1.5286 -0.3585 -1.0361
   28SAPC   C33 3760   5.804   3.420   6.944  0.3396 -0.0291  0.1901
   28SAPC   H3X 3761   5.903   3.446   6.900  1.3711 -2.9929  0.6863
   28SAPC   H3Y 3762   5.782   3.312   6.951 -2.0264  0.5333  2.3045
   28SAPC   C34 3763   5.804   3.472   7.090  0.6959  0.0885  0.2801
   28SAPC   H4X 3764   5.800   3.583   7.091  0.6181  0.0921 -0.4254
   28SAPC   H4Y 3765   5.900   3.449   7.142  2.4537  2.2877 -1.8342
   28SAPC   C35 3766   5.684   3.429   7.176 -0.3857 -0.0090 -1.0079
   28SAPC   H5X 3767   5.690   3.320   7.196 -0.6533  0.0807 -0.4405
   28SAPC   H5Y 3768   5.588   3.443   7.123  0.0941  1.9758 -1.4029
   28SAPC   C36 3769   5.679   3.502   7.310 -0.4741  0.9195  0.3876
   28SAPC   H6X 3770   5.653   3.607   7.286 -1.0240  0.7012  0.0183
   28SAPC   H6Y 3771   5.780   3.507   7.356 -0.5527 -0.9415  0.8170
   28SAPC   C37 3772   5.585   3.449   7.424  0.9681  0.0754  0.1432
   28SAPC   H7X 3773   5.483   3.437   7.380  1.5234 -1.2411 -0.8132
   28SAPC   H7Y 3774   5.579   3.531   7.498  3.1639 -0.3592  0.8372
   28SAPC   C38 3775   5.628   3.318   7.486  0.2990  0.7283  0.3739
   28SAPC   H8X 3776   5.737   3.325   7.507  0.8349  1.2667 -2.4070
   28SAPC   H8Y 3777   5.636   3.233   7.415  0.1527  1.5911 -0.6914
   28SAPC   C39 3778   5.545   3.288   7.606  0.8229  1.2179 -0.6114
   28SAPC   H9X 3779   5.570   3.184   7.635  0.9193  1.5500  0.4998
   28SAPC   H9Y 3780   5.440   3.296   7.572  0.8959 -1.1872 -1.4543
   28SAPC  C310 3781   5.570   3.383   7.725  0.0764 -0.1313 -0.2705
   28SAPC  H10X 3782   5.593   3.485   7.687  0.3000  0.0005  0.2186
   28SAPC  H10Y 3783   5.655   3.349   7.788  0.0286  2.0795  1.0419
   28SAPC  C311 3784   5.454   3.374   7.829  0.6870 -0.4424 -0.0231
   28SAPC  H11X 3785   5.356   3.405   7.787  1.1659  1.9363  0.5540
   28SAPC  H11Y 3786   5.465   3.443   7.915  1.4026 -0.9902  0.3373
   28SAPC  C312 3787   5.455   3.243   7.904 -0.3735  0.0686 -0.1406
   28SAPC  H12X 3788   5.554   3.233   7.953  0.9994  1.8429 -2.4606
   28SAPC  H12Y 3789   5.449   3.155   7.837  2.8214 -0.1623 -0.2092
   28SAPC  C313 3790   5.354   3.231   8.026  0.2701  0.2092 -0.7610
   28SAPC  H13X 3791   5.256   3.262   7.984  0.3660  0.5044 -0.7638
   28SAPC  H13Y 3792   5.370   3.306   8.106  0.7505 -1.2128  0.5034
   28SAPC  C314 3793   5.329   3.087   8.066 -0.1466 -0.9464 -0.0795
   28SAPC  H14X 3794   5.426   3.034   8.082 -0.9159 -2.7324 -1.1102
   28SAPC  H14Y 3795   5.273   3.035   7.985 -0.9336 -0.6751  0.2867
   28SAPC  C315 3796   5.242   3.069   8.194 -0.2342  0.0529  0.5019
   28SAPC  H15X 3797   5.223   2.960   8.205  1.5927 -0.0904  2.4944
   28SAPC  H15Y 3798   5.143   3.112   8.167  0.0283  1.4515  1.6486
   28SAPC  C316 3799   5.299   3.129   8.323  0.1524 -0.1853 -0.5868
   28SAPC  H16X 3800   5.281   3.238   8.323  1.5547  0.0582 -0.2934
   28SAPC  H16Y 3801   5.410   3.120   8.325  0.1414 -0.7638 -1.9826
   28SAPC  C317 3802   5.236   3.080   8.446  0.1618 -0.2433  0.0829
   28SAPC  H17X 3803   5.251   2.972   8.468  0.4290 -0.4102 -0.8979
   28SAPC  H17Y 3804   5.127   3.099   8.436  0.3545  0.7373 -0.2242
   28SAPC  C318 3805   5.290   3.157   8.569 -0.0691 -0.1927 -0.3070
   28SAPC  H18X 3806   5.233   3.121   8.657  1.9137 -0.3893  0.9357
   28SAPC  H18Y 3807   5.284   3.267   8.555  2.0370  0.0033  0.1585
   28SAPC  H18Z 3808   5.396   3.132   8.592 -0.1318  0.2606  0.5358
   29SAPC     N 3809   1.737   6.298   6.545 -0.4752  0.3062  0.2751
   29SAPC   C12 3810   1.682   6.366   6.417  0.5782 -0.2713  0.2068
   29SAPC  H12A 3811   1.634   6.301   6.346  0.0156  1.0846 -0.6891
   29SAPC  H12B 3812   1.768   6.411   6.368  0.1998 -0.3591 -0.5538
   29SAPC   C13 3813   1.797   6.398   6.642 -0.2673  0.4112  0.6825
   29SAPC  H13A 3814   1.879   6.445   6.589 -0.5914  0.1378 -0.0699
   29SAPC  H13B 3815   1.717   6.459   6.680 -1.4305 -0.6338 -0.0653
   29SAPC  H13C 3816   1.844   6.341   6.722 -1.2637 -0.9047  0.3509
   29SAPC   C14 3817   1.628   6.221   6.620 -0.4186  0.5701 -0.4326
   29SAPC  H14A 3818   1.541   6.284   6.630  0.6331  1.8395  1.0617
   29SAPC  H14B 3819   1.607   6.128   6.570 -3.0143  0.5115  0.7395
   29SAPC  H14C 3820   1.668   6.193   6.716 -1.7696  0.2644  0.0377
   29SAPC   C15 3821   1.844   6.207   6.498 -0.6259 -0.3440 -0.3141
   29SAPC  H15A 3822   1.804   6.133   6.431 -1.1131 -1.9314  1.6563
   29SAPC  H15B 3823   1.930   6.254   6.452 -2.1941  2.9058 -0.0012
   29SAPC  H15C 3824   1.885   6.146   6.578  1.4829  3.4830  1.6703
   29SAPC   C11 3825   1.583   6.481   6.438 -0.0944 -0.4202 -0.3157
   29SAPC  H11A 3826   1.635   6.566   6.487  0.1200 -1.4557  1.3213
   29SAPC  H11B 3827   1.503   6.448   6.508 -1.0505 -0.7530 -1.5512
   29SAPC     P 3828   1.399   6.590   6.284 -0.0177  0.1262  0.3274
   29SAPC   O13 3829   1.427   6.714   6.205  0.5486 -0.4419 -0.6917
   29SAPC   O14 3830   1.308   6.488   6.229 -0.0939 -0.2049 -0.1039
   29SAPC   O12 3831   1.533   6.520   6.306 -0.3493  0.3802 -1.0354
   29SAPC   O11 3832   1.353   6.631   6.429  0.3012  0.2172 -0.6153
   29SAPC    C1 3833   1.253   6.561   6.500 -0.5599  0.4163  0.1809
   29SAPC    HA 3834   1.152   6.578   6.456 -1.2521 -2.2147  0.6375
   29SAPC    HB 3835   1.268   6.451   6.506 -1.9234  0.2429  0.6175
   29SAPC    C2 3836   1.237   6.620   6.642 -0.5138 -0.0994 -0.0840
   29SAPC    HS 3837   1.180   6.715   6.628  1.5175  1.0533 -0.6628
   29SAPC   O21 3838   1.361   6.649   6.710 -0.2610  0.7366  0.4900
   29SAPC   C21 3839   1.424   6.764   6.683 -0.5002  0.9299  0.3050
   29SAPC   O22 3840   1.387   6.849   6.605 -0.2858  0.2434  0.8835
   29SAPC   C22 3841   1.554   6.765   6.758 -0.2219 -0.1604 -0.2220
   29SAPC   H2R 3842   1.549   6.813   6.858  0.6767 -1.9163  0.6964
   29SAPC   H2S 3843   1.571   6.658   6.780 -2.6442 -0.8544 -1.6082
   29SAPC    C3 3844   1.143   6.535   6.731 -0.2873  0.3741  0.6741
   29SAPC    HX 3845   1.170   6.428   6.718 -1.8268  0.1783 -1.0522
   29SAPC    HY 3846   1.037   6.537   6.697 -0.1703 -0.6004  0.2416
   29SAPC   O31 3847   1.131   6.579   6.866  0.0872 -0.8226  0.4546
   29SAPC   C31 3848   1.197   6.518   6.949  1.1535  0.0523 -0.7723
   29SAPC   O32 3849   1.291   6.438   6.937 -0.0129 -0.1066  0.4085
   29SAPC   C32 3850   1.136   6.551   7.088  0.5317 -0.6758 -0.0849
   29SAPC   H2X 3851   1.035   6.505   7.084  0.8095 -1.2891 -0.0792
   29SAPC   H2Y 3852   1.103   6.657   7.085  0.9488 -0.5886 -1.7617
   29SAPC   C23 3853   1.672   6.828   6.677 -0.6406 -0.5255  0.6111
   29SAPC   H3R 3854   1.645   6.931   6.646 -0.3247 -0.5728  0.1760
   29SAPC   H3S 3855   1.687   6.777   6.580  0.7257  0.7983  0.1025
   29SAPC   C24 3856   1.805   6.823   6.764  0.2627  0.4028 -0.1715
   29SAPC   H4R 3857   1.824   6.717   6.791  0.8738  0.8571  1.1773
   29SAPC   H4S 3858   1.789   6.872   6.862  0.9142 -0.2600  0.2734
   29SAPC   C25 3859   1.908   6.903   6.697 -0.1594  0.6042  0.6253
   29SAPC   H5R 3860   1.892   7.008   6.672  0.2077  0.5795  0.2777
   29SAPC   C26 3861   2.035   6.857   6.677  0.5826 -0.0525  0.9619
   29SAPC   H6R 3862   2.104   6.925   6.625 -0.8278 -0.4809 -1.5816
   29SAPC   C27 3863   2.092   6.722   6.711 -0.3074  0.2524  0.4596
   29SAPC   H7R 3864   2.083   6.645   6.632 -2.0941  0.4500  0.4330
   29SAPC   H7S 3865   2.036   6.674   6.795  0.0302  1.1394  1.2040
   29SAPC   C28 3866   2.245   6.725   6.731 -0.1427 -0.4075 -0.5938
   29SAPC   H8R 3867   2.296   6.774   6.647  0.6666  1.6136  1.0338
   29SAPC   C29 3868   2.319   6.673   6.833  0.0141 -0.1809 -0.3760
   29SAPC   H9R 3869   2.429   6.680   6.833 -0.0425  1.0306 -1.8139
   29SAPC  C210 3870   2.258   6.590   6.946 -1.0762  0.0366 -0.2336
   29SAPC  H10R 3871   2.338   6.513   6.956  0.7029  1.6832 -1.3884
   29SAPC  H10S 3872   2.162   6.535   6.934 -0.0414 -1.6553 -0.9719
   29SAPC  C211 3873   2.254   6.679   7.070 -0.0022  0.0538 -0.3196
   29SAPC  H11R 3874   2.231   6.784   7.050 -1.0307 -0.2703 -0.8527
   29SAPC  C212 3875   2.267   6.636   7.199  0.1070 -0.7865  0.4112
   29SAPC  H12R 3876   2.252   6.713   7.276  1.4690  0.1066 -0.1878
   29SAPC  C213 3877   2.301   6.499   7.244 -0.1035 -0.6041  0.4250
   29SAPC  H13R 3878   2.292   6.422   7.164 -0.5932 -0.0254 -0.0813
   29SAPC  H13S 3879   2.244   6.461   7.331  1.9250 -0.0270  2.0666
   29SAPC  C214 3880   2.448   6.501   7.291 -0.0703  0.1331  0.3246
   29SAPC  H14R 3881   2.524   6.515   7.213 -0.2865  0.0677  0.1013
   29SAPC  C215 3882   2.497   6.488   7.419  0.0495 -0.6513  0.1218
   29SAPC  H15R 3883   2.606   6.489   7.431  0.1750 -2.0810 -0.7419
   29SAPC  C216 3884   2.412   6.466   7.539 -0.4197  0.3522  0.1992
   29SAPC  H16R 3885   2.372   6.363   7.546 -3.3658  1.4972  1.1371
   29SAPC  H16S 3886   2.328   6.540   7.535 -0.7765 -0.1399 -3.3049
   29SAPC  C217 3887   2.478   6.506   7.674  0.6826 -0.0667  0.2982
   29SAPC  H17R 3888   2.567   6.442   7.688 -0.7657 -2.3470 -0.7139
   29SAPC  H17S 3889   2.409   6.497   7.761 -0.5007  1.4950 -0.4467
   29SAPC  C218 3890   2.511   6.660   7.673 -0.1869  0.2121 -0.1903
   29SAPC  H18R 3891   2.434   6.727   7.631  2.2736  3.7982  0.8180
   29SAPC  H18S 3892   2.603   6.682   7.615 -1.6772  0.5611 -2.4813
   29SAPC  C219 3893   2.550   6.712   7.822  0.2572 -0.0896 -0.2976
   29SAPC  H19R 3894   2.456   6.703   7.879  0.2124  0.6764 -0.2551
   29SAPC  H19S 3895   2.578   6.819   7.818 -3.2671  0.9164  0.1723
   29SAPC  C220 3896   2.667   6.625   7.880  0.3721  0.6791  0.4963
   29SAPC  H20R 3897   2.621   6.527   7.905  3.1787 -1.3051 -1.6478
   29SAPC  H20S 3898   2.710   6.672   7.971  1.7972 -2.2195  1.3811
   29SAPC  H20T 3899   2.749   6.607   7.806  1.0332 -0.0753  1.4030
   29SAPC   C33 3900   1.232   6.540   7.212 -0.9447 -0.7294 -0.3909
   29SAPC   H3X 3901   1.308   6.622   7.211 -0.6307 -1.0142 -2.1444
   29SAPC   H3Y 3902   1.271   6.436   7.204  3.0104  0.7040 -1.0950
   29SAPC   C34 3903   1.154   6.554   7.342 -0.5336  1.0135  0.3182
   29SAPC   H4X 3904   1.061   6.493   7.347  2.0251 -3.2261 -1.5482
   29SAPC   H4Y 3905   1.101   6.651   7.338 -0.7288  0.8658 -0.6819
   29SAPC   C35 3906   1.219   6.536   7.476 -0.1216  0.0437 -0.7621
   29SAPC   H5X 3907   1.144   6.551   7.556 -1.0895 -0.0339 -1.6497
   29SAPC   H5Y 3908   1.302   6.607   7.494 -0.3837 -0.0298  0.7776
   29SAPC   C36 3909   1.286   6.395   7.492  0.5342 -0.1905  1.0291
   29SAPC   H6X 3910   1.367   6.400   7.416 -2.0101  1.3760 -1.6902
   29SAPC   H6Y 3911   1.219   6.309   7.470 -1.5520  1.3211  1.2929
   29SAPC   C37 3912   1.355   6.373   7.626 -0.0148 -0.6730 -0.9884
   29SAPC   H7X 3913   1.438   6.447   7.633 -1.0908  0.4773 -0.3148
   29SAPC   H7Y 3914   1.399   6.271   7.626  1.7295  0.0527  0.9295
   29SAPC   C38 3915   1.267   6.381   7.751  0.1281  0.0708 -0.6158
   29SAPC   H8X 3916   1.227   6.483   7.771 -2.5912 -0.8307 -1.2742
   29SAPC   H8Y 3917   1.338   6.360   7.834 -1.4783  0.3808  0.8542
   29SAPC   C39 3918   1.159   6.286   7.761 -0.3415 -0.2706  0.3961
   29SAPC   H9X 3919   1.218   6.192   7.765 -0.5489 -0.4199 -0.1172
   29SAPC   H9Y 3920   1.084   6.285   7.680  0.0424  0.0798  0.0364
   29SAPC  C310 3921   1.073   6.292   7.892 -0.1137  0.7606 -0.1901
   29SAPC  H10X 3922   0.993   6.219   7.872  0.0552  0.3689  0.5590
   29SAPC  H10Y 3923   1.026   6.393   7.891  0.8373  1.2216 -1.6102
   29SAPC  C311 3924   1.163   6.268   8.015 -0.3410  0.1538  0.0486
   29SAPC  H11X 3925   1.233   6.353   8.024 -0.8930  0.5763  0.3636
   29SAPC  H11Y 3926   1.230   6.182   7.997 -1.8958 -0.7623 -1.5995
   29SAPC  C312 3927   1.089   6.249   8.151  1.3611  0.4606  0.0951
   29SAPC  H12X 3928   1.022   6.337   8.162 -1.0947 -0.9477 -2.9066
   29SAPC  H12Y 3929   1.169   6.247   8.229 -1.1016 -2.6201  2.7010
   29SAPC  C313 3930   1.002   6.128   8.159 -0.0268 -0.1216 -0.2785
   29SAPC  H13X 3931   1.036   6.048   8.090  0.3151  0.8992 -1.3189
   29SAPC  H13Y 3932   0.905   6.148   8.108  0.3443 -1.4816 -1.5451
   29SAPC  C314 3933   0.978   6.065   8.299  1.2803 -0.9189 -0.8554
   29SAPC  H14X 3934   1.080   6.047   8.339  0.8306  1.2619  1.3621
   29SAPC  H14Y 3935   0.910   5.978   8.289  1.5857 -1.2211 -0.3156
   29SAPC  C315 3936   0.905   6.177   8.375 -0.0554 -0.0643  0.2092
   29SAPC  H15X 3937   0.804   6.192   8.331 -0.5877 -2.2329  0.6590
   29SAPC  H15Y 3938   0.965   6.271   8.366 -0.4434  0.0118 -2.0596
   29SAPC  C316 3939   0.878   6.149   8.521 -0.7536  0.3496  0.2069
   29SAPC  H16X 3940   0.975   6.118   8.566 -0.9961 -1.5294 -0.5651
   29SAPC  H16Y 3941   0.804   6.068   8.536 -1.3079  0.8224  0.0575
   29SAPC  C317 3942   0.835   6.281   8.594 -0.3389  0.0514  0.3409
   29SAPC  H17X 3943   0.734   6.311   8.560 -0.4862 -0.0849  0.6605
   29SAPC  H17Y 3944   0.901   6.356   8.544  0.3035 -0.1846  0.8352
   29SAPC  C318 3945   0.846   6.268   8.750 -0.0221  0.0540  0.3631
   29SAPC  H18X 3946   0.780   6.184   8.781  1.2714 -0.6517  1.2074
   29SAPC  H18Y 3947   0.806   6.353   8.810  2.6981  1.0721  0.7914
   29SAPC  H18Z 3948   0.956   6.255   8.762  0.3616  0.8683 -1.9923
   30SAPC     N 3949   2.720   6.767   5.962 -0.0033 -0.5223  0.1690
   30SAPC   C12 3950   2.805   6.758   6.092 -0.8752  0.7164 -0.5059
   30SAPC  H12A 3951   2.771   6.674   6.151 -0.2240  2.1559  1.9640
   30SAPC  H12B 3952   2.762   6.826   6.163 -1.8284 -1.1145  0.7183
   30SAPC   C13 3953   2.705   6.908   5.915 -0.6242  0.0277 -0.3047
   30SAPC  H13A 3954   2.803   6.942   5.886  0.5246 -0.5929  2.6161
   30SAPC  H13B 3955   2.643   6.907   5.827 -0.0776  0.8888 -0.7069
   30SAPC  H13C 3956   2.673   6.977   5.991  4.6008  2.0799  0.3026
   30SAPC   C14 3957   2.781   6.669   5.865 -0.3150 -0.4054  0.8228
   30SAPC  H14A 3958   2.736   6.656   5.768 -3.4783  0.3130  2.1246
   30SAPC  H14B 3959   2.878   6.712   5.846  0.2012 -1.5798  0.7731
   30SAPC  H14C 3960   2.808   6.573   5.908 -0.3453 -0.3224  1.0296
   30SAPC   C15 3961   2.578   6.720   5.996 -0.2094 -0.2153 -0.1157
   30SAPC  H15A 3962   2.590   6.645   6.073  0.4029 -2.0132 -1.9228
   30SAPC  H15B 3963   2.530   6.806   6.041 -0.0519  0.8344 -1.9042
   30SAPC  H15C 3964   2.515   6.677   5.920 -0.2100  0.5425 -0.5521
   30SAPC   C11 3965   2.953   6.793   6.089  0.3064 -0.0950 -0.3834
   30SAPC  H11A 3966   2.991   6.723   6.011  0.0977  0.2771 -0.8198
   30SAPC  H11B 3967   2.992   6.761   6.188 -1.2346 -0.4197  0.1354
   30SAPC     P 3968   2.973   7.052   6.159 -0.2905 -0.2775  0.2439
   30SAPC   O13 3969   3.070   7.159   6.127  0.0390  0.0082  0.1614
   30SAPC   O14 3970   2.830   7.086   6.162 -0.2035 -0.3068 -0.2146
   30SAPC   O12 3971   2.981   6.932   6.057  1.0485  0.1650 -0.3375
   30SAPC   O11 3972   3.001   6.991   6.299 -0.1997  0.3395 -0.1556
   30SAPC    C1 3973   3.134   6.937   6.323  0.0411 -0.4467  0.7256
   30SAPC    HA 3974   3.152   6.838   6.277  1.6216 -0.1606  0.7218
   30SAPC    HB 3975   3.207   7.002   6.270 -1.8678  0.1094 -1.3300
   30SAPC    C2 3976   3.173   6.932   6.472 -0.6025  0.0675 -0.5040
   30SAPC    HS 3977   3.272   6.885   6.487 -0.6238 -0.3918 -1.7145
   30SAPC   O21 3978   3.075   6.857   6.550 -0.3371 -0.0594  0.0749
   30SAPC   C21 3979   3.060   6.732   6.519 -0.2587 -0.2654  0.1182
   30SAPC   O22 3980   3.124   6.661   6.445 -0.2692  0.4005 -0.2552
   30SAPC   C22 3981   2.946   6.672   6.605  0.0422 -0.8439  0.6129
   30SAPC   H2R 3982   2.939   6.733   6.697 -1.7210 -0.0655 -0.0098
   30SAPC   H2S 3983   2.853   6.698   6.549 -1.0092 -0.9321  2.2912
   30SAPC    C3 3984   3.196   7.075   6.527  0.9859  0.1567 -0.6327
   30SAPC    HX 3985   3.100   7.129   6.514  0.2806 -0.4266  1.9440
   30SAPC    HY 3986   3.280   7.128   6.476  2.3516  2.0961  3.4178
   30SAPC   O31 3987   3.235   7.057   6.660 -0.9927 -0.6017 -0.4224
   30SAPC   C31 3988   3.267   7.168   6.715  0.2194 -0.0603  0.4593
   30SAPC   O32 3989   3.262   7.278   6.657  0.1672  0.1471  0.1585
   30SAPC   C32 3990   3.312   7.158   6.860 -0.0532 -0.4278  0.7804
   30SAPC   H2X 3991   3.423   7.167   6.858 -0.1086  0.1382 -0.1258
   30SAPC   H2Y 3992   3.280   7.065   6.912  0.5368 -0.5414  0.9418
   30SAPC   C23 3993   2.967   6.519   6.634 -0.2296  0.0676 -0.2764
   30SAPC   H3R 3994   2.973   6.468   6.535 -2.5319 -0.3133 -0.2511
   30SAPC   H3S 3995   2.864   6.490   6.664 -0.2859  0.3234 -0.2271
   30SAPC   C24 3996   3.089   6.493   6.726  0.2412 -0.4251 -0.7657
   30SAPC   H4R 3997   3.070   6.543   6.824  0.4015 -0.5592 -0.6663
   30SAPC   H4S 3998   3.174   6.541   6.674  0.2712 -0.6087 -0.8847
   30SAPC   C25 3999   3.110   6.346   6.758 -0.0035  0.2186 -0.1239
   30SAPC   H5R 4000   3.143   6.282   6.675 -2.7465 -0.9309 -0.3836
   30SAPC   C26 4001   3.085   6.287   6.875 -0.0514 -0.1618 -0.1695
   30SAPC   H6R 4002   3.084   6.177   6.871 -2.1304 -0.2404  1.6528
   30SAPC   C27 4003   3.028   6.334   7.004 -0.7016  0.5538  0.3103
   30SAPC   H7R 4004   2.926   6.377   6.994 -1.5718 -1.8775 -2.2048
   30SAPC   H7S 4005   3.075   6.428   7.038 -0.6782  0.2051  1.2743
   30SAPC   C28 4006   3.012   6.234   7.114  0.0913  0.0989 -0.8421
   30SAPC   H8R 4007   3.008   6.130   7.081 -0.5082 -0.4561  0.9374
   30SAPC   C29 4008   3.005   6.262   7.247 -0.2279 -0.8974 -0.5166
   30SAPC   H9R 4009   2.983   6.179   7.315  1.5757 -1.9584 -1.2051
   30SAPC  C210 4010   3.012   6.399   7.315  0.1494  0.0132  0.0396
   30SAPC  H10R 4011   2.994   6.481   7.242  0.1443 -0.6722 -0.7314
   30SAPC  H10S 4012   3.116   6.414   7.351  0.0122 -2.3655  1.5638
   30SAPC  C211 4013   2.907   6.389   7.429 -0.8439 -0.7146  0.8043
   30SAPC  H11R 4014   2.814   6.333   7.413 -0.0853 -1.0674 -2.9332
   30SAPC  C212 4015   2.931   6.442   7.548  0.5143  0.0144  0.3328
   30SAPC  H12R 4016   2.855   6.436   7.627  1.2477 -0.2199  1.0394
   30SAPC  C213 4017   3.064   6.517   7.595 -0.4705 -0.5076 -0.2931
   30SAPC  H13R 4018   3.024   6.580   7.678  0.5578 -0.2812  0.0300
   30SAPC  H13S 4019   3.101   6.576   7.509 -0.1235 -0.3348 -0.0264
   30SAPC  C214 4020   3.156   6.415   7.646 -0.4210  0.1295 -0.3033
   30SAPC  H14R 4021   3.203   6.363   7.561  1.8111  2.4175 -0.5529
   30SAPC  C215 4022   3.183   6.401   7.776 -0.2799  0.3116  0.0197
   30SAPC  H15R 4023   3.245   6.318   7.813  1.0399  1.1159 -0.3203
   30SAPC  C216 4024   3.129   6.484   7.890  0.2495  0.4567 -0.4592
   30SAPC  H16R 4025   3.105   6.592   7.876 -0.1832  0.4230  0.0158
   30SAPC  H16S 4026   3.213   6.489   7.962  0.3374 -1.4263 -0.4023
   30SAPC  C217 4027   3.018   6.408   7.967  0.3012 -0.3582  0.3846
   30SAPC  H17R 4028   3.056   6.308   7.995  0.5905  0.2465  2.1776
   30SAPC  H17S 4029   2.925   6.391   7.909  2.1339 -2.6719 -2.0252
   30SAPC  C218 4030   2.989   6.476   8.104 -0.0272 -0.6444  0.5709
   30SAPC  H18R 4031   2.944   6.574   8.082 -2.3103 -1.6358  0.7099
   30SAPC  H18S 4032   3.077   6.487   8.172 -2.5281  0.5092  3.7136
   30SAPC  C219 4033   2.893   6.384   8.173  0.0938  0.3515 -0.4870
   30SAPC  H19R 4034   2.944   6.286   8.184 -1.6090 -0.6930 -1.6869
   30SAPC  H19S 4035   2.810   6.354   8.106  0.7289 -1.9447 -0.3099
   30SAPC  C220 4036   2.849   6.422   8.319 -0.4035  0.3376  0.1721
   30SAPC  H20R 4037   2.813   6.329   8.367  0.2774  0.6432  1.2761
   30SAPC  H20S 4038   2.765   6.495   8.310  0.0199  0.6515 -1.4722
   30SAPC  H20T 4039   2.926   6.464   8.386  0.7816  0.2293 -1.0936
   30SAPC   C33 4040   3.270   7.263   6.957  0.1144 -0.3639 -0.0250
   30SAPC   H3X 4041   3.162   7.255   6.981 -0.1005 -1.1739 -1.2219
   30SAPC   H3Y 4042   3.295   7.363   6.917 -0.7442 -1.1471 -2.5683
   30SAPC   C34 4043   3.343   7.255   7.097 -0.5123 -0.5574 -0.1131
   30SAPC   H4X 4044   3.322   7.339   7.166 -0.6682 -0.4225 -0.3229
   30SAPC   H4Y 4045   3.453   7.260   7.082 -0.3704 -0.1026  1.0196
   30SAPC   C35 4046   3.321   7.118   7.174 -0.1289  0.0110  0.2553
   30SAPC   H5X 4047   3.360   7.038   7.107 -1.1515 -0.2439 -0.0418
   30SAPC   H5Y 4048   3.212   7.106   7.191 -0.2358  2.9032  1.7898
   30SAPC   C36 4049   3.403   7.115   7.305 -0.8291  0.5129  0.7456
   30SAPC   H6X 4050   3.500   7.163   7.280 -0.8923  1.4439  2.2374
   30SAPC   H6Y 4051   3.432   7.015   7.344 -0.1055  1.2096  2.0419
   30SAPC   C37 4052   3.344   7.204   7.418 -0.1765  0.4157  0.2828
   30SAPC   H7X 4053   3.234   7.189   7.427 -0.7884  4.7104  1.0758
   30SAPC   H7Y 4054   3.365   7.314   7.418 -0.4832  0.4793  1.1592
   30SAPC   C38 4055   3.407   7.170   7.559  0.4951 -0.0276  0.4693
   30SAPC   H8X 4056   3.508   7.216   7.558  0.5221 -0.0491 -1.9822
   30SAPC   H8Y 4057   3.411   7.059   7.557  1.0053 -0.0066  0.2776
   30SAPC   C39 4058   3.320   7.221   7.674 -0.6137  0.1136 -0.2337
   30SAPC   H9X 4059   3.227   7.159   7.669 -0.2295 -0.5431  0.6614
   30SAPC   H9Y 4060   3.307   7.331   7.675 -2.3625 -0.0485  2.7536
   30SAPC  C310 4061   3.361   7.180   7.821 -0.1495 -0.1756  0.5831
   30SAPC  H10X 4062   3.426   7.090   7.821 -1.2473 -0.9957 -1.1925
   30SAPC  H10Y 4063   3.271   7.160   7.883 -1.1347 -0.6898 -0.9733
   30SAPC  C311 4064   3.425   7.295   7.898 -0.3981  0.3160 -0.2430
   30SAPC  H11X 4065   3.350   7.376   7.911 -1.8295 -1.4639  3.1563
   30SAPC  H11Y 4066   3.519   7.332   7.852  1.0683  0.2784  2.5914
   30SAPC  C312 4067   3.461   7.253   8.037 -0.1649  0.7629 -0.3070
   30SAPC  H12X 4068   3.548   7.185   8.043 -1.7191 -1.2132  0.5840
   30SAPC  H12Y 4069   3.377   7.192   8.078  0.2455 -0.8217 -1.7376
   30SAPC  C313 4070   3.490   7.360   8.141 -0.4924  0.3023  0.7192
   30SAPC  H13X 4071   3.521   7.310   8.235  1.4844  1.6274  0.7960
   30SAPC  H13Y 4072   3.391   7.406   8.161 -2.2887 -2.9866 -0.1469
   30SAPC  C314 4073   3.586   7.463   8.099  0.4666  0.1418  0.1616
   30SAPC  H14X 4074   3.561   7.511   8.002  3.3410 -0.4424 -0.9143
   30SAPC  H14Y 4075   3.681   7.408   8.081 -0.7533 -2.1006  0.4038
   30SAPC  C315 4076   3.598   7.576   8.201  0.0098  0.1154 -0.4049
   30SAPC  H15X 4077   3.509   7.641   8.210  0.0070 -0.0026  0.4255
   30SAPC  H15Y 4078   3.671   7.647   8.157 -0.2183  1.6430  1.6024
   30SAPC  C316 4079   3.639   7.518   8.336 -0.7906 -0.3196 -0.6922
   30SAPC  H16X 4080   3.739   7.470   8.328 -0.6305  0.0590 -1.0105
   30SAPC  H16Y 4081   3.560   7.446   8.367 -0.4861 -0.6597 -0.7036
   30SAPC  C317 4082   3.654   7.626   8.441  0.4878 -0.5139  0.0227
   30SAPC  H17X 4083   3.553   7.673   8.442  0.3198 -0.8678 -0.2689
   30SAPC  H17Y 4084   3.728   7.702   8.406 -1.7270  1.0113 -1.5407
   30SAPC  C318 4085   3.694   7.585   8.578 -1.1388  0.1539  0.0256
   30SAPC  H18X 4086   3.789   7.528   8.567 -1.9770 -0.9982 -1.4357
   30SAPC  H18Y 4087   3.623   7.517   8.631  1.0239 -2.3014 -0.1433
   30SAPC  H18Z 4088   3.723   7.670   8.642 -1.2569  0.9080 -0.9179
   31SAPC     N 4089   4.062   0.547   6.372  0.6076  0.0248 -0.4842
   31SAPC   C12 4090   3.917   0.542   6.417 -0.2764 -0.0627  0.2101
   31SAPC  H12A 4091   3.909   0.478   6.504  0.8746 -1.3373 -0.5973
   31SAPC  H12B 4092   3.864   0.497   6.336  2.1220  1.8355 -2.5223
   31SAPC   C13 4093   4.104   0.410   6.332  0.1429  0.0470  0.2926
   31SAPC  H13A 4094   4.185   0.400   6.262  0.6272  0.5851  0.7780
   31SAPC  H13B 4095   4.129   0.365   6.427  0.6967 -2.2512 -0.9152
   31SAPC  H13C 4096   4.021   0.356   6.289  1.6916 -2.0914 -0.1134
   31SAPC   C14 4097   4.063   0.631   6.239  0.4933  0.1128 -0.0126
   31SAPC  H14A 4098   3.982   0.601   6.175 -1.4104 -0.5743  2.6540
   31SAPC  H14B 4099   4.044   0.735   6.261 -1.8675 -0.2260 -0.3348
   31SAPC  H14C 4100   4.158   0.627   6.187  0.7562 -1.2738  0.5573
   31SAPC   C15 4101   4.157   0.600   6.467  0.1170  0.0448  0.0152
   31SAPC  H15A 4102   4.253   0.584   6.421 -0.1820  1.8590 -1.2883
   31SAPC  H15B 4103   4.146   0.707   6.475  2.2992  0.3198 -0.4885
   31SAPC  H15C 4104   4.164   0.545   6.560 -1.2403  1.7590  1.1639
   31SAPC   C11 4105   3.856   0.677   6.448 -0.1179 -0.8633  1.2928
   31SAPC  H11A 4106   3.933   0.757   6.462  1.7565 -2.5180  0.6714
   31SAPC  H11B 4107   3.808   0.665   6.548 -3.0303 -2.1102 -0.2138
   31SAPC     P 4108   3.627   0.795   6.402  0.0424  0.1069 -0.0114
   31SAPC   O13 4109   3.624   0.926   6.328  0.1166  0.0948  0.1540
   31SAPC   O14 4110   3.505   0.714   6.386  0.0337 -0.0212  0.3651
   31SAPC   O12 4111   3.758   0.714   6.360  0.7790 -0.3882 -0.3553
   31SAPC   O11 4112   3.655   0.835   6.553 -0.4055 -0.2861  0.0078
   31SAPC    C1 4113   3.690   0.969   6.602  0.7698  0.4657  0.4271
   31SAPC    HA 4114   3.633   1.053   6.558 -2.3176 -2.0782 -0.6262
   31SAPC    HB 4115   3.667   0.974   6.711 -0.4227  0.2679  0.1862
   31SAPC    C2 4116   3.840   1.008   6.574 -0.5102 -0.1982 -0.7477
   31SAPC    HS 4117   3.869   0.980   6.470 -0.4014  0.4826 -0.9036
   31SAPC   O21 4118   3.915   0.924   6.662  0.5578  0.0502 -0.0692
   31SAPC   C21 4119   4.041   0.924   6.644 -0.5858  0.5568  0.1079
   31SAPC   O22 4120   4.104   0.971   6.549  0.2675  0.1364 -0.3690
   31SAPC   C22 4121   4.104   0.818   6.735 -0.8201 -0.0362  0.0596
   31SAPC   H2R 4122   4.073   0.825   6.842  1.6397  0.3108  0.7944
   31SAPC   H2S 4123   4.053   0.727   6.698 -2.6262  0.8692  0.2686
   31SAPC    C3 4124   3.863   1.158   6.602 -0.4462  0.2681 -0.4427
   31SAPC    HX 4125   3.808   1.208   6.520 -1.7070 -1.9181 -0.9720
   31SAPC    HY 4126   3.971   1.187   6.605 -0.7815  1.6689 -1.4541
   31SAPC   O31 4127   3.780   1.197   6.719  0.5804  0.1939 -0.4153
   31SAPC   C31 4128   3.848   1.204   6.835  0.3308  0.1525  0.9764
   31SAPC   O32 4129   3.967   1.191   6.842  0.4511  0.4995  0.3627
   31SAPC   C32 4130   3.760   1.234   6.955 -0.1955  0.0312  0.0539
   31SAPC   H2X 4131   3.698   1.143   6.972 -2.3878  1.2575 -1.0769
   31SAPC   H2Y 4132   3.687   1.315   6.932 -1.3092 -0.9667 -0.0026
   31SAPC   C23 4133   4.262   0.804   6.749 -0.1037  0.0822  0.8319
   31SAPC   H3R 4134   4.299   0.823   6.646 -0.4116  1.6551  0.9967
   31SAPC   H3S 4135   4.294   0.698   6.763 -0.6994  0.0239  1.8267
   31SAPC   C24 4136   4.319   0.893   6.861  0.5795  0.1917 -0.6896
   31SAPC   H4R 4137   4.292   0.853   6.961 -0.2412 -0.2194 -1.0695
   31SAPC   H4S 4138   4.268   0.991   6.848 -2.3385 -1.2397 -0.6258
   31SAPC   C25 4139   4.472   0.914   6.849 -0.3220  0.1268  0.4406
   31SAPC   H5R 4140   4.519   0.974   6.769  1.3951  0.9587  2.0170
   31SAPC   C26 4141   4.565   0.861   6.934 -0.5404 -0.7390  0.2502
   31SAPC   H6R 4142   4.670   0.877   6.906  0.0593 -1.8379  1.8439
   31SAPC   C27 4143   4.537   0.785   7.058 -0.3016 -0.1187  0.3780
   31SAPC   H7R 4144   4.454   0.714   7.038  0.4883 -1.0665  0.4804
   31SAPC   H7S 4145   4.506   0.858   7.136  0.8484  0.1034  0.6388
   31SAPC   C28 4146   4.665   0.710   7.099  0.3213  0.1479 -0.0562
   31SAPC   H8R 4147   4.733   0.684   7.017  0.7555 -0.2611  0.4361
   31SAPC   C29 4148   4.688   0.658   7.221 -0.0951  0.4420 -0.1070
   31SAPC   H9R 4149   4.773   0.591   7.242 -0.7958 -0.8030 -1.1248
   31SAPC  C210 4150   4.598   0.669   7.340  0.2280 -0.3465 -0.4085
   31SAPC  H10R 4151   4.588   0.577   7.401 -0.2233 -0.0712 -0.0555
   31SAPC  H10S 4152   4.495   0.697   7.311 -0.4835 -3.4131 -1.0119
   31SAPC  C211 4153   4.651   0.778   7.432 -0.3766 -0.6970  0.1527
   31SAPC  H11R 4154   4.687   0.867   7.379 -1.7978 -0.6323 -0.7553
   31SAPC  C212 4155   4.654   0.782   7.564  1.0966  0.3010  0.8602
   31SAPC  H12R 4156   4.695   0.863   7.626 -1.5988  1.8804  0.6830
   31SAPC  C213 4157   4.601   0.665   7.647 -0.1532  0.3121  0.2719
   31SAPC  H13R 4158   4.684   0.609   7.694 -0.2745 -0.4516 -0.4190
   31SAPC  H13S 4159   4.539   0.596   7.586  0.5532  0.4621 -0.6340
   31SAPC  C214 4160   4.501   0.712   7.752 -0.1570 -0.4113 -0.0883
   31SAPC  H14R 4161   4.415   0.766   7.709 -1.9570 -3.2622 -0.2572
   31SAPC  C215 4162   4.497   0.689   7.882  0.5240 -0.0520  0.2590
   31SAPC  H15R 4163   4.415   0.730   7.942  0.7893  0.9708 -0.0708
   31SAPC  C216 4164   4.605   0.620   7.959 -0.4628 -1.1182 -0.3207
   31SAPC  H16R 4165   4.649   0.537   7.900 -3.0566 -1.3505 -2.0483
   31SAPC  H16S 4166   4.562   0.562   8.043  1.4294 -0.8748  0.8275
   31SAPC  C217 4167   4.696   0.727   8.026  0.0984  0.3372  0.6997
   31SAPC  H17R 4168   4.744   0.786   7.946  0.3496 -0.4014  0.2967
   31SAPC  H17S 4169   4.775   0.676   8.086  0.0746 -2.4783 -1.5277
   31SAPC  C218 4170   4.626   0.827   8.113  0.5600 -0.3787  0.5339
   31SAPC  H18R 4171   4.547   0.778   8.173 -1.3754  0.7465 -1.0366
   31SAPC  H18S 4172   4.576   0.900   8.045  2.0160  0.0234 -0.1217
   31SAPC  C219 4173   4.722   0.893   8.208 -0.2932 -0.1744  0.3661
   31SAPC  H19R 4174   4.800   0.952   8.157 -0.6904  0.3370  0.3524
   31SAPC  H19S 4175   4.780   0.809   8.252 -1.6700 -1.3144  0.0675
   31SAPC  C220 4176   4.652   0.970   8.324 -0.0334  0.0608  0.1567
   31SAPC  H20R 4177   4.737   0.983   8.394  1.0049 -1.7251 -0.7614
   31SAPC  H20S 4178   4.565   0.911   8.360 -0.8429  1.0991 -0.0559
   31SAPC  H20T 4179   4.627   1.073   8.289  1.2730  1.4054  2.9691
   31SAPC   C33 4180   3.846   1.261   7.083 -0.1136  0.3453 -0.2296
   31SAPC   H3X 4181   3.926   1.333   7.055  1.7479 -2.3173 -1.9693
   31SAPC   H3Y 4182   3.910   1.176   7.116  0.7814  1.2350  0.3338
   31SAPC   C34 4183   3.752   1.316   7.194 -0.5113 -0.1026  0.2083
   31SAPC   H4X 4184   3.663   1.252   7.217  0.6651 -2.2456 -0.9702
   31SAPC   H4Y 4185   3.712   1.413   7.159 -2.3122 -0.6275  0.7166
   31SAPC   C35 4186   3.834   1.335   7.323 -0.1353 -0.5790 -0.0653
   31SAPC   H5X 4187   3.920   1.404   7.308  0.0839 -0.4865  1.4915
   31SAPC   H5Y 4188   3.885   1.246   7.366 -1.4192 -1.6349 -0.6925
   31SAPC   C36 4189   3.757   1.402   7.442 -0.1588 -0.4555  0.1727
   31SAPC   H6X 4190   3.704   1.488   7.397 -0.5529 -1.9289 -2.2968
   31SAPC   H6Y 4191   3.834   1.443   7.511 -2.1526  2.8450  0.5161
   31SAPC   C37 4192   3.676   1.308   7.535  0.0428  0.1239  0.4522
   31SAPC   H7X 4193   3.737   1.217   7.555 -1.5374 -1.2255 -0.7906
   31SAPC   H7Y 4194   3.585   1.269   7.485  1.4443 -0.4130 -1.7194
   31SAPC   C38 4195   3.632   1.365   7.669  0.3819 -0.0110 -0.9407
   31SAPC   H8X 4196   3.718   1.365   7.739 -1.5889 -0.1099  1.5938
   31SAPC   H8Y 4197   3.555   1.291   7.700  0.6431 -0.1650 -0.6609
   31SAPC   C39 4198   3.556   1.501   7.670  0.1556 -0.1966  0.1830
   31SAPC   H9X 4199   3.493   1.504   7.578  1.5286  1.0755 -0.7441
   31SAPC   H9Y 4200   3.621   1.590   7.653  0.4974 -0.7089 -1.3460
   31SAPC  C310 4201   3.465   1.531   7.788  0.7266 -0.5453  0.3740
   31SAPC  H10X 4202   3.518   1.500   7.880  0.9777 -0.6558  0.1905
   31SAPC  H10Y 4203   3.377   1.466   7.769 -1.4867  2.5821 -0.6277
   31SAPC  C311 4204   3.421   1.677   7.802  0.0213  0.0527 -0.1438
   31SAPC  H11X 4205   3.407   1.727   7.703  2.3074 -0.0010 -0.5363
   31SAPC  H11Y 4206   3.513   1.728   7.837  1.1923 -1.2435 -1.2612
   31SAPC  C312 4207   3.300   1.700   7.893  0.4275 -0.3467 -0.2297
   31SAPC  H12X 4208   3.311   1.625   7.974  0.2756 -0.3454 -0.2083
   31SAPC  H12Y 4209   3.214   1.666   7.832  0.0662 -1.5354  0.9268
   31SAPC  C313 4210   3.269   1.845   7.933 -0.3275 -0.7595  0.1691
   31SAPC  H13X 4211   3.254   1.923   7.855 -0.1247 -0.1224  0.7543
   31SAPC  H13Y 4212   3.364   1.877   7.981 -0.1443 -2.1327  0.7336
   31SAPC  C314 4213   3.154   1.859   8.037 -0.1357 -0.1296 -0.0242
   31SAPC  H14X 4214   3.056   1.823   8.000 -0.7481  1.6605 -0.2230
   31SAPC  H14Y 4215   3.134   1.968   8.050 -0.0173 -0.3170  1.8913
   31SAPC  C315 4216   3.181   1.797   8.173 -0.4691 -0.8510  0.1625
   31SAPC  H15X 4217   3.289   1.802   8.198 -0.0885  1.7477 -1.8308
   31SAPC  H15Y 4218   3.146   1.691   8.172 -1.5872 -0.5055  1.5830
   31SAPC  C316 4219   3.095   1.859   8.279  0.7634 -0.6456  0.5859
   31SAPC  H16X 4220   2.988   1.873   8.253  1.3522 -0.8465 -2.0483
   31SAPC  H16Y 4221   3.137   1.960   8.295  0.2687 -0.3899  0.2553
   31SAPC  C317 4222   3.073   1.785   8.410  0.1209  0.0675 -0.0998
   31SAPC  H17X 4223   3.015   1.693   8.387  1.0829  0.0937 -2.7967
   31SAPC  H17Y 4224   3.010   1.852   8.473 -3.7593 -1.6162 -2.0586
   31SAPC  C318 4225   3.202   1.752   8.482  0.8401  0.3187 -0.0875
   31SAPC  H18X 4226   3.259   1.847   8.488  1.5001 -0.1308  0.8717
   31SAPC  H18Y 4227   3.269   1.690   8.419  0.7144  0.0420  0.0499
   31SAPC  H18Z 4228   3.176   1.701   8.577  0.0829  0.4860 -0.1990
   32SAPC     N 4229   6.060   1.531   6.060 -0.4231  0.2321  0.0179
   32SAPC   C12 4230   6.035   1.530   6.212 -0.3662  0.9980 -0.2906
   32SAPC  H12A 4231   6.085   1.616   6.253  2.9075 -1.3267  0.7450
   32SAPC  H12B 4232   6.090   1.449   6.258 -0.6848 -0.0032 -1.6544
   32SAPC   C13 4233   5.993   1.415   5.997  0.0633 -0.5641 -0.5504
   32SAPC  H13A 4234   5.892   1.405   6.034  0.3341 -0.5064  0.2206
   32SAPC  H13B 4235   5.991   1.435   5.891  1.0492  1.5801 -0.1736
   32SAPC  H13C 4236   6.045   1.321   6.010 -0.1011 -0.5518  0.2716
   32SAPC   C14 4237   6.007   1.658   5.998  0.5037  0.2619  0.3092
   32SAPC  H14A 4238   6.018   1.645   5.891 -3.4481  0.3197 -0.1648
   32SAPC  H14B 4239   5.900   1.667   6.000  0.3910 -0.4452 -1.5440
   32SAPC  H14C 4240   6.062   1.746   6.026  2.5030 -0.5702 -0.8670
   32SAPC   C15 4241   6.210   1.527   6.034  0.7402  0.3696  0.6575
   32SAPC  H15A 4242   6.252   1.437   6.078 -1.0545 -1.3590 -1.0472
   32SAPC  H15B 4243   6.244   1.522   5.932 -1.1702 -0.2855  0.0438
   32SAPC  H15C 4244   6.265   1.602   6.089  0.9318  0.9360 -0.2981
   32SAPC   C11 4245   5.888   1.532   6.277  0.3109 -0.5493 -0.4377
   32SAPC  H11A 4246   5.904   1.522   6.386 -1.4877  1.6427  0.0544
   32SAPC  H11B 4247   5.827   1.448   6.235  0.6881 -0.5961 -0.8941
   32SAPC     P 4248   5.669   1.676   6.245 -0.0767  0.4801  0.2483
   32SAPC   O13 4249   5.622   1.809   6.202 -0.1289  0.1192 -0.3196
   32SAPC   O14 4250   5.610   1.556   6.182 -0.1092 -0.3695 -0.3078
   32SAPC   O12 4251   5.830   1.660   6.241  0.4433 -0.6561 -0.0714
   32SAPC   O11 4252   5.642   1.663   6.397 -0.3943 -0.1897  0.1658
   32SAPC    C1 4253   5.537   1.756   6.448 -0.2601  0.4256 -0.6063
   32SAPC    HA 4254   5.570   1.862   6.438 -1.8256  1.0016  0.2140
   32SAPC    HB 4255   5.446   1.727   6.392  2.3156 -3.7064 -2.9657
   32SAPC    C2 4256   5.501   1.730   6.599  0.3953  0.6369 -0.3065
   32SAPC    HS 4257   5.417   1.798   6.624 -1.0133 -0.8811 -0.8181
   32SAPC   O21 4258   5.616   1.751   6.681 -0.6615  0.7418  0.6847
   32SAPC   C21 4259   5.621   1.875   6.727 -0.3192  0.0494 -0.5695
   32SAPC   O22 4260   5.531   1.958   6.718 -0.1148 -0.0354  0.0913
   32SAPC   C22 4261   5.755   1.903   6.792 -0.4333  0.3450 -0.2959
   32SAPC   H2R 4262   5.758   1.848   6.888  0.0745  0.4197 -0.2712
   32SAPC   H2S 4263   5.843   1.872   6.732 -0.0584  2.5922 -0.9654
   32SAPC    C3 4264   5.438   1.585   6.626 -0.4079 -0.8140 -0.5477
   32SAPC    HX 4265   5.517   1.513   6.595 -0.1217 -0.6021 -0.3145
   32SAPC    HY 4266   5.346   1.559   6.569  0.0005  0.6036 -1.8851
   32SAPC   O31 4267   5.411   1.566   6.769 -0.2450  0.2885 -0.0524
   32SAPC   C31 4268   5.296   1.621   6.816  0.6082  0.4669  0.2667
   32SAPC   O32 4269   5.220   1.689   6.747 -0.1858 -0.0783 -0.1526
   32SAPC   C32 4270   5.273   1.580   6.956 -0.6089 -0.5049 -0.0170
   32SAPC   H2X 4271   5.356   1.517   6.996  0.7601  1.4063  0.2219
   32SAPC   H2Y 4272   5.173   1.533   6.964 -0.5430 -1.0177 -1.8901
   32SAPC   C23 4273   5.780   2.059   6.823 -0.2654 -0.2611  0.8456
   32SAPC   H3R 4274   5.690   2.108   6.868  0.3939  3.0318 -1.2760
   32SAPC   H3S 4275   5.805   2.118   6.733 -0.5926  0.6855  1.3747
   32SAPC   C24 4276   5.904   2.082   6.915 -0.5066  0.4150  0.1757
   32SAPC   H4R 4277   5.927   2.191   6.921 -1.3064  0.4515  3.1881
   32SAPC   H4S 4278   5.995   2.032   6.877 -1.7589 -0.8215 -1.2416
   32SAPC   C25 4279   5.877   2.026   7.051  1.2355  0.2813  0.4523
   32SAPC   H5R 4280   5.772   2.038   7.082  0.5584 -1.1821 -1.2016
   32SAPC   C26 4281   5.955   1.964   7.137  0.8525  0.0727  0.0209
   32SAPC   H6R 4282   5.907   1.909   7.220 -1.0509  1.8576  0.1330
   32SAPC   C27 4283   6.102   1.951   7.123  0.5426  0.1920  0.2909
   32SAPC   H7R 4284   6.139   1.973   7.021  2.9509 -0.1463  1.0556
   32SAPC   H7S 4285   6.134   1.845   7.132  1.8319  0.7901  3.9199
   32SAPC   C28 4286   6.185   2.031   7.223  0.0544 -0.3855 -0.0400
   32SAPC   H8R 4287   6.270   2.085   7.178  1.3525 -0.8243  1.7932
   32SAPC   C29 4288   6.168   2.037   7.357 -0.1762  0.1001 -0.8282
   32SAPC   H9R 4289   6.235   2.105   7.411  0.0658 -1.4952  0.9488
   32SAPC  C210 4290   6.072   1.970   7.454 -0.4441 -0.5227  0.2285
   32SAPC  H10R 4291   6.007   1.891   7.410  2.4865 -2.0949 -1.3937
   32SAPC  H10S 4292   6.000   2.047   7.489  0.3146  0.0878  0.4378
   32SAPC  C211 4293   6.148   1.902   7.565  1.1316  0.4428  0.0270
   32SAPC  H11R 4294   6.220   1.827   7.529 -0.6383 -2.1460  1.7069
   32SAPC  C212 4295   6.131   1.918   7.695  0.1871  0.0232 -0.3538
   32SAPC  H12R 4296   6.203   1.869   7.761  2.6224  3.1578 -0.5576
   32SAPC  C213 4297   6.034   2.016   7.758 -0.4942 -0.1349 -0.4993
   32SAPC  H13R 4298   6.012   1.982   7.861  1.9078  0.3307  0.1991
   32SAPC  H13S 4299   5.935   2.021   7.707 -2.5329  0.7769  3.3719
   32SAPC  C214 4300   6.085   2.159   7.762 -0.8333 -0.2950  0.2403
   32SAPC  H14R 4301   6.063   2.227   7.679  0.4399  2.9683  2.4625
   32SAPC  C215 4302   6.150   2.215   7.867 -0.8633 -0.2724 -0.1725
   32SAPC  H15R 4303   6.162   2.324   7.875  1.5546 -0.5933  1.2180
   32SAPC  C216 4304   6.190   2.140   7.996  0.4680  0.2853  0.4141
   32SAPC  H16R 4305   6.299   2.151   8.010  0.7491 -1.8878  0.0233
   32SAPC  H16S 4306   6.169   2.031   7.993  0.6924  0.2442  0.3310
   32SAPC  C217 4307   6.129   2.194   8.125 -0.5004 -0.2616  0.6230
   32SAPC  H17R 4308   6.151   2.125   8.210 -0.7079 -3.2206 -1.6523
   32SAPC  H17S 4309   6.018   2.200   8.127 -0.4416  0.7808  3.4106
   32SAPC  C218 4310   6.182   2.331   8.163  0.4760 -0.5078 -0.3379
   32SAPC  H18R 4311   6.167   2.414   8.091  1.8480  0.3095  0.3014
   32SAPC  H18S 4312   6.292   2.314   8.157  0.5344 -0.5034  0.6683
   32SAPC  C219 4313   6.153   2.383   8.306  0.4317  0.3752  0.1354
   32SAPC  H19R 4314   6.047   2.416   8.307  0.3789  0.3267 -2.3071
   32SAPC  H19S 4315   6.215   2.472   8.332 -1.6537  1.0745  2.9802
   32SAPC  C220 4316   6.181   2.290   8.420 -0.4725  0.7305  0.4730
   32SAPC  H20R 4317   6.130   2.191   8.414  1.5705 -0.3440  0.2926
   32SAPC  H20S 4318   6.132   2.332   8.511 -0.0925  1.3096  0.4118
   32SAPC  H20T 4319   6.289   2.266   8.435  0.1358  0.3095 -3.9847
   32SAPC   C33 4320   5.278   1.703   7.056 -0.3199 -0.6278 -1.0134
   32SAPC   H3X 4321   5.280   1.662   7.159  1.3364  2.4357  0.2579
   32SAPC   H3Y 4322   5.192   1.772   7.046  0.9961  1.2836  0.3870
   32SAPC   C34 4323   5.404   1.790   7.054  0.0786  1.1374  0.5922
   32SAPC   H4X 4324   5.397   1.848   6.960  0.5442 -0.0277 -0.1648
   32SAPC   H4Y 4325   5.493   1.724   7.069 -0.4667  0.0504 -0.8859
   32SAPC   C35 4326   5.397   1.895   7.172  0.0252 -0.1920 -0.4311
   32SAPC   H5X 4327   5.385   1.844   7.270 -1.6920  0.7587 -0.1338
   32SAPC   H5Y 4328   5.318   1.971   7.158  0.7639  0.5735 -0.4884
   32SAPC   C36 4329   5.526   1.979   7.175 -0.2233 -0.7323 -0.1991
   32SAPC   H6X 4330   5.552   2.051   7.095  2.9376  0.3478  1.7000
   32SAPC   H6Y 4331   5.608   1.905   7.158 -0.5808 -1.2541  0.3198
   32SAPC   C37 4332   5.550   2.056   7.310 -0.3178 -0.4010  0.2247
   32SAPC   H7X 4333   5.529   2.002   7.404 -0.6252  0.4881  0.6709
   32SAPC   H7Y 4334   5.469   2.132   7.317  0.4742  0.2642  2.4585
   32SAPC   C38 4335   5.682   2.122   7.332 -0.3664 -0.3385 -0.3857
   32SAPC   H8X 4336   5.719   2.166   7.237  1.1147  0.7715  0.6784
   32SAPC   H8Y 4337   5.764   2.050   7.354  0.8505  0.9781 -0.5651
   32SAPC   C39 4338   5.668   2.255   7.419 -0.3938 -0.4561 -0.0798
   32SAPC   H9X 4339   5.612   2.336   7.367 -0.2464 -1.5536 -1.9891
   32SAPC   H9Y 4340   5.776   2.281   7.433 -0.9946  2.7551 -0.9918
   32SAPC  C310 4341   5.599   2.227   7.557 -0.1124 -0.8463 -0.4083
   32SAPC  H10X 4342   5.495   2.187   7.552 -0.1814 -0.5323 -1.5637
   32SAPC  H10Y 4343   5.586   2.321   7.614  2.2845  0.0941 -1.3438
   32SAPC  C311 4344   5.667   2.123   7.641  0.2855 -0.2007  0.4088
   32SAPC  H11X 4345   5.774   2.155   7.650  0.6728 -0.2511 -3.5125
   32SAPC  H11Y 4346   5.659   2.029   7.584  1.3438 -0.7649  1.1712
   32SAPC  C312 4347   5.605   2.114   7.779 -0.5675 -0.2772 -0.3548
   32SAPC  H12X 4348   5.626   2.196   7.851  0.2457 -1.0175  0.2689
   32SAPC  H12Y 4349   5.659   2.028   7.824  0.6986  0.5853 -0.2071
   32SAPC  C313 4350   5.456   2.086   7.775 -0.0799 -0.1340 -0.1149
   32SAPC  H13X 4351   5.434   2.022   7.687 -0.0492  0.9069 -0.8933
   32SAPC  H13Y 4352   5.401   2.182   7.761  0.4154  0.2298  0.4172
   32SAPC  C314 4353   5.421   2.009   7.901 -0.5029 -0.1474 -0.7904
   32SAPC  H14X 4354   5.486   1.919   7.907 -0.0876  0.2470  1.1135
   32SAPC  H14Y 4355   5.321   1.959   7.900  0.1106 -1.4061 -0.4400
   32SAPC  C315 4356   5.434   2.089   8.032  0.2295 -0.2464  0.9059
   32SAPC  H15X 4357   5.392   2.192   8.023 -0.6722 -0.6517  0.5469
   32SAPC  H15Y 4358   5.542   2.106   8.055  0.5549  2.0836 -2.0263
   32SAPC  C316 4359   5.371   2.027   8.156 -0.1019  0.0840 -0.5381
   32SAPC  H16X 4360   5.386   1.918   8.140 -0.8987  0.1632 -1.9219
   32SAPC  H16Y 4361   5.264   2.055   8.161 -0.9801 -2.7811 -2.0260
   32SAPC  C317 4362   5.431   2.081   8.288  0.9877  0.1694  0.0421
   32SAPC  H17X 4363   5.412   2.190   8.301 -2.6210 -0.3154 -0.6670
   32SAPC  H17Y 4364   5.539   2.058   8.304  0.5792 -0.3301  2.1912
   32SAPC  C318 4365   5.379   2.018   8.419 -0.1756 -0.6647 -0.3741
   32SAPC  H18X 4366   5.455   2.023   8.501 -0.3816 -3.3549  0.0224
   32SAPC  H18Y 4367   5.365   1.911   8.393  0.1009 -0.5941 -0.8151
   32SAPC  H18Z 4368   5.284   2.071   8.443 -1.2548 -2.2928 -0.9696
   33POPC     N 4369   4.591   3.661  10.665 -0.0146 -0.9555  0.1671
   33POPC   C12 4370   4.517   3.624  10.538  0.1211 -0.2714  0.9005
   33POPC  H12A 4371   4.579   3.569  10.468 -2.2851 -1.7621 -0.0955
   33POPC  H12B 4372   4.514   3.724  10.497  1.3074  0.9215  3.5517
   33POPC   C13 4373   4.586   3.551  10.761  0.1695  0.5298  0.0061
   33POPC  H13A 4374   4.641   3.463  10.728 -0.6548 -0.3178  0.8459
   33POPC  H13B 4375   4.625   3.576  10.859  0.9295  0.5279 -0.2961
   33POPC  H13C 4376   4.482   3.527  10.778  0.4738 -0.8122  0.0345
   33POPC   C14 4377   4.736   3.693  10.631  0.1528  0.2543 -0.1602
   33POPC  H14A 4378   4.784   3.737  10.717  0.8343 -1.4559  0.3481
   33POPC  H14B 4379   4.796   3.616  10.587 -1.4956 -1.6507  0.8370
   33POPC  H14C 4380   4.747   3.770  10.556 -0.1433  1.2123  0.7680
   33POPC   C15 4381   4.538   3.785  10.736  0.4615 -0.6233  0.2597
   33POPC  H15A 4382   4.432   3.791  10.754 -0.0329 -2.8762 -1.6735
   33POPC  H15B 4383   4.571   3.878  10.692  2.0010 -1.5767 -0.6790
   33POPC  H15C 4384   4.574   3.781  10.838 -0.3092  1.0432  0.6068
   33POPC   C11 4385   4.385   3.552  10.548 -0.6528  0.0957  0.5409
   33POPC  H11A 4386   4.402   3.451  10.592  0.3187 -0.7378 -1.6457
   33POPC  H11B 4387   4.352   3.545  10.442 -0.4597  1.4023  0.3941
   33POPC     P 4388   4.191   3.743  10.577 -0.0440 -0.2057  0.1994
   33POPC   O13 4389   4.270   3.855  10.512 -0.2235 -0.0456  0.2664
   33POPC   O14 4390   4.116   3.778  10.697 -0.1969 -0.6527 -0.5175
   33POPC   O12 4391   4.294   3.624  10.624  0.5832 -0.2609  0.2094
   33POPC   O11 4392   4.106   3.673  10.465 -1.0515 -0.5496 -0.6652
   33POPC    C1 4393   4.053   3.545  10.459 -0.2673 -0.3570 -0.0572
   33POPC    HA 4394   4.130   3.467  10.469  2.1303  1.6825 -2.0057
   33POPC    HB 4395   3.990   3.535  10.550  0.8637 -0.0439  0.7730
   33POPC    C2 4396   3.967   3.515  10.325 -0.8922 -0.0069 -1.0635
   33POPC    HS 4397   3.932   3.411  10.306  0.2049 -0.6359  0.2426
   33POPC   O21 4398   4.056   3.556  10.219 -0.2484  0.1145 -0.2741
   33POPC   C21 4399   4.159   3.471  10.191 -0.7303 -0.7103 -0.0921
   33POPC   O22 4400   4.179   3.359  10.235  0.3134 -0.1241  0.2809
   33POPC   C22 4401   4.251   3.553  10.104  0.4404 -0.2103 -0.6571
   33POPC   H2R 4402   4.349   3.501  10.106  0.1890 -0.7558 -2.1116
   33POPC   H2S 4403   4.268   3.656  10.141 -1.1064 -0.2228  0.1755
   33POPC    C3 4404   3.831   3.604  10.320  0.3638  0.0161 -0.4745
   33POPC    HX 4405   3.857   3.708  10.349  0.4596 -0.5332  1.4843
   33POPC    HY 4406   3.770   3.564  10.403  3.5053  1.0723  2.5121
   33POPC   O31 4407   3.746   3.583  10.203  0.0421 -0.3788 -1.1925
   33POPC   C31 4408   3.768   3.662  10.094  0.3561 -0.8191  0.1566
   33POPC   O32 4409   3.843   3.757  10.088  0.1199 -0.0596 -1.0965
   33POPC   C32 4410   3.660   3.629   9.986 -0.1695 -0.0465  0.3519
   33POPC   H2X 4411   3.566   3.676  10.024  0.5006 -0.2373  2.2906
   33POPC   H2Y 4412   3.639   3.520   9.995 -1.2558  0.0795 -0.5685
   33POPC   C23 4413   4.212   3.543   9.956  0.2206 -0.3262  0.5774
   33POPC   H3R 4414   4.229   3.440   9.919  2.0393  0.7829 -1.7978
   33POPC   H3S 4415   4.282   3.608   9.900 -0.4584 -0.5664 -0.5516
   33POPC   C24 4416   4.072   3.591   9.912  0.6976  0.0791  0.2423
   33POPC   H4R 4417   4.070   3.695   9.951 -1.4326 -0.2601  1.0939
   33POPC   H4S 4418   3.987   3.539   9.961  1.6800 -0.9112  0.9261
   33POPC   C25 4419   4.067   3.589   9.761  0.3875 -0.3475 -0.7753
   33POPC   H5R 4420   4.156   3.641   9.719  0.6639 -0.1615  0.0276
   33POPC   H5S 4421   3.974   3.636   9.722 -0.4714 -2.4882 -1.3854
   33POPC   C26 4422   4.043   3.449   9.701 -0.1042 -0.3873 -0.3091
   33POPC   H6R 4423   3.970   3.395   9.765 -1.3882  0.8598 -0.7228
   33POPC   H6S 4424   4.134   3.384   9.710  1.2512  1.5697  0.4271
   33POPC   C27 4425   3.989   3.468   9.554 -0.2144  0.5786  0.0532
   33POPC   H7R 4426   4.075   3.447   9.486 -1.2697 -1.8928 -0.5891
   33POPC   H7S 4427   3.948   3.570   9.539 -1.4638  0.0374 -0.2407
   33POPC   C28 4428   3.870   3.365   9.529 -0.1413 -0.5704  0.4759
   33POPC   H8R 4429   3.819   3.394   9.435 -0.0224  1.1922  0.9197
   33POPC   H8S 4430   3.785   3.378   9.599 -1.8344  0.5836 -1.7223
   33POPC   C29 4431   3.928   3.221   9.516 -0.5964 -0.1206  0.8731
   33POPC   H91 4432   3.978   3.188   9.608 -0.0448  0.0527  0.6387
   33POPC  C210 4433   3.955   3.155   9.397  0.1384 -0.1910 -0.3813
   33POPC  H101 4434   4.017   3.065   9.405 -1.0817 -1.1820 -1.7865
   33POPC  C211 4435   3.916   3.199   9.256  0.5567  0.5171  0.2306
   33POPC  H11R 4436   3.999   3.261   9.217  1.0131 -1.2894 -1.7964
   33POPC  H11S 4437   3.830   3.268   9.254  0.8051  0.8052 -0.6007
   33POPC  C212 4438   3.883   3.081   9.159 -0.1035  0.3475  0.0063
   33POPC  H12R 4439   3.797   3.027   9.204  0.4917  1.5421  2.6679
   33POPC  H12S 4440   3.973   3.023   9.132  0.3439  1.8297 -1.7945
   33POPC  C213 4441   3.821   3.135   9.034  0.3163  0.1859  0.1825
   33POPC  H13R 4442   3.894   3.191   8.971 -1.2875  1.7065 -0.3439
   33POPC  H13S 4443   3.747   3.210   9.069  1.3392  1.6063 -0.6467
   33POPC  C214 4444   3.748   3.026   8.956  0.3711  0.0821 -0.2485
   33POPC  H14R 4445   3.675   2.967   9.016 -2.7420  3.3555 -0.6790
   33POPC  H14S 4446   3.827   2.950   8.937  1.6195  0.9404  1.4220
   33POPC  C215 4447   3.678   3.075   8.830 -0.5687 -0.0837 -0.1980
   33POPC  H15R 4448   3.750   3.145   8.783 -2.6138  2.3152  0.1749
   33POPC  H15S 4449   3.594   3.137   8.867  0.4776  1.8783 -1.0348
   33POPC  C216 4450   3.628   2.967   8.734  0.5199  1.1113  0.1852
   33POPC  H16R 4451   3.563   3.019   8.660  0.5253  0.3402 -0.3648
   33POPC  H16S 4452   3.562   2.890   8.779  1.5014 -0.5471 -1.1776
   33POPC  C217 4453   3.734   2.889   8.649 -0.4621 -0.2639  0.4162
   33POPC  H17R 4454   3.670   2.847   8.569  0.0403  1.6692 -1.0570
   33POPC  H17S 4455   3.790   2.818   8.713  1.7018  2.1561  1.3340
   33POPC  C218 4456   3.826   2.989   8.577  0.2272  0.1144 -0.5988
   33POPC  H18R 4457   3.906   2.925   8.532 -1.2867 -0.5796 -2.3886
   33POPC  H18S 4458   3.877   3.056   8.649 -0.6837 -0.2116  0.3648
   33POPC  H18T 4459   3.774   3.057   8.506 -1.2805 -0.7783 -0.3689
   33POPC   C33 4460   3.696   3.680   9.838 -0.7144 -0.2438 -0.4837
   33POPC   H3X 4461   3.793   3.632   9.814 -0.0469  0.5432  0.6200
   33POPC   H3Y 4462   3.729   3.784   9.852  0.9912 -0.8800  0.3369
   33POPC   C34 4463   3.590   3.662   9.724  0.4592 -0.5707 -0.3521
   33POPC   H4X 4464   3.503   3.729   9.741  1.7680  0.2635  3.7983
   33POPC   H4Y 4465   3.543   3.562   9.731 -0.7787 -0.0043 -0.4633
   33POPC   C35 4466   3.657   3.698   9.588 -0.0278  0.3998  0.0510
   33POPC   H5X 4467   3.723   3.611   9.565 -1.1949 -0.8634  1.3842
   33POPC   H5Y 4468   3.718   3.790   9.583  0.1115  0.2242 -2.0369
   33POPC   C36 4469   3.550   3.718   9.480  0.0584  0.0518  0.3088
   33POPC   H6X 4470   3.509   3.821   9.490  1.0571  0.2779  2.2985
   33POPC   H6Y 4471   3.469   3.645   9.504  0.9939 -1.2145 -0.3164
   33POPC   C37 4472   3.593   3.689   9.339  0.0307  0.5914 -0.1791
   33POPC   H7X 4473   3.643   3.590   9.333 -0.4579  0.3971 -1.3978
   33POPC   H7Y 4474   3.662   3.773   9.315  1.1320 -0.0039  0.8683
   33POPC   C38 4475   3.478   3.670   9.239  0.3231  0.2155  0.1834
   33POPC   H8X 4476   3.416   3.592   9.289 -1.0872 -0.3280 -2.3704
   33POPC   H8Y 4477   3.529   3.616   9.156 -2.2669 -1.0816 -0.6083
   33POPC   C39 4478   3.409   3.797   9.193  0.2680 -0.3253 -0.4615
   33POPC   H9X 4479   3.488   3.874   9.181 -0.9125  0.7827 -1.2923
   33POPC   H9Y 4480   3.347   3.841   9.274  0.4213 -0.7934 -0.0920
   33POPC  C310 4481   3.327   3.783   9.067  0.3414  0.1687  0.5984
   33POPC  H10X 4482   3.289   3.886   9.045  0.6802  0.2913  0.5838
   33POPC  H10Y 4483   3.243   3.711   9.075  0.7400 -0.4542 -0.6166
   33POPC  C311 4484   3.416   3.740   8.941 -0.2094 -0.4151 -0.6225
   33POPC  H11X 4485   3.436   3.632   8.956 -1.1388 -0.5226 -0.1370
   33POPC  H11Y 4486   3.512   3.795   8.951  0.4639 -1.4522 -1.2316
   33POPC  C312 4487   3.351   3.742   8.803 -0.2965 -0.4859 -0.6896
   33POPC  H12X 4488   3.427   3.722   8.726  1.3958  1.9244  0.2683
   33POPC  H12Y 4489   3.321   3.846   8.776 -0.0875 -0.6436 -1.5327
   33POPC  C313 4490   3.233   3.648   8.792 -0.5794 -0.2711 -0.3836
   33POPC  H13X 4491   3.149   3.678   8.858  0.0016 -1.9399  1.1559
   33POPC  H13Y 4492   3.280   3.550   8.814 -0.8445  0.0226  1.6404
   33POPC  C314 4493   3.182   3.633   8.648 -0.8556 -0.0994 -0.0092
   33POPC  H14X 4494   3.268   3.611   8.582 -0.2706  0.1820  0.6461
   33POPC  H14Y 4495   3.148   3.734   8.617 -1.9098 -0.1869  0.8182
   33POPC  C315 4496   3.076   3.524   8.638 -0.3592 -0.5019  0.3084
   33POPC  H15X 4497   2.996   3.542   8.714 -0.5613  1.4755 -0.3649
   33POPC  H15Y 4498   3.126   3.428   8.663 -1.2539 -0.6721  1.5480
   33POPC  C316 4499   3.036   3.503   8.490 -0.0786  0.3693 -0.6597
   33POPC  H16X 4500   3.129   3.509   8.429 -0.9515 -1.7813 -2.2493
   33POPC  H16Y 4501   2.965   3.584   8.463  2.0480  2.6489  0.3126
   33POPC  H16Z 4502   2.994   3.403   8.469 -0.6568  0.3610  0.5372
   34POPC     N 4503   3.227   4.314  10.973 -0.3548 -0.5552  0.3599
   34POPC   C12 4504   3.316   4.357  10.863 -0.4170 -0.2134  0.4450
   34POPC  H12A 4505   3.314   4.463  10.841  0.5599 -0.2094  0.3618
   34POPC  H12B 4506   3.285   4.316  10.768  1.8191 -0.3291 -0.2613
   34POPC   C13 4507   3.189   4.173  10.974  0.1462  0.6093 -0.1434
   34POPC  H13A 4508   3.272   4.106  10.991 -0.7371 -0.3888  0.2858
   34POPC  H13B 4509   3.116   4.148  11.050 -0.2568 -0.2899 -0.8112
   34POPC  H13C 4510   3.157   4.151  10.873  0.0506  2.9280 -0.6671
   34POPC   C14 4511   3.288   4.342  11.111 -0.2422 -0.0104 -0.2657
   34POPC  H14A 4512   3.338   4.437  11.121  1.6516 -1.1502  1.2915
   34POPC  H14B 4513   3.207   4.330  11.181 -0.0244  2.2772  0.4149
   34POPC  H14C 4514   3.362   4.267  11.134  0.4420  0.8961  0.5109
   34POPC   C15 4515   3.102   4.396  10.971  0.3480  0.1552 -0.1225
   34POPC  H15A 4516   3.028   4.377  10.894 -1.1473  0.7241  1.1506
   34POPC  H15B 4517   3.119   4.502  10.984 -0.7304  0.2821  0.3136
   34POPC  H15C 4518   3.045   4.378  11.061  2.7871 -2.5476  0.9537
   34POPC   C11 4519   3.464   4.314  10.887  0.2959  0.3457 -0.2441
   34POPC  H11A 4520   3.480   4.207  10.908 -0.4951  0.0494 -1.1511
   34POPC  H11B 4521   3.517   4.376  10.963 -1.5540 -0.1320  1.4753
   34POPC     P 4522   3.584   4.232  10.674 -0.1393 -0.0666  0.0214
   34POPC   O13 4523   3.682   4.157  10.752  0.1620  0.5437 -0.3539
   34POPC   O14 4524   3.632   4.301  10.551  0.0102 -0.4571 -0.2639
   34POPC   O12 4525   3.519   4.346  10.759  0.0777  0.2065 -0.5657
   34POPC   O11 4526   3.459   4.145  10.650 -0.4143 -0.1469 -0.3915
   34POPC    C1 4527   3.338   4.187  10.591  1.3334  0.3266 -0.6373
   34POPC    HA 4528   3.315   4.294  10.607  1.5071  0.1521  0.8140
   34POPC    HB 4529   3.252   4.132  10.635  0.5602 -0.1267 -2.6707
   34POPC    C2 4530   3.337   4.145  10.438  0.1467  0.2696 -0.0326
   34POPC    HS 4531   3.347   4.035  10.448 -3.2472  0.0596  2.2472
   34POPC   O21 4532   3.441   4.223  10.363 -0.0115 -0.2451  0.1207
   34POPC   C21 4533   3.500   4.141  10.274  0.3692  0.6378 -0.9469
   34POPC   O22 4534   3.476   4.020  10.266 -0.5964 -0.5656 -0.0477
   34POPC   C22 4535   3.583   4.222  10.181  0.5891 -0.9667 -0.2309
   34POPC   H2R 4536   3.642   4.290  10.246  0.4351  0.8987 -2.0030
   34POPC   H2S 4537   3.512   4.276  10.116 -1.0872 -0.6965  1.7693
   34POPC    C3 4538   3.198   4.179  10.377  0.2902  0.0268  0.6682
   34POPC    HX 4539   3.186   4.288  10.366 -0.0542 -0.0746  0.0564
   34POPC    HY 4540   3.124   4.159  10.458  1.3796  0.8413  1.8944
   34POPC   O31 4541   3.166   4.103  10.255  1.0136  0.6192  0.5667
   34POPC   C31 4542   3.162   3.969  10.278  0.8764  0.0707  0.2443
   34POPC   O32 4543   3.150   3.918  10.389 -0.1204 -0.4295  0.2729
   34POPC   C32 4544   3.148   3.885  10.150  0.7640  0.3125 -0.5547
   34POPC   H2X 4545   3.045   3.907  10.115 -0.4318 -0.9168  2.0526
   34POPC   H2Y 4546   3.151   3.779  10.181  0.0986 -0.0423 -1.6918
   34POPC   C23 4547   3.690   4.154  10.090 -0.2405  0.1381 -0.3472
   34POPC   H3R 4548   3.758   4.081  10.137 -3.4450 -3.7988 -1.5173
   34POPC   H3S 4549   3.750   4.239  10.050  0.5018  0.3303  1.1387
   34POPC   C24 4550   3.626   4.083   9.973  1.3647 -0.1069  0.3924
   34POPC   H4R 4551   3.537   4.020   9.995  1.0141 -0.7277 -2.6053
   34POPC   H4S 4552   3.702   4.013   9.933  0.7943 -0.2712 -0.4091
   34POPC   C25 4553   3.579   4.185   9.871  0.2128 -0.5577  0.1942
   34POPC   H5R 4554   3.647   4.272   9.866 -0.6845  0.1079 -0.3595
   34POPC   H5S 4555   3.477   4.222   9.896  0.6091  0.2316  0.6444
   34POPC   C26 4556   3.569   4.130   9.722  0.5116 -0.6071 -0.0933
   34POPC   H6R 4557   3.489   4.054   9.713  0.8434 -0.6856 -2.7437
   34POPC   H6S 4558   3.665   4.083   9.691  0.4180 -1.1782  0.4825
   34POPC   C27 4559   3.551   4.228   9.610 -0.3942 -0.1879 -0.0611
   34POPC   H7R 4560   3.554   4.178   9.510 -2.4458 -0.3110 -0.0779
   34POPC   H7S 4561   3.636   4.299   9.617 -0.3186 -0.2040 -0.7671
   34POPC   C28 4562   3.411   4.293   9.609  0.1838  0.4121 -0.0333
   34POPC   H8R 4563   3.409   4.372   9.530 -1.3979  1.0841  0.6567
   34POPC   H8S 4564   3.393   4.350   9.703  3.0814 -0.6785  1.2424
   34POPC   C29 4565   3.301   4.194   9.593 -0.0924  0.6548 -0.6117
   34POPC   H91 4566   3.261   4.149   9.686  1.9833  1.8211  0.8586
   34POPC  C210 4567   3.240   4.174   9.479 -0.5337 -0.0872  0.1239
   34POPC  H101 4568   3.160   4.099   9.477 -0.5108 -0.0887 -1.4074
   34POPC  C211 4569   3.270   4.241   9.344 -0.1158 -0.1255  0.0365
   34POPC  H11R 4570   3.342   4.325   9.355 -2.2220  1.7631 -0.3893
   34POPC  H11S 4571   3.184   4.287   9.290 -0.3378 -0.7496 -0.1433
   34POPC  C212 4572   3.340   4.138   9.259 -0.0946 -0.4171 -0.5719
   34POPC  H12R 4573   3.286   4.041   9.270 -1.2760  0.3460  0.5136
   34POPC  H12S 4574   3.448   4.126   9.283 -0.2569 -1.0624 -0.1381
   34POPC  C213 4575   3.328   4.159   9.109 -0.5834 -0.2014 -0.3758
   34POPC  H13R 4576   3.221   4.155   9.081 -0.5033  1.2703 -0.9247
   34POPC  H13S 4577   3.382   4.073   9.063 -2.8191 -0.7230 -2.1229
   34POPC  C214 4578   3.390   4.285   9.052  0.2198  0.2118 -0.1831
   34POPC  H14R 4579   3.490   4.296   9.099 -0.1999  1.1186  0.5249
   34POPC  H14S 4580   3.335   4.365   9.105  0.6292  0.7743 -0.5983
   34POPC  C215 4581   3.386   4.286   8.895  0.1195 -0.2948  0.6570
   34POPC  H15R 4582   3.447   4.206   8.849  0.8570 -1.1719  3.1041
   34POPC  H15S 4583   3.431   4.385   8.872  0.7018 -0.4590  1.0837
   34POPC  C216 4584   3.243   4.273   8.832 -0.6485  0.0266  0.4248
   34POPC  H16R 4585   3.192   4.176   8.853 -0.9393 -0.4527 -2.2346
   34POPC  H16S 4586   3.248   4.269   8.721  1.5199 -1.5401  0.5523
   34POPC  C217 4587   3.156   4.393   8.861  0.9358  0.1060 -0.3314
   34POPC  H17R 4588   3.211   4.489   8.864  1.3844 -0.1847  0.9493
   34POPC  H17S 4589   3.128   4.380   8.967  1.7890  0.8621 -0.0059
   34POPC  C218 4590   3.027   4.380   8.777  0.2419  0.8330  0.0955
   34POPC  H18R 4591   2.975   4.283   8.790  0.5892  0.7086  0.5784
   34POPC  H18S 4592   3.053   4.394   8.670 -1.8784  2.9982 -0.1708
   34POPC  H18T 4593   2.954   4.450   8.824  2.2878  2.3367  1.1390
   34POPC   C33 4594   3.246   3.924  10.044  0.3942 -0.5846 -0.3095
   34POPC   H3X 4595   3.344   3.904  10.093  0.0493  1.1644  1.1489
   34POPC   H3Y 4596   3.222   4.029  10.020  1.5925  0.5726  3.1837
   34POPC   C34 4597   3.247   3.846   9.912 -0.2436  0.5585  0.3733
   34POPC   H4X 4598   3.275   3.739   9.920  0.6084  0.6172 -1.6571
   34POPC   H4Y 4599   3.314   3.897   9.839 -0.2538 -2.2959 -1.6963
   34POPC   C35 4600   3.114   3.852   9.838  0.2024 -0.5780  0.4278
   34POPC   H5X 4601   3.080   3.957   9.834 -0.2701 -0.7496 -0.0744
   34POPC   H5Y 4602   3.039   3.779   9.875  0.0856 -0.4838  0.3805
   34POPC   C36 4603   3.124   3.822   9.681  0.4626  0.2313 -0.1571
   34POPC   H6X 4604   3.125   3.712   9.664  1.8105  0.4315 -1.5086
   34POPC   H6Y 4605   3.227   3.847   9.649  0.8251 -0.8626  0.1053
   34POPC   C37 4606   3.020   3.893   9.600 -0.4850  0.0766  0.2444
   34POPC   H7X 4607   3.038   4.003   9.597  2.5433 -0.2345  3.4390
   34POPC   H7Y 4608   2.924   3.874   9.655 -0.5185  1.0492  0.5314
   34POPC   C38 4609   3.019   3.832   9.466 -0.4693  0.7456 -0.1502
   34POPC   H8X 4610   2.989   3.725   9.479  0.7049  0.5421  1.0463
   34POPC   H8Y 4611   3.122   3.823   9.427 -1.5222 -2.7426 -2.4165
   34POPC   C39 4612   2.930   3.897   9.358 -0.1789  0.3317 -0.3748
   34POPC   H9X 4613   2.947   4.007   9.364  0.1069  0.3281 -1.0279
   34POPC   H9Y 4614   2.822   3.877   9.373 -0.3778  1.7154  0.1537
   34POPC  C310 4615   2.962   3.854   9.212 -0.6421 -0.1079  0.2928
   34POPC  H10X 4616   2.963   3.743   9.205  1.0812 -0.0398 -0.7971
   34POPC  H10Y 4617   3.068   3.879   9.192 -0.1415 -1.1819  1.5323
   34POPC  C311 4618   2.865   3.918   9.101 -0.5750 -0.2399 -0.5193
   34POPC  H11X 4619   2.867   4.029   9.103 -1.1399 -0.2204 -0.7440
   34POPC  H11Y 4620   2.759   3.892   9.121 -0.6585 -0.1497 -0.8423
   34POPC  C312 4621   2.891   3.852   8.965  0.8740  0.1992  0.1412
   34POPC  H12X 4622   2.870   3.743   8.974  0.4947  0.2686  0.1024
   34POPC  H12Y 4623   3.001   3.851   8.946  1.0228  0.7900  0.9361
   34POPC  C313 4624   2.797   3.910   8.861  0.0395 -0.2763  0.5869
   34POPC  H13X 4625   2.774   4.018   8.876 -0.8028  0.0057 -2.2811
   34POPC  H13Y 4626   2.699   3.858   8.857  0.5504 -1.2038 -0.2008
   34POPC  C314 4627   2.849   3.880   8.723 -0.2028 -0.0016  0.1845
   34POPC  H14X 4628   2.843   3.772   8.697 -1.1418  0.2164 -0.5443
   34POPC  H14Y 4629   2.954   3.915   8.709  0.2877 -0.4000  2.7463
   34POPC  C315 4630   2.779   3.953   8.614 -0.1785 -0.2771 -0.0389
   34POPC  H15X 4631   2.811   4.059   8.607  0.6249 -0.5753 -0.9270
   34POPC  H15Y 4632   2.669   3.941   8.601 -0.2841  0.7510 -0.1121
   34POPC  C316 4633   2.822   3.893   8.482 -0.0587 -0.2089 -0.0158
   34POPC  H16X 4634   2.774   3.796   8.457  0.9533  0.0498 -3.1057
   34POPC  H16Y 4635   2.933   3.883   8.486 -0.1319 -0.6083  1.3962
   34POPC  H16Z 4636   2.791   3.956   8.396 -0.3868 -0.4995 -0.1118
   35POPC     N 4637   2.751   1.128  11.473 -0.0437 -0.4092 -0.1618
   35POPC   C12 4638   2.663   1.088  11.352  0.4457  0.3896 -0.2675
   35POPC  H12A 4639   2.565   1.066  11.393  0.4111  0.0602 -0.5271
   35POPC  H12B 4640   2.696   0.995  11.309  0.5732  0.7710 -1.0176
   35POPC   C13 4641   2.890   1.145  11.427 -0.4091 -0.4195 -0.0040
   35POPC  H13A 4642   2.923   1.058  11.372  1.3011  0.0562  0.2287
   35POPC  H13B 4643   2.883   1.230  11.360  0.0930 -0.4967 -0.1535
   35POPC  H13C 4644   2.958   1.170  11.507 -0.9826  1.0857  0.0363
   35POPC   C14 4645   2.709   1.263  11.548  0.4612 -0.1405  0.2693
   35POPC  H14A 4646   2.734   1.282  11.651 -2.0075 -1.1699  1.0800
   35POPC  H14B 4647   2.760   1.345  11.498 -0.0623 -0.5017 -0.8723
   35POPC  H14C 4648   2.605   1.283  11.530  0.4877 -0.0026  0.2658
   35POPC   C15 4649   2.746   1.015  11.562 -0.0644  0.3852 -0.1885
   35POPC  H15A 4650   2.650   0.997  11.607  0.6185 -2.4555  0.2076
   35POPC  H15B 4651   2.804   1.038  11.650 -0.7244  0.7911  0.1519
   35POPC  H15C 4652   2.786   0.922  11.526 -0.7223  0.7661 -2.0104
   35POPC   C11 4653   2.642   1.200  11.243 -0.1371  0.2153  0.9259
   35POPC  H11A 4654   2.738   1.219  11.191 -1.3607 -0.4185 -1.6525
   35POPC  H11B 4655   2.613   1.298  11.285 -1.7322  0.7102 -1.2134
   35POPC     P 4656   2.430   1.244  11.092 -0.2155  0.0424  0.2292
   35POPC   O13 4657   2.369   1.326  11.200 -0.3435 -0.3133 -0.1680
   35POPC   O14 4658   2.340   1.159  11.010 -0.6567 -0.3676 -0.0591
   35POPC   O12 4659   2.545   1.145  11.155  0.4983  0.7442 -0.7057
   35POPC   O11 4660   2.519   1.336  11.002 -0.8965  0.1147 -0.2163
   35POPC    C1 4661   2.613   1.282  10.905  0.8010 -0.1775  0.2472
   35POPC    HA 4662   2.641   1.177  10.926  2.7102 -0.0310 -1.3968
   35POPC    HB 4663   2.702   1.346  10.921 -0.2109  1.4993 -0.6660
   35POPC    C2 4664   2.565   1.303  10.751 -1.0455  0.1738 -0.4461
   35POPC    HS 4665   2.488   1.226  10.727 -1.2496  0.9606 -2.4240
   35POPC   O21 4666   2.690   1.278  10.676 -0.4808 -0.0049 -0.1894
   35POPC   C21 4667   2.719   1.157  10.648  0.0662 -0.4306 -0.5843
   35POPC   O22 4668   2.661   1.057  10.685 -0.7358 -0.2110 -0.2897
   35POPC   C22 4669   2.848   1.153  10.569  0.0834  0.0917 -0.0385
   35POPC   H2R 4670   2.920   1.090  10.625 -0.3233  0.5999  1.0822
   35POPC   H2S 4671   2.888   1.256  10.553 -1.6114  0.7102 -0.3856
   35POPC    C3 4672   2.507   1.443  10.729  0.1428 -0.6531 -0.5585
   35POPC    HX 4673   2.577   1.516  10.774 -0.1056 -2.5882  3.1757
   35POPC    HY 4674   2.424   1.452  10.804  0.7464  0.2857  0.0113
   35POPC   O31 4675   2.468   1.466  10.599  0.0989 -0.5694  1.1401
   35POPC   C31 4676   2.541   1.545  10.516  0.5495 -0.0015 -0.1105
   35POPC   O32 4677   2.646   1.590  10.547  0.4129  0.4495 -0.2143
   35POPC   C32 4678   2.458   1.576  10.391  0.0648 -0.3900  0.3674
   35POPC   H2X 4679   2.365   1.624  10.428  0.5040  1.1387 -0.4859
   35POPC   H2Y 4680   2.444   1.491  10.321 -1.0001  1.9745 -2.3800
   35POPC   C23 4681   2.821   1.099  10.430  0.7411  0.5811 -0.1105
   35POPC   H3R 4682   2.754   1.010  10.431 -0.3234  1.3632 -0.1201
   35POPC   H3S 4683   2.915   1.068  10.380  0.8261  0.3370  0.2002
   35POPC   C24 4684   2.765   1.204  10.347  0.6415  0.0360 -0.3930
   35POPC   H4R 4685   2.838   1.288  10.345  0.5040  0.3568  3.5533
   35POPC   H4S 4686   2.668   1.250  10.377  1.1087  0.8123 -0.0702
   35POPC   C25 4687   2.744   1.154  10.205  0.0740 -0.3387  0.4110
   35POPC   H5R 4688   2.663   1.078  10.210 -0.5583  0.2956 -0.2065
   35POPC   H5S 4689   2.835   1.097  10.175  0.6631 -0.3498  2.1817
   35POPC   C26 4690   2.709   1.255  10.101  0.5986  0.2823 -0.6407
   35POPC   H6R 4691   2.787   1.333  10.114  1.4314 -0.8042  1.1583
   35POPC   H6S 4692   2.607   1.293  10.122 -0.5099 -2.0716 -1.5841
   35POPC   C27 4693   2.718   1.198   9.957  0.6193  0.7462 -0.4711
   35POPC   H7R 4694   2.654   1.108   9.948  1.7918 -0.2094  0.6302
   35POPC   H7S 4695   2.822   1.163   9.946  0.7332  0.0119  2.5177
   35POPC   C28 4696   2.673   1.297   9.851  0.4942  0.0408  0.4364
   35POPC   H8R 4697   2.713   1.250   9.758  0.3930 -0.1501  0.4885
   35POPC   H8S 4698   2.743   1.381   9.869  0.5285  0.3149 -0.9658
   35POPC   C29 4699   2.533   1.334   9.845  1.1607  0.7390  0.0603
   35POPC   H91 4700   2.492   1.360   9.944 -1.9323 -0.2098 -0.9016
   35POPC  C210 4701   2.449   1.359   9.743  0.0562  0.0126  0.4635
   35POPC  H101 4702   2.347   1.391   9.769  0.3328  1.4802 -0.2162
   35POPC  C211 4703   2.478   1.337   9.596 -0.0867  0.1634  0.2033
   35POPC  H11R 4704   2.568   1.393   9.564  0.4885 -0.8402  0.0505
   35POPC  H11S 4705   2.394   1.379   9.536 -0.2872 -0.5645 -0.0432
   35POPC  C212 4706   2.490   1.192   9.534 -0.3002  0.3376  0.0071
   35POPC  H12R 4707   2.413   1.123   9.576 -0.0880 -0.0327 -0.2176
   35POPC  H12S 4708   2.596   1.162   9.548 -0.7498 -1.0128  0.7024
   35POPC  C213 4709   2.447   1.179   9.382 -0.4841 -0.2228 -0.4439
   35POPC  H13R 4710   2.346   1.224   9.371 -0.2486  0.8803  1.6921
   35POPC  H13S 4711   2.435   1.071   9.358 -2.9071 -0.0651 -0.1475
   35POPC  C214 4712   2.532   1.259   9.285 -0.8336  0.0713  0.5306
   35POPC  H14R 4713   2.639   1.227   9.287 -1.1702 -1.1942 -0.7926
   35POPC  H14S 4714   2.540   1.364   9.322  0.3636  0.4582 -0.7665
   35POPC  C215 4715   2.482   1.261   9.135 -0.4634  0.0549 -0.5512
   35POPC  H15R 4716   2.528   1.349   9.086 -0.9267  0.2899 -0.5667
   35POPC  H15S 4717   2.376   1.292   9.131  0.1049  2.3084  0.6718
   35POPC  C216 4718   2.504   1.130   9.052 -0.5842  1.2300 -0.5696
   35POPC  H16R 4719   2.425   1.055   9.072 -1.0718  1.6115 -1.0865
   35POPC  H16S 4720   2.601   1.084   9.082 -1.8322 -0.2501  1.2686
   35POPC  C217 4721   2.503   1.163   8.895 -0.1472  0.0411  0.5232
   35POPC  H17R 4722   2.581   1.240   8.874 -0.0004 -0.9443 -2.7138
   35POPC  H17S 4723   2.409   1.219   8.876 -0.2138  0.2504  1.4441
   35POPC  C218 4724   2.523   1.036   8.813  0.5886  0.7166 -1.0507
   35POPC  H18R 4725   2.619   0.986   8.839  0.3148  0.7966  0.1225
   35POPC  H18S 4726   2.517   1.060   8.705 -1.4388  2.0000 -0.6702
   35POPC  H18T 4727   2.444   0.962   8.837 -1.2191  2.8424 -0.3207
   35POPC   C33 4728   2.523   1.690  10.296  0.6220 -0.4187  0.8609
   35POPC   H3X 4729   2.633   1.677  10.287  0.5263 -0.0993 -0.7909
   35POPC   H3Y 4730   2.518   1.787  10.351  0.6923  0.5568 -0.8228
   35POPC   C34 4731   2.450   1.703  10.161 -0.0892  0.5594  0.2617
   35POPC   H4X 4732   2.340   1.705  10.177 -0.3653 -1.2372 -1.2621
   35POPC   H4Y 4733   2.465   1.610  10.102  0.1943  2.9615 -3.6614
   35POPC   C35 4734   2.498   1.829  10.085 -0.7696 -0.1038  0.4297
   35POPC   H5X 4735   2.608   1.825  10.075 -0.7661  2.2167 -0.5927
   35POPC   H5Y 4736   2.463   1.919  10.141  0.0744  0.6385 -0.2290
   35POPC   C36 4737   2.436   1.864   9.945 -0.3239  0.1016 -0.4491
   35POPC   H6X 4738   2.504   1.942   9.904 -0.0503  0.1179  0.0287
   35POPC   H6Y 4739   2.332   1.897   9.966 -1.0859 -1.2841 -1.9584
   35POPC   C37 4740   2.429   1.742   9.859  0.1333  0.0381  0.7947
   35POPC   H7X 4741   2.345   1.676   9.889 -0.7399 -0.2436 -2.0701
   35POPC   H7Y 4742   2.524   1.685   9.863  0.0490 -0.0130  2.1189
   35POPC   C38 4743   2.412   1.802   9.715  0.0052 -0.0176  0.7705
   35POPC   H8X 4744   2.492   1.878   9.698 -0.3576  0.7695  2.4371
   35POPC   H8Y 4745   2.311   1.848   9.706 -1.1669 -3.1302 -3.0913
   35POPC   C39 4746   2.429   1.699   9.605  0.2897  0.9605  0.4918
   35POPC   H9X 4747   2.348   1.623   9.618 -0.0484  0.5883 -3.2644
   35POPC   H9Y 4748   2.530   1.655   9.623 -0.9940 -1.5510  1.8039
   35POPC  C310 4749   2.435   1.764   9.462  0.2559  0.0219 -0.1247
   35POPC  H10X 4750   2.522   1.833   9.460  0.6399 -0.3590  1.8516
   35POPC  H10Y 4751   2.338   1.814   9.441 -0.5345 -0.6886  1.7243
   35POPC  C311 4752   2.452   1.662   9.349  0.3273 -0.2289 -0.6565
   35POPC  H11X 4753   2.362   1.597   9.347 -0.0788  0.2365  1.2467
   35POPC  H11Y 4754   2.547   1.603   9.352  0.7931  0.5704  1.0506
   35POPC  C312 4755   2.437   1.733   9.210  0.2204 -0.4709  0.0523
   35POPC  H12X 4756   2.519   1.808   9.198  1.0902 -1.1966  1.4038
   35POPC  H12Y 4757   2.337   1.780   9.202  1.6599  2.5063 -1.4843
   35POPC  C313 4758   2.443   1.624   9.095 -0.1758 -0.0851 -0.1823
   35POPC  H13X 4759   2.365   1.548   9.118  1.1816 -1.2923  0.5009
   35POPC  H13Y 4760   2.547   1.588   9.112 -0.3092  0.1023  1.0738
   35POPC  C314 4761   2.443   1.692   8.960  0.1881 -0.0558  0.3060
   35POPC  H14X 4762   2.505   1.784   8.962  1.6018 -0.9468 -1.1433
   35POPC  H14Y 4763   2.339   1.720   8.933  0.2766 -1.0937 -1.1765
   35POPC  C315 4764   2.480   1.597   8.847  0.4330  0.1054 -0.0071
   35POPC  H15X 4765   2.461   1.650   8.750  0.0117 -0.9448 -0.5034
   35POPC  H15Y 4766   2.425   1.501   8.846  2.2244 -0.9249 -1.6977
   35POPC  C316 4767   2.625   1.553   8.825 -0.4347 -0.3321 -0.6145
   35POPC  H16X 4768   2.635   1.453   8.872  0.2606 -0.1989 -0.4627
   35POPC  H16Y 4769   2.698   1.616   8.881 -1.6939  1.4324 -0.9379
   35POPC  H16Z 4770   2.661   1.547   8.720 -1.6172  0.9581 -1.1085
   36POPC     N 4771   2.453   6.219  11.302 -0.3832  0.2584  0.5825
   36POPC   C12 4772   2.511   6.359  11.312 -0.2419 -0.4639 -0.4079
   36POPC  H12A 4773   2.586   6.356  11.389 -0.3418 -0.6270 -0.3160
   36POPC  H12B 4774   2.426   6.417  11.346  0.5909  0.1113  0.6993
   36POPC   C13 4775   2.343   6.219  11.195  0.5362 -0.6411  0.2151
   36POPC  H13A 4776   2.252   6.235  11.251 -0.7364 -1.6138 -1.5242
   36POPC  H13B 4777   2.366   6.303  11.130  2.2478  0.4759  2.1880
   36POPC  H13C 4778   2.334   6.128  11.138  0.0360  0.4661 -1.5565
   36POPC   C14 4779   2.557   6.128  11.252 -0.0801  0.8589  0.4990
   36POPC  H14A 4780   2.651   6.131  11.305  2.0754 -0.6351 -3.0602
   36POPC  H14B 4781   2.520   6.027  11.257  1.3469  0.2047 -1.4462
   36POPC  H14C 4782   2.574   6.138  11.146 -0.7007  0.9521  0.4081
   36POPC   C15 4783   2.398   6.167  11.431 -0.1030  0.2329 -0.5966
   36POPC  H15A 4784   2.322   6.232  11.473 -1.8870 -1.4914 -1.0928
   36POPC  H15B 4785   2.481   6.154  11.498 -0.6943  0.3309  0.1664
   36POPC  H15C 4786   2.359   6.067  11.417  0.7439 -0.3935  1.4056
   36POPC   C11 4787   2.575   6.417  11.185  0.0128  0.1766  0.5896
   36POPC  H11A 4788   2.634   6.340  11.131 -1.8059  0.2168 -1.5396
   36POPC  H11B 4789   2.647   6.496  11.215  0.4623 -0.2164  0.5533
   36POPC     P 4790   2.414   6.608  11.090 -0.6799  0.0438 -0.0976
   36POPC   O13 4791   2.414   6.665  11.220 -0.2627 -0.0382 -0.1456
   36POPC   O14 4792   2.274   6.592  11.038 -0.0645 -0.2819  0.4371
   36POPC   O12 4793   2.480   6.472  11.091 -0.8263 -0.0831 -0.6775
   36POPC   O11 4794   2.506   6.685  10.985  0.3923 -0.4417  0.6619
   36POPC    C1 4795   2.450   6.808  10.924  0.0082  0.4015 -0.3544
   36POPC    HA 4796   2.529   6.885  10.920  1.5424 -1.1557 -0.3690
   36POPC    HB 4797   2.377   6.850  10.996 -0.0254  2.2321 -1.4393
   36POPC    C2 4798   2.395   6.783  10.782  0.1155 -0.3456 -0.0009
   36POPC    HS 4799   2.325   6.698  10.795  0.9439 -1.0231  0.0995
   36POPC   O21 4800   2.505   6.740  10.701  0.0243  0.4129 -0.5464
   36POPC   C21 4801   2.494   6.630  10.634  0.1706  0.4667 -0.1013
   36POPC   O22 4802   2.415   6.541  10.647 -0.0193  0.4034 -0.5169
   36POPC   C22 4803   2.620   6.619  10.550 -0.0767 -0.6221  0.4119
   36POPC   H2R 4804   2.707   6.612  10.618 -0.0336  0.0205  0.4253
   36POPC   H2S 4805   2.646   6.712  10.495  1.0232  0.1044  2.1370
   36POPC    C3 4806   2.328   6.910  10.731  0.2568 -0.2372 -0.2320
   36POPC    HX 4807   2.395   6.995  10.753 -1.4748  1.2529 -0.5826
   36POPC    HY 4808   2.247   6.932  10.804  1.3096 -0.3686  0.9836
   36POPC   O31 4809   2.279   6.901  10.602 -0.4049  0.1156 -0.0792
   36POPC   C31 4810   2.366   6.924  10.503 -0.3009  0.0810 -0.0295
   36POPC   O32 4811   2.480   6.963  10.509  0.5771  0.4249  0.0632
   36POPC   C32 4812   2.293   6.897  10.368  0.5294  0.0637 -0.4834
   36POPC   H2X 4813   2.186   6.883  10.395  0.5986  2.0560  0.9806
   36POPC   H2Y 4814   2.336   6.804  10.326 -0.9864 -1.7137  1.7833
   36POPC   C23 4815   2.610   6.502  10.443 -0.1219 -0.1252  0.6207
   36POPC   H3R 4816   2.596   6.408  10.501 -0.4821 -0.3324  0.1994
   36POPC   H3S 4817   2.708   6.501  10.391 -0.2115  0.2443  0.4404
   36POPC   C24 4818   2.501   6.527  10.335  0.6218  0.2763  0.2033
   36POPC   H4R 4819   2.432   6.606  10.372  1.7990  1.5767 -0.3136
   36POPC   H4S 4820   2.433   6.441  10.320 -1.1482  1.7446 -0.2885
   36POPC   C25 4821   2.542   6.554  10.193 -0.9276  0.0481 -0.0201
   36POPC   H5R 4822   2.579   6.456  10.156 -0.2556  0.1801  0.2860
   36POPC   H5S 4823   2.625   6.628  10.198 -2.4578  1.7304  0.8830
   36POPC   C26 4824   2.423   6.600  10.103  0.6413  0.0089 -0.3811
   36POPC   H6R 4825   2.410   6.707  10.133  1.6442 -0.0184  0.1679
   36POPC   H6S 4826   2.341   6.526  10.111 -0.8890  1.5964 -0.9459
   36POPC   C27 4827   2.460   6.615   9.952 -0.3106 -0.0247 -0.1774
   36POPC   H7R 4828   2.492   6.515   9.916  0.0879 -0.0198  0.1601
   36POPC   H7S 4829   2.553   6.675   9.951  0.3663 -1.0293 -3.6266
   36POPC   C28 4830   2.356   6.694   9.869 -0.1568  0.3188  0.0314
   36POPC   H8R 4831   2.342   6.787   9.927 -1.8689 -0.0291  0.2090
   36POPC   H8S 4832   2.257   6.644   9.869 -0.1146  0.2357  0.2015
   36POPC   C29 4833   2.406   6.726   9.735  0.8880 -0.1823  0.5689
   36POPC   H91 4834   2.504   6.681   9.711  1.4939  3.0395 -3.6416
   36POPC  C210 4835   2.335   6.795   9.642 -0.2039  0.0435 -0.1300
   36POPC  H101 4836   2.372   6.802   9.539  0.5286 -0.1946  0.1175
   36POPC  C211 4837   2.199   6.856   9.649 -0.5744  0.0673  0.0221
   36POPC  H11R 4838   2.209   6.966   9.662  2.0692  0.2021 -2.5785
   36POPC  H11S 4839   2.152   6.828   9.746 -1.6641  2.4350  0.2098
   36POPC  C212 4840   2.091   6.820   9.536  0.2958  0.3447  0.6029
   36POPC  H12R 4841   1.991   6.861   9.562 -1.0781 -1.6646 -1.3157
   36POPC  H12S 4842   2.084   6.709   9.530  1.8153  0.1160  2.5689
   36POPC  C213 4843   2.132   6.886   9.401  0.5691  0.8626  0.2239
   36POPC  H13R 4844   2.232   6.854   9.366 -0.5849 -0.3955 -2.0427
   36POPC  H13S 4845   2.131   6.997   9.411 -2.4467  1.0081 -1.2019
   36POPC  C214 4846   2.022   6.845   9.300  0.0663  0.0785  0.9797
   36POPC  H14R 4847   1.917   6.861   9.334 -0.0254  3.7382 -0.7081
   36POPC  H14S 4848   2.037   6.737   9.282  0.1992  0.0476  1.2754
   36POPC  C215 4849   2.045   6.904   9.164  0.1544  0.0071 -0.5913
   36POPC  H15R 4850   2.154   6.912   9.145  0.1241 -0.2616 -0.8977
   36POPC  H15S 4851   2.018   7.011   9.157  0.8795  0.2599  0.3321
   36POPC  C216 4852   1.985   6.811   9.054 -0.7377 -0.5624 -0.7764
   36POPC  H16R 4853   1.878   6.795   9.080 -0.8896  0.4424 -0.7727
   36POPC  H16S 4854   2.042   6.715   9.062 -0.5220 -0.4568 -1.0597
   36POPC  C217 4855   1.986   6.870   8.911  0.0281  0.0780 -0.0875
   36POPC  H17R 4856   1.964   6.781   8.850  1.5898  0.3646 -1.0967
   36POPC  H17S 4857   2.085   6.905   8.875  1.3173 -3.3899 -0.0559
   36POPC  C218 4858   1.882   6.980   8.881  0.2176  0.0268  0.0778
   36POPC  H18R 4859   1.793   6.958   8.944 -0.9669  0.3749 -1.4350
   36POPC  H18S 4860   1.848   6.968   8.776 -0.6396 -1.6238  0.5194
   36POPC  H18T 4861   1.908   7.086   8.902 -2.2299  0.7449 -0.2681
   36POPC   C33 4862   2.301   7.006  10.270  0.4288 -0.8813 -0.8847
   36POPC   H3X 4863   2.297   6.971  10.165 -0.3947 -0.4372 -1.0063
   36POPC   H3Y 4864   2.399   7.058  10.276 -0.4470  0.6886  0.1025
   36POPC   C34 4865   2.189   7.121  10.293  0.0774  0.5867  0.1500
   36POPC   H4X 4866   2.168   7.139  10.400  0.2603 -0.3550  0.3548
   36POPC   H4Y 4867   2.094   7.098  10.240 -0.9156  1.5096  1.5326
   36POPC   C35 4868   2.236   7.263  10.241  0.6215  0.0600 -0.3357
   36POPC   H5X 4869   2.319   7.302  10.304  0.0683 -0.0734  0.4877
   36POPC   H5Y 4870   2.156   7.334  10.272 -0.8210 -1.6843  0.0553
   36POPC   C36 4871   2.269   7.282  10.094  0.0993  0.2042 -0.4852
   36POPC   H6X 4872   2.325   7.192  10.062  0.4423  0.5719 -0.9319
   36POPC   H6Y 4873   2.327   7.375  10.078  1.9421 -0.4531  2.1013
   36POPC   C37 4874   2.138   7.289  10.019 -0.0835  0.2100 -0.4408
   36POPC   H7X 4875   2.075   7.363  10.074  0.0179  0.4594 -0.6607
   36POPC   H7Y 4876   2.085   7.192  10.026 -0.7636  0.6905  1.4691
   36POPC   C38 4877   2.166   7.326   9.867 -0.1821  0.2483 -0.3045
   36POPC   H8X 4878   2.242   7.251   9.838  0.3521  1.3642 -1.8839
   36POPC   H8Y 4879   2.201   7.430   9.849 -1.2651  0.6963  0.0766
   36POPC   C39 4880   2.032   7.299   9.795 -0.3495  1.1469  0.5251
   36POPC   H9X 4881   1.959   7.382   9.813 -2.5432  0.0490 -2.8006
   36POPC   H9Y 4882   1.987   7.201   9.821 -0.5689  0.4585 -2.2387
   36POPC  C310 4883   2.049   7.300   9.642 -0.4494 -0.1881 -0.4956
   36POPC  H10X 4884   2.125   7.226   9.607  2.8037  2.0935  1.4086
   36POPC  H10Y 4885   2.083   7.404   9.623 -1.1806  0.0970 -0.2597
   36POPC  C311 4886   1.922   7.276   9.558  0.2515 -0.7155  0.8200
   36POPC  H11X 4887   1.852   7.352   9.598 -0.3968 -1.3285  0.8522
   36POPC  H11Y 4888   1.885   7.172   9.551  0.0992 -0.5991 -0.2571
   36POPC  C312 4889   1.949   7.307   9.409  0.2214  0.3563  0.4899
   36POPC  H12X 4890   2.028   7.232   9.383 -1.1215 -1.1534  0.6959
   36POPC  H12Y 4891   1.991   7.409   9.396  0.0989  0.1764 -1.4934
   36POPC  C313 4892   1.834   7.291   9.312 -0.0468 -0.3160 -0.1253
   36POPC  H13X 4893   1.763   7.369   9.344  1.2941  0.4854  0.9248
   36POPC  H13Y 4894   1.793   7.195   9.350  0.4616  0.5270  2.6749
   36POPC  C314 4895   1.872   7.298   9.164  0.1888 -0.8044 -0.7005
   36POPC  H14X 4896   1.924   7.205   9.130  2.1412  0.0305 -0.0489
   36POPC  H14Y 4897   1.924   7.395   9.148 -2.7068  1.0713  0.8853
   36POPC  C315 4898   1.747   7.311   9.074  0.0357  0.0868 -0.9296
   36POPC  H15X 4899   1.660   7.312   9.143  1.0952 -0.3335  0.4186
   36POPC  H15Y 4900   1.727   7.214   9.024  2.7014 -1.8608  1.6700
   36POPC  C316 4901   1.757   7.427   8.971  0.2309  0.6432 -0.7554
   36POPC  H16X 4902   1.829   7.399   8.890 -0.5907  0.9078 -1.5876
   36POPC  H16Y 4903   1.780   7.527   9.013 -3.6055  1.2418  0.0154
   36POPC  H16Z 4904   1.657   7.440   8.924 -0.0193 -0.8218 -0.6457
   37POPC     N 4905   0.593   3.066   6.530 -0.1149 -0.2568  0.0329
   37POPC   C12 4906   0.612   3.031   6.679  0.2675  0.1014  0.2926
   37POPC  H12A 4907   0.639   3.120   6.734  0.6044  0.2179 -0.0626
   37POPC  H12B 4908   0.688   2.954   6.681  0.9777  0.7614 -1.0847
   37POPC   C13 4909   0.531   2.948   6.453 -0.3150 -0.2016  0.1670
   37POPC  H13A 4910   0.608   2.872   6.463 -2.7438 -2.6304  1.0278
   37POPC  H13B 4911   0.435   2.917   6.490 -0.1162 -0.7917  0.1914
   37POPC  H13C 4912   0.528   2.971   6.348 -0.2543 -4.3019 -0.8099
   37POPC   C14 4913   0.507   3.184   6.507  0.4767 -0.1210 -0.8677
   37POPC  H14A 4914   0.542   3.276   6.551 -0.0042  0.8104 -2.3914
   37POPC  H14B 4915   0.501   3.218   6.404  0.2651  1.2921 -0.3983
   37POPC  H14C 4916   0.413   3.157   6.552  0.9035  1.1840  0.8249
   37POPC   C15 4917   0.727   3.088   6.466 -0.5398 -0.4639  0.4246
   37POPC  H15A 4918   0.713   3.114   6.362  3.1864 -1.6634 -0.4582
   37POPC  H15B 4919   0.781   2.995   6.476  2.6238  1.1560 -1.1339
   37POPC  H15C 4920   0.784   3.164   6.517  0.3750 -1.2438  0.5669
   37POPC   C11 4921   0.488   2.981   6.756 -0.3514 -0.8982  0.2831
   37POPC  H11A 4922   0.412   3.061   6.744  1.5093  0.9391  0.6412
   37POPC  H11B 4923   0.500   2.977   6.866  1.4182 -1.5756  0.0873
   37POPC     P 4924   0.505   2.721   6.777 -0.2036  0.2198  0.0478
   37POPC   O13 4925   0.648   2.703   6.749  0.2626 -0.2264 -0.3134
   37POPC   O14 4926   0.411   2.612   6.738  0.1199 -0.1529 -0.1254
   37POPC   O12 4927   0.443   2.851   6.711  0.6066  0.0912  0.0355
   37POPC   O11 4928   0.479   2.738   6.932 -0.1212  0.5022 -0.1479
   37POPC    C1 4929   0.350   2.785   6.985  0.3575 -0.1046 -0.5340
   37POPC    HA 4930   0.262   2.779   6.919 -0.2705 -1.4871  0.4010
   37POPC    HB 4931   0.357   2.896   6.984 -2.2077  0.0889  0.7111
   37POPC    C2 4932   0.320   2.738   7.135  0.3006 -0.5269 -0.7927
   37POPC    HS 4933   0.229   2.796   7.164  0.2534 -0.2489 -1.4733
   37POPC   O21 4934   0.426   2.765   7.231  0.4049  0.5971  0.3934
   37POPC   C21 4935   0.460   2.887   7.249  0.5624  0.0519 -0.8379
   37POPC   O22 4936   0.404   2.989   7.216 -0.3100  0.9855 -0.0971
   37POPC   C22 4937   0.586   2.888   7.344  0.2133 -0.5565 -0.0430
   37POPC   H2R 4938   0.674   2.843   7.292 -0.7246 -3.0633  0.4365
   37POPC   H2S 4939   0.565   2.820   7.429 -0.8773  0.0479  0.1835
   37POPC    C3 4940   0.283   2.594   7.146  0.0225  0.3680 -0.7217
   37POPC    HX 4941   0.383   2.545   7.147 -0.2085 -0.1561  1.9359
   37POPC    HY 4942   0.224   2.543   7.067  0.3911 -1.5542  0.2127
   37POPC   O31 4943   0.224   2.577   7.280 -0.8140 -0.1009  0.9409
   37POPC   C31 4944   0.102   2.617   7.295 -0.4764  0.2760 -0.4109
   37POPC   O32 4945   0.022   2.644   7.204  0.4766 -0.3306 -0.7206
   37POPC   C32 4946   0.066   2.628   7.440  0.4893  0.0910  0.3140
   37POPC   H2X 4947   0.057   2.528   7.488 -2.0265  0.8431  1.4674
   37POPC   H2Y 4948  -0.031   2.678   7.457 -0.8455 -2.4355  0.3180
   37POPC   C23 4949   0.636   3.028   7.383 -0.1844 -0.1091  0.7767
   37POPC   H3R 4950   0.548   3.090   7.409  0.5359  1.1140  0.3223
   37POPC   H3S 4951   0.693   3.073   7.299  1.3165 -2.7151  0.3306
   37POPC   C24 4952   0.734   3.013   7.500  0.6900 -0.7060  0.2395
   37POPC   H4R 4953   0.773   3.114   7.528  2.2195 -2.0657  3.2158
   37POPC   H4S 4954   0.815   2.945   7.466  0.9069  0.3158 -1.3338
   37POPC   C25 4955   0.663   2.953   7.631 -0.1323 -0.2169  0.7681
   37POPC   H5R 4956   0.631   2.850   7.607 -2.8723  1.3594 -2.6897
   37POPC   H5S 4957   0.583   3.024   7.661 -0.4429  0.3707 -1.4073
   37POPC   C26 4958   0.771   2.945   7.738  0.3803  0.2460  0.9250
   37POPC   H6R 4959   0.724   2.932   7.838  0.6985 -0.9535  0.9310
   37POPC   H6S 4960   0.834   3.036   7.734  0.0431  0.4190 -0.7949
   37POPC   C27 4961   0.872   2.826   7.717  0.2454 -0.5178 -0.1155
   37POPC   H7R 4962   0.895   2.830   7.609  0.6435  1.7182  0.0476
   37POPC   H7S 4963   0.833   2.722   7.730 -2.9589  0.5028 -1.1631
   37POPC   C28 4964   0.991   2.845   7.812 -0.5000  0.6772  0.2087
   37POPC   H8R 4965   0.973   2.827   7.920  1.5532  0.2976  0.5095
   37POPC   H8S 4966   1.026   2.950   7.797 -1.1279  0.8807  0.1844
   37POPC   C29 4967   1.096   2.737   7.767  0.2855  0.6027 -0.5870
   37POPC   H91 4968   1.144   2.754   7.670  0.9303  0.7143 -0.2502
   37POPC  C210 4969   1.101   2.618   7.827 -0.1590 -0.0398 -0.1105
   37POPC  H101 4970   1.178   2.546   7.796  0.8945  1.8146 -1.8926
   37POPC  C211 4971   1.020   2.568   7.942 -0.2395  0.1444 -0.1688
   37POPC  H11R 4972   1.011   2.459   7.923 -0.1887  0.4302 -1.9438
   37POPC  H11S 4973   0.921   2.618   7.933 -0.6663 -0.2007  2.3687
   37POPC  C212 4974   1.075   2.599   8.082 -0.0355  0.2712 -0.1176
   37POPC  H12R 4975   1.094   2.707   8.095  0.5565  0.3201 -1.3361
   37POPC  H12S 4976   1.166   2.536   8.089 -1.1783 -1.4624 -0.5021
   37POPC  C213 4977   0.976   2.565   8.196  0.4158  0.1571  0.8389
   37POPC  H13R 4978   0.928   2.465   8.199  0.2386  0.1849 -0.7283
   37POPC  H13S 4979   0.883   2.626   8.193 -0.6737 -1.4855  0.7132
   37POPC  C214 4980   1.034   2.599   8.336 -0.1322 -0.9583 -0.0536
   37POPC  H14R 4981   1.046   2.708   8.355 -0.5934 -1.1288  1.2719
   37POPC  H14S 4982   1.135   2.554   8.323 -1.2829 -2.8671 -2.8654
   37POPC  C215 4983   0.963   2.530   8.449  0.5378  0.1294 -0.3781
   37POPC  H15R 4984   0.970   2.420   8.432  1.4508  0.4162 -1.9181
   37POPC  H15S 4985   0.858   2.565   8.455  0.4642 -0.3265  1.2426
   37POPC  C216 4986   1.043   2.571   8.574  0.5450  0.0744  0.0111
   37POPC  H16R 4987   1.001   2.666   8.611  0.4944  1.0340 -2.3990
   37POPC  H16S 4988   1.151   2.587   8.552  0.4898  1.5041  0.7410
   37POPC  C217 4989   1.041   2.459   8.681  0.0046  0.1476  0.4450
   37POPC  H17R 4990   1.113   2.383   8.642  1.5602  1.3447  0.9455
   37POPC  H17S 4991   0.939   2.420   8.703 -0.2140 -0.1563 -1.0736
   37POPC  C218 4992   1.100   2.518   8.809  0.3481 -0.1963 -1.1135
   37POPC  H18R 4993   1.122   2.436   8.880 -0.6708  0.2537 -0.2619
   37POPC  H18S 4994   1.021   2.585   8.849  0.9199  1.0739 -2.0758
   37POPC  H18T 4995   1.192   2.576   8.783  0.5052  0.6793  1.2772
   37POPC   C33 4996   0.176   2.710   7.514  0.9385 -0.6258 -0.0233
   37POPC   H3X 4997   0.177   2.817   7.484  0.0193 -0.4606  0.5248
   37POPC   H3Y 4998   0.277   2.677   7.482 -0.1687 -2.8497 -1.3082
   37POPC   C34 4999   0.158   2.702   7.663  0.0027  0.6204  0.5961
   37POPC   H4X 5000   0.138   2.598   7.695 -1.6034  0.1627 -1.8330
   37POPC   H4Y 5001   0.062   2.747   7.697 -0.4957 -0.7473  1.0304
   37POPC   C35 5002   0.269   2.764   7.746 -0.7618  0.2028 -0.3562
   37POPC   H5X 5003   0.275   2.874   7.732 -0.4762  0.3308  0.7677
   37POPC   H5Y 5004   0.357   2.715   7.698 -0.6164 -0.3861  0.5040
   37POPC   C36 5005   0.274   2.734   7.895  0.6690 -0.5312  0.3275
   37POPC   H6X 5006   0.280   2.624   7.912  1.3268 -0.4987  0.3155
   37POPC   H6Y 5007   0.173   2.761   7.932  0.0377 -0.8503 -1.1324
   37POPC   C37 5008   0.394   2.804   7.959 -0.3859  1.0066 -0.1981
   37POPC   H7X 5009   0.375   2.913   7.948 -3.2163  0.4538 -1.0363
   37POPC   H7Y 5010   0.493   2.781   7.914 -0.5726 -0.5870  0.1712
   37POPC   C38 5011   0.413   2.768   8.104  0.1364  0.8573 -0.1045
   37POPC   H8X 5012   0.435   2.659   8.109  0.8542  1.0863  4.1948
   37POPC   H8Y 5013   0.331   2.783   8.177  0.5480 -1.0149  0.7782
   37POPC   C39 5014   0.542   2.832   8.158 -0.1825 -0.1976  0.1786
   37POPC   H9X 5015   0.623   2.829   8.083  1.6146 -1.6338  2.1255
   37POPC   H9Y 5016   0.580   2.768   8.240  0.9043  1.5195  1.0579
   37POPC  C310 5017   0.512   2.968   8.218 -0.2060  0.8602 -0.3597
   37POPC  H10X 5018   0.435   2.950   8.296 -0.0882 -0.8627 -0.6086
   37POPC  H10Y 5019   0.469   3.041   8.147  1.3967  1.0706 -1.1248
   37POPC  C311 5020   0.629   3.042   8.285 -0.6042 -0.3017  0.3458
   37POPC  H11X 5021   0.699   2.969   8.330  0.4412  0.1597 -0.5125
   37POPC  H11Y 5022   0.572   3.106   8.355  0.7464  0.4480  0.7773
   37POPC  C312 5023   0.704   3.142   8.195 -0.2051  0.6904 -0.4354
   37POPC  H12X 5024   0.648   3.236   8.175 -0.8433  0.0917 -1.5159
   37POPC  H12Y 5025   0.710   3.096   8.094 -0.5147 -1.2507  0.4160
   37POPC  C313 5026   0.851   3.162   8.242  0.3333 -1.2518 -0.0452
   37POPC  H13X 5027   0.850   3.191   8.349 -0.0832 -0.0088 -0.3733
   37POPC  H13Y 5028   0.889   3.252   8.190 -1.1713 -0.7818 -0.3741
   37POPC  C314 5029   0.938   3.042   8.200  0.1400  0.4465  0.7391
   37POPC  H14X 5030   0.887   3.015   8.106 -0.3096 -0.0629  1.1250
   37POPC  H14Y 5031   0.918   2.956   8.268  1.6393 -1.1021 -0.7416
   37POPC  C315 5032   1.083   3.083   8.194  0.2923 -0.3574  0.7269
   37POPC  H15X 5033   1.097   3.176   8.134 -3.2372 -1.8514 -2.5813
   37POPC  H15Y 5034   1.136   2.991   8.162  1.3012 -0.0555  1.4712
   37POPC  C316 5035   1.134   3.110   8.339  0.0714  0.5500  0.1319
   37POPC  H16X 5036   1.094   3.207   8.374 -0.4010  0.4318 -0.0811
   37POPC  H16Y 5037   1.245   3.109   8.348 -0.0391  2.4993  1.9845
   37POPC  H16Z 5038   1.091   3.028   8.400 -0.5521  0.3629 -0.5455
   38POPC     N 5039   1.389   5.828   6.000  0.1746 -0.2373  0.5227
   38POPC   C12 5040   1.506   5.877   6.082  0.1725  0.8733 -0.2587
   38POPC  H12A 5041   1.515   5.984   6.072  2.6952  0.4947 -2.6564
   38POPC  H12B 5042   1.598   5.837   6.041  0.9264  0.9342  1.3179
   38POPC   C13 5043   1.271   5.912   6.043  0.3858 -0.0762 -0.3097
   38POPC  H13A 5044   1.284   6.018   6.027 -0.9456 -0.4150 -4.1209
   38POPC  H13B 5045   1.187   5.894   5.978 -0.3113 -0.2623  0.6289
   38POPC  H13C 5046   1.243   5.888   6.145 -2.4855 -1.1714 -1.3183
   38POPC   C14 5047   1.425   5.872   5.857  0.5374  0.3895 -0.4409
   38POPC  H14A 5048   1.426   5.979   5.850  1.8352  0.2501 -2.9737
   38POPC  H14B 5049   1.526   5.837   5.840  0.7958  2.5475 -3.8322
   38POPC  H14C 5050   1.360   5.835   5.778  0.1390  2.5385 -1.1586
   38POPC   C15 5051   1.367   5.677   6.010 -0.7805 -0.8146  0.1369
   38POPC  H15A 5052   1.336   5.663   6.113  0.8952  0.7892  0.8902
   38POPC  H15B 5053   1.464   5.632   5.997 -0.3365 -0.2632  1.3433
   38POPC  H15C 5054   1.306   5.639   5.930 -2.1162 -1.6504  1.5189
   38POPC   C11 5055   1.500   5.827   6.231 -0.2447  0.1868  0.0681
   38POPC  H11A 5056   1.598   5.847   6.279  0.3670  0.6787 -1.3440
   38POPC  H11B 5057   1.487   5.719   6.250  0.3281  0.3653  1.5492
   38POPC     P 5058   1.421   6.036   6.374 -0.0353 -0.1843  0.0502
   38POPC   O13 5059   1.290   6.099   6.392 -0.5211 -0.3079 -0.0864
   38POPC   O14 5060   1.522   6.114   6.295  0.1899 -0.2729 -0.6736
   38POPC   O12 5061   1.397   5.891   6.310 -0.2651  0.0897  0.1692
   38POPC   O11 5062   1.487   5.995   6.510  0.0385  0.4828  0.9032
   38POPC    C1 5063   1.403   5.950   6.620  0.0786 -0.0633  0.5694
   38POPC    HA 5064   1.322   5.878   6.599  0.2377 -0.2867  0.7254
   38POPC    HB 5065   1.360   6.040   6.670  1.3036  0.4184  0.7849
   38POPC    C2 5066   1.495   5.865   6.714  0.3510 -0.1303 -0.0662
   38POPC    HS 5067   1.427   5.799   6.773 -0.5176  0.4189 -0.4469
   38POPC   O21 5068   1.554   5.960   6.796  0.1541 -0.0554  0.4976
   38POPC   C21 5069   1.606   5.911   6.908  0.4005 -0.1895  0.2387
   38POPC   O22 5070   1.597   5.800   6.957  0.6062 -0.2882  0.6123
   38POPC   C22 5071   1.682   6.020   6.976  0.2879 -0.3896 -0.0612
   38POPC   H2R 5072   1.614   6.108   6.986 -1.9649 -2.0722 -0.0215
   38POPC   H2S 5073   1.773   6.042   6.916 -1.6033 -0.5221 -3.1126
   38POPC    C3 5074   1.592   5.782   6.624 -0.6915 -0.7434  0.4851
   38POPC    HX 5075   1.658   5.847   6.563 -0.9358 -1.4998 -0.6056
   38POPC    HY 5076   1.528   5.722   6.555 -0.8315  1.9499 -1.7976
   38POPC   O31 5077   1.671   5.702   6.702 -0.2097 -0.2585 -0.3575
   38POPC   C31 5078   1.617   5.589   6.752 -0.0454  0.5051  0.0027
   38POPC   O32 5079   1.503   5.549   6.733 -0.0834 -0.2048  0.4307
   38POPC   C32 5080   1.724   5.494   6.795 -1.6506  0.0979  0.1648
   38POPC   H2X 5081   1.821   5.518   6.747 -0.1700  0.2367  3.0803
   38POPC   H2Y 5082   1.695   5.399   6.746 -0.7535  0.0924 -0.3754
   38POPC   C23 5083   1.742   5.975   7.114  0.3652  0.0061  0.8165
   38POPC   H3R 5084   1.815   6.052   7.148 -0.9444  1.0239  1.3462
   38POPC   H3S 5085   1.798   5.879   7.107  0.3303 -0.1740  2.6486
   38POPC   C24 5086   1.636   5.969   7.229  0.2465 -0.4002  0.4583
   38POPC   H4R 5087   1.554   5.902   7.196  1.0591 -0.6185 -1.1336
   38POPC   H4S 5088   1.598   6.073   7.231  2.5641  0.4927 -0.4354
   38POPC   C25 5089   1.695   5.931   7.367 -0.1034 -0.3314 -0.4962
   38POPC   H5R 5090   1.798   5.970   7.378 -0.7935  0.6428  3.1807
   38POPC   H5S 5091   1.699   5.820   7.368 -0.5158 -0.3534  2.1429
   38POPC   C26 5092   1.624   6.003   7.485  0.7230  0.6335 -0.1375
   38POPC   H6R 5093   1.514   5.990   7.476  0.7358  0.7592 -0.4799
   38POPC   H6S 5094   1.647   6.111   7.494  2.1665  0.2610  0.6866
   38POPC   C27 5095   1.654   5.935   7.609 -0.4751 -0.1025  0.2418
   38POPC   H7R 5096   1.763   5.929   7.625 -0.0485 -0.3329 -2.4948
   38POPC   H7S 5097   1.607   5.835   7.617 -2.7796  1.0040  1.1482
   38POPC   C28 5098   1.590   5.992   7.738 -0.3506  0.3008 -0.0922
   38POPC   H8R 5099   1.590   5.919   7.822  1.2764  0.1310 -0.2267
   38POPC   H8S 5100   1.483   6.018   7.722 -0.0416  0.5714 -1.8055
   38POPC   C29 5101   1.659   6.122   7.788  0.0669  0.0149 -0.0139
   38POPC   H91 5102   1.674   6.202   7.714  0.1248 -0.0951 -0.1185
   38POPC  C210 5103   1.715   6.136   7.906 -0.1844 -0.4511  0.4441
   38POPC  H101 5104   1.769   6.230   7.922 -0.5524  0.2364 -2.1889
   38POPC  C211 5105   1.723   6.040   8.020 -0.0905 -0.2811  0.3455
   38POPC  H11R 5106   1.814   6.061   8.080  0.6536 -1.4792 -0.3514
   38POPC  H11S 5107   1.755   5.942   7.978 -0.3576  1.1270 -3.2956
   38POPC  C212 5108   1.597   6.020   8.109 -0.5406 -0.1083 -0.7519
   38POPC  H12R 5109   1.590   5.913   8.137  1.8657 -0.1929 -0.3581
   38POPC  H12S 5110   1.509   6.025   8.041 -1.9022 -3.8803  0.6072
   38POPC  C213 5111   1.567   6.132   8.219 -0.4598  0.0374  0.3394
   38POPC  H13R 5112   1.557   6.228   8.164  0.4833 -0.5054 -0.7832
   38POPC  H13S 5113   1.653   6.148   8.287  0.2670 -1.1655 -0.2728
   38POPC  C214 5114   1.457   6.095   8.319  0.1035 -0.5738  0.1636
   38POPC  H14R 5115   1.363   6.091   8.260  0.5568  1.2466 -0.7209
   38POPC  H14S 5116   1.447   6.182   8.388 -2.1455  2.0722 -3.3308
   38POPC  C215 5117   1.473   5.961   8.393 -0.2592  0.4251  0.4465
   38POPC  H15R 5118   1.562   5.954   8.459 -0.7687 -0.0265  1.0912
   38POPC  H15S 5119   1.500   5.882   8.319  1.4402  1.7738 -0.4268
   38POPC  C216 5120   1.348   5.914   8.464 -0.2390 -0.6062 -0.3007
   38POPC  H16R 5121   1.384   5.842   8.540  2.5105  1.6540  0.6278
   38POPC  H16S 5122   1.282   5.866   8.388  0.2920  0.1935 -1.2779
   38POPC  C217 5123   1.276   6.023   8.539  0.0502  0.6006  0.1662
   38POPC  H17R 5124   1.188   5.978   8.590  2.9996 -1.7397  3.4090
   38POPC  H17S 5125   1.219   6.094   8.475 -0.9717 -2.2132 -2.2004
   38POPC  C218 5126   1.360   6.105   8.629 -0.3056 -0.3318  0.6273
   38POPC  H18R 5127   1.407   6.033   8.699  1.6232 -0.1585 -0.4669
   38POPC  H18S 5128   1.294   6.169   8.691  0.9499 -1.1431  2.8503
   38POPC  H18T 5129   1.428   6.179   8.582 -1.2136 -0.3705 -0.7827
   38POPC   C33 5130   1.740   5.472   6.946  0.6350 -0.2847  0.1532
   38POPC   H3X 5131   1.638   5.457   6.987  0.9663  2.3851  1.9997
   38POPC   H3Y 5132   1.778   5.563   6.996 -1.3170  0.7362 -0.1829
   38POPC   C34 5133   1.812   5.346   6.998 -0.1476 -0.8384  0.1555
   38POPC   H4X 5134   1.908   5.335   6.943 -1.0064  1.5898 -1.9558
   38POPC   H4Y 5135   1.761   5.255   6.960  0.0918  0.0744 -2.4995
   38POPC   C35 5136   1.816   5.338   7.154 -0.6161  0.1318 -0.1735
   38POPC   H5X 5137   1.837   5.236   7.192  1.0916  0.9493  1.1630
   38POPC   H5Y 5138   1.708   5.358   7.173 -1.0195 -0.4084 -1.7693
   38POPC   C36 5139   1.901   5.448   7.217 -0.1477 -0.8144  0.5158
   38POPC   H6X 5140   1.885   5.545   7.166 -1.2935 -1.3122 -0.1009
   38POPC   H6Y 5141   2.005   5.410   7.213 -0.6725 -2.5517  2.3227
   38POPC   C37 5142   1.863   5.461   7.369 -0.0056 -0.2905 -0.1898
   38POPC   H7X 5143   1.757   5.492   7.380 -0.2283 -0.2689 -2.1354
   38POPC   H7Y 5144   1.918   5.554   7.394 -1.5050 -0.2839  3.2946
   38POPC   C38 5145   1.901   5.347   7.460  0.2833 -0.3080  0.5847
   38POPC   H8X 5146   2.010   5.339   7.444 -0.0244 -1.7129 -0.9063
   38POPC   H8Y 5147   1.860   5.255   7.413 -0.0356 -0.7510  1.7029
   38POPC   C39 5148   1.848   5.348   7.601 -0.8608  0.6163  0.3170
   38POPC   H9X 5149   1.743   5.314   7.616 -1.0623  1.8514  1.8811
   38POPC   H9Y 5150   1.863   5.456   7.624  2.0743  0.2292  0.4346
   38POPC  C310 5151   1.938   5.270   7.700 -0.6158  0.5784  0.0924
   38POPC  H10X 5152   2.038   5.296   7.659  1.3197  0.2496  4.3656
   38POPC  H10Y 5153   1.922   5.160   7.688 -2.4026  0.6082  1.8738
   38POPC  C311 5154   1.933   5.314   7.842 -0.3474 -0.2046 -0.4068
   38POPC  H11X 5155   1.846   5.271   7.896 -0.4708  1.2259  0.5682
   38POPC  H11Y 5156   1.933   5.425   7.852  0.1394 -0.1433 -1.0916
   38POPC  C312 5157   2.060   5.288   7.925 -0.2450  0.3170  0.0803
   38POPC  H12X 5158   2.141   5.349   7.879 -1.3377  0.8064 -1.2289
   38POPC  H12Y 5159   2.107   5.188   7.914  0.5421  0.6634  0.2102
   38POPC  C313 5160   2.045   5.336   8.066  0.2919  0.4975 -0.7142
   38POPC  H13X 5161   2.009   5.441   8.067  1.8557  1.0657  2.9375
   38POPC  H13Y 5162   2.148   5.353   8.105  0.5050 -2.8615  0.2851
   38POPC  C314 5163   1.963   5.240   8.148 -0.2165 -0.2345 -0.7602
   38POPC  H14X 5164   1.992   5.142   8.106  0.3395 -0.5510  0.3409
   38POPC  H14Y 5165   1.857   5.255   8.117 -0.5350 -3.2419 -1.2254
   38POPC  C315 5166   1.999   5.256   8.294  0.0179 -0.0298  0.1150
   38POPC  H15X 5167   1.948   5.347   8.333 -0.7416  0.3244 -1.6744
   38POPC  H15Y 5168   2.110   5.264   8.297 -0.0309  0.3718  1.5507
   38POPC  C316 5169   1.951   5.134   8.373 -0.0706  0.3686 -0.6411
   38POPC  H16X 5170   2.004   5.040   8.348  1.5362  0.4815  2.1434
   38POPC  H16Y 5171   1.841   5.122   8.365  0.2186 -3.5001  0.0404
   38POPC  H16Z 5172   1.980   5.153   8.479  0.0611 -1.8158 -0.2549
   39POPC     N 5173   5.418   2.876   6.047 -0.3949 -0.1543  0.3676
   39POPC   C12 5174   5.329   2.761   6.004 -0.2343 -0.4447 -0.2745
   39POPC  H12A 5175   5.389   2.678   5.967 -1.3605 -1.4647  0.1388
   39POPC  H12B 5176   5.277   2.792   5.915 -2.7798 -0.8161  1.0199
   39POPC   C13 5177   5.491   2.842   6.177 -0.3349  0.1232 -0.9254
   39POPC  H13A 5178   5.555   2.756   6.169  0.6738  0.9394 -1.9413
   39POPC  H13B 5179   5.556   2.922   6.209  3.1344 -2.0010 -2.4115
   39POPC  H13C 5180   5.417   2.819   6.252  0.1294  2.4430  0.3054
   39POPC   C14 5181   5.518   2.905   5.939  0.2944  0.3597  0.2321
   39POPC  H14A 5182   5.573   2.813   5.923  1.3503  1.3296 -2.0302
   39POPC  H14B 5183   5.462   2.926   5.849  0.4922 -1.1895 -0.2821
   39POPC  H14C 5184   5.589   2.981   5.966 -0.2458  1.2591 -0.8329
   39POPC   C15 5185   5.343   2.999   6.068 -0.8633  0.3911 -0.4373
   39POPC  H15A 5186   5.288   3.028   5.980  0.5100  3.3181 -0.3939
   39POPC  H15B 5187   5.408   3.082   6.094  1.4950 -1.8475  1.1293
   39POPC  H15C 5188   5.277   3.006   6.153  1.7668  3.5158  1.4407
   39POPC   C11 5189   5.215   2.699   6.097  0.1991 -0.0136  0.3654
   39POPC  H11A 5190   5.163   2.614   6.048 -0.7803  0.1962  1.0092
   39POPC  H11B 5191   5.140   2.777   6.124 -0.0026  0.9996 -2.8868
   39POPC     P 5192   5.350   2.517   6.225  0.1868 -0.4002  0.0483
   39POPC   O13 5193   5.441   2.507   6.109  0.1318 -0.0768 -0.3459
   39POPC   O14 5194   5.254   2.406   6.233 -0.1847 -0.2636 -0.3864
   39POPC   O12 5195   5.267   2.649   6.223  0.4215  0.2816 -0.7053
   39POPC   O11 5196   5.427   2.517   6.358 -0.1256  0.8986 -0.0185
   39POPC    C1 5197   5.401   2.593   6.477  0.3511  0.3710  0.1254
   39POPC    HA 5198   5.297   2.576   6.510 -0.3021  0.9211 -1.5933
   39POPC    HB 5199   5.415   2.703   6.463  1.9592  0.1870  0.1931
   39POPC    C2 5200   5.499   2.554   6.598 -0.6470  0.8033  0.4771
   39POPC    HS 5201   5.545   2.456   6.572 -0.7751  0.5726  1.0997
   39POPC   O21 5202   5.428   2.550   6.721  0.1097 -0.5003 -0.0554
   39POPC   C21 5203   5.387   2.429   6.758  0.5681  0.6476 -0.1382
   39POPC   O22 5204   5.390   2.331   6.683  0.3247  0.1169  0.1094
   39POPC   C22 5205   5.336   2.438   6.900  0.4007 -0.3849  0.3784
   39POPC   H2R 5206   5.230   2.471   6.903  0.5122 -0.1007  1.6023
   39POPC   H2S 5207   5.399   2.518   6.947  0.3707 -0.0600 -0.1310
   39POPC    C3 5208   5.616   2.656   6.606  0.1983 -0.6644  0.1853
   39POPC    HX 5209   5.583   2.757   6.638 -0.5585 -0.6748 -0.5316
   39POPC    HY 5210   5.656   2.676   6.504  1.2608 -1.5969  0.4146
   39POPC   O31 5211   5.718   2.607   6.698 -0.4048 -0.3180 -0.0800
   39POPC   C31 5212   5.846   2.648   6.668 -0.9147  0.1629  0.7674
   39POPC   O32 5213   5.878   2.724   6.578 -0.0807  0.5943  0.3375
   39POPC   C32 5214   5.941   2.599   6.772  0.6595  0.0764 -0.4889
   39POPC   H2X 5215   5.943   2.488   6.783  2.4899  0.2277  0.9971
   39POPC   H2Y 5216   6.044   2.619   6.733  1.0752  1.0174  1.0623
   39POPC   C23 5217   5.339   2.305   6.978  0.4030 -0.7844 -0.3589
   39POPC   H3R 5218   5.440   2.260   6.984 -0.8787 -3.6761  0.3628
   39POPC   H3S 5219   5.283   2.226   6.924 -1.0989 -1.8066  2.5951
   39POPC   C24 5220   5.275   2.332   7.110  0.3330 -0.0392  0.0131
   39POPC   H4R 5221   5.275   2.245   7.179 -1.2667  0.9346  1.2683
   39POPC   H4S 5222   5.170   2.365   7.093  0.4317  1.0782  1.5015
   39POPC   C25 5223   5.354   2.435   7.202  0.0657 -0.2473 -0.1495
   39POPC   H5R 5224   5.381   2.523   7.140 -1.2490  1.0264  1.0218
   39POPC   H5S 5225   5.442   2.379   7.241  2.6073  2.7612 -1.3570
   39POPC   C26 5226   5.268   2.467   7.322  0.4499  0.1210 -0.3366
   39POPC   H6R 5227   5.247   2.379   7.387 -0.8039  0.8848  0.3129
   39POPC   H6S 5228   5.169   2.504   7.288  0.8916  0.9928 -0.6697
   39POPC   C27 5229   5.344   2.563   7.416  0.4196  0.0171 -0.0431
   39POPC   H7R 5230   5.383   2.643   7.351  0.5050  0.8826  1.0528
   39POPC   H7S 5231   5.433   2.508   7.453 -0.0248 -0.2330  0.6670
   39POPC   C28 5232   5.262   2.631   7.533 -0.0399 -0.1102 -0.1593
   39POPC   H8R 5233   5.167   2.677   7.498 -0.6294  0.6829  2.3714
   39POPC   H8S 5234   5.330   2.706   7.579  0.2961 -0.2138 -0.4874
   39POPC   C29 5235   5.224   2.527   7.634 -0.0543  0.0596  0.1026
   39POPC   H91 5236   5.127   2.482   7.605  0.7271 -0.7238 -1.3835
   39POPC  C210 5237   5.289   2.487   7.748  0.0622  0.6081  0.4040
   39POPC  H101 5238   5.240   2.412   7.812  2.0054 -0.2522  0.9338
   39POPC  C211 5239   5.428   2.535   7.791  0.0751 -0.0694 -0.5017
   39POPC  H11R 5240   5.471   2.602   7.714  1.1445  0.8977  0.9329
   39POPC  H11S 5241   5.493   2.447   7.809 -0.2283 -0.5273 -1.5585
   39POPC  C212 5242   5.426   2.628   7.918  0.7525 -0.1292  0.2140
   39POPC  H12R 5243   5.367   2.722   7.907  0.9053 -0.3189 -2.5181
   39POPC  H12S 5244   5.528   2.670   7.932  0.5158  0.0829  1.3861
   39POPC  C213 5245   5.372   2.556   8.041 -0.5685 -0.5161  0.7066
   39POPC  H13R 5246   5.423   2.458   8.046 -0.8778 -0.5779  3.2899
   39POPC  H13S 5247   5.267   2.526   8.023  0.0098 -1.1642 -1.7808
   39POPC  C214 5248   5.382   2.629   8.174  0.3528  0.0412 -0.4045
   39POPC  H14R 5249   5.377   2.547   8.250 -0.2135 -1.5326 -2.1049
   39POPC  H14S 5250   5.293   2.694   8.184  0.3043  0.1976 -1.8287
   39POPC  C215 5251   5.513   2.706   8.192 -0.2369 -0.4539  0.4823
   39POPC  H15R 5252   5.490   2.809   8.158  1.5324  0.2458  1.3359
   39POPC  H15S 5253   5.602   2.659   8.145  0.5029  2.0207 -0.6911
   39POPC  C216 5254   5.554   2.721   8.342  0.3271  0.4284 -0.2197
   39POPC  H16R 5255   5.649   2.778   8.339  0.2928  0.7972  3.3614
   39POPC  H16S 5256   5.589   2.625   8.386 -0.1642  0.5069  0.3441
   39POPC  C217 5257   5.456   2.775   8.457 -0.3356  0.1755  0.1969
   39POPC  H17R 5258   5.360   2.719   8.461 -1.1791  1.6969  1.3871
   39POPC  H17S 5259   5.431   2.877   8.420  1.0159  0.8699  1.1585
   39POPC  C218 5260   5.513   2.776   8.593 -0.2085  0.4332  0.0833
   39POPC  H18R 5261   5.609   2.830   8.582 -0.7362  1.1651 -1.0711
   39POPC  H18S 5262   5.519   2.668   8.615  1.9583  0.6337  0.5602
   39POPC  H18T 5263   5.438   2.824   8.660  0.3360 -0.4414  1.3311
   39POPC   C33 5264   5.935   2.674   6.905  0.0117 -0.7768  0.0487
   39POPC   H3X 5265   5.937   2.781   6.873  1.0085 -1.0868 -0.9395
   39POPC   H3Y 5266   6.019   2.656   6.975 -0.3977 -0.5196  0.6087
   39POPC   C34 5267   5.804   2.652   6.992 -0.1987  0.1937  0.6201
   39POPC   H4X 5268   5.722   2.681   6.923  2.3986  2.8812 -1.4983
   39POPC   H4Y 5269   5.816   2.725   7.075 -1.7235  0.0846  0.9405
   39POPC   C35 5270   5.776   2.506   7.038 -0.1555 -0.6282  0.4433
   39POPC   H5X 5271   5.763   2.449   6.944 -1.6631  0.1489  0.1609
   39POPC   H5Y 5272   5.679   2.505   7.093 -2.5851 -0.2006 -3.5914
   39POPC   C36 5273   5.891   2.461   7.126  0.5868 -0.1642  0.4701
   39POPC   H6X 5274   5.989   2.476   7.075  0.2269 -0.8441 -0.4160
   39POPC   H6Y 5275   5.875   2.353   7.145 -1.9384  0.0972 -0.0801
   39POPC   C37 5276   5.896   2.529   7.264  0.2081  0.0907  0.3665
   39POPC   H7X 5277   5.802   2.514   7.322 -0.2665 -0.8739 -0.6141
   39POPC   H7Y 5278   5.909   2.637   7.245  1.0804  0.1192  1.1097
   39POPC   C38 5279   6.022   2.491   7.345  0.3373 -0.4720  0.2516
   39POPC   H8X 5280   6.115   2.516   7.290  1.6083  1.4092  3.1142
   39POPC   H8Y 5281   6.030   2.381   7.358  2.1371 -0.0371  3.5686
   39POPC   C39 5282   6.036   2.548   7.490 -0.2740  0.5428  0.3559
   39POPC   H9X 5283   6.049   2.659   7.490  0.0574  0.5075 -0.2060
   39POPC   H9Y 5284   6.137   2.522   7.528 -0.4304  0.6814  0.8734
   39POPC  C310 5285   5.935   2.498   7.588  0.5664 -0.2259  0.1613
   39POPC  H10X 5286   5.953   2.390   7.607 -1.1238 -0.5656 -0.0336
   39POPC  H10Y 5287   5.834   2.498   7.541  0.1614 -1.2096  1.0126
   39POPC  C311 5288   5.922   2.567   7.730 -0.4577 -0.6218  0.0196
   39POPC  H11X 5289   5.911   2.677   7.726 -1.5625 -0.7335 -0.1032
   39POPC  H11Y 5290   6.020   2.550   7.781 -0.0412  2.3679  0.3050
   39POPC  C312 5291   5.817   2.492   7.817  0.1241  0.3326 -0.7632
   39POPC  H12X 5292   5.790   2.397   7.767  1.1278 -0.6854  0.5826
   39POPC  H12Y 5293   5.730   2.561   7.825  1.6000  1.8868  3.3274
   39POPC  C313 5294   5.859   2.463   7.966  0.3193 -0.2096  0.7956
   39POPC  H13X 5295   5.888   2.560   8.013  1.5495  0.6940 -1.7171
   39POPC  H13Y 5296   5.952   2.404   7.983 -0.2895 -1.1053  1.0269
   39POPC  C314 5297   5.746   2.418   8.060 -0.3556  0.1821 -0.0319
   39POPC  H14X 5298   5.719   2.313   8.033  1.0775 -0.2153  0.0472
   39POPC  H14Y 5299   5.666   2.492   8.036  2.3488  3.2673  0.1531
   39POPC  C315 5300   5.773   2.418   8.210  0.7289 -0.2213  0.1753
   39POPC  H15X 5301   5.808   2.517   8.244  0.1548  0.4588 -1.1602
   39POPC  H15Y 5302   5.857   2.348   8.232  0.8637 -0.4646 -1.0616
   39POPC  C316 5303   5.643   2.370   8.288  0.0106 -0.1360  0.3303
   39POPC  H16X 5304   5.646   2.406   8.393  2.4949 -0.0749  0.2739
   39POPC  H16Y 5305   5.635   2.260   8.277 -2.5786  0.2868 -2.9733
   39POPC  H16Z 5306   5.551   2.412   8.241  1.9142  2.5690 -1.1443
   40POPC     N 5307   5.007   0.721   6.194  0.6426 -0.1929  0.4996
   40POPC   C12 5308   4.879   0.713   6.273 -0.3161 -0.9068  0.3968
   40POPC  H12A 5309   4.795   0.704   6.206  0.0519  1.4661 -0.4443
   40POPC  H12B 5310   4.856   0.808   6.319 -0.0873  0.0082 -1.3197
   40POPC   C13 5311   5.120   0.775   6.271 -0.4021 -0.0767  0.5311
   40POPC  H13A 5312   5.114   0.880   6.295  2.4316 -0.0439  1.2423
   40POPC  H13B 5313   5.137   0.719   6.362 -2.9684  0.7870  1.5996
   40POPC  H13C 5314   5.202   0.777   6.202 -2.4875  0.1332 -2.0045
   40POPC   C14 5315   5.052   0.588   6.145  0.0107  0.4225 -0.4521
   40POPC  H14A 5316   5.108   0.604   6.054  0.8721  1.1016  0.1951
   40POPC  H14B 5317   5.132   0.548   6.206 -2.1395 -1.3014  1.3385
   40POPC  H14C 5318   4.978   0.510   6.136  0.6258 -0.3595  1.1115
   40POPC   C15 5319   4.980   0.807   6.073 -0.2412  0.1856 -0.1353
   40POPC  H15A 5320   5.071   0.815   6.016  0.0480 -0.4785  0.2248
   40POPC  H15B 5321   4.963   0.910   6.104  0.5858 -0.5423  2.9504
   40POPC  H15C 5322   4.894   0.774   6.017  0.8800 -1.8253 -0.7067
   40POPC   C11 5323   4.874   0.611   6.385  0.0863  0.1106  0.2569
   40POPC  H11A 5324   4.775   0.624   6.434  0.3466 -0.3657  0.9165
   40POPC  H11B 5325   4.938   0.625   6.474 -0.0293 -0.9416  0.5163
   40POPC     P 5326   4.770   0.388   6.312 -0.1933  0.3024 -0.7878
   40POPC   O13 5327   4.819   0.257   6.262 -0.4391 -0.1729  0.3423
   40POPC   O14 5328   4.675   0.460   6.226  0.4297  0.0057  0.3611
   40POPC   O12 5329   4.896   0.478   6.342  0.0419 -0.3174  0.2336
   40POPC   O11 5330   4.715   0.365   6.459  0.4158 -0.0641  0.3434
   40POPC    C1 5331   4.798   0.329   6.567  0.3491  0.3186  0.4874
   40POPC    HA 5332   4.891   0.385   6.587  1.6714 -1.9487  0.8033
   40POPC    HB 5333   4.834   0.230   6.531  0.0510  1.1113 -2.0906
   40POPC    C2 5334   4.730   0.295   6.709  0.1651  0.0609  0.7188
   40POPC    HS 5335   4.806   0.238   6.767 -0.5007 -0.5506  0.9932
   40POPC   O21 5336   4.607   0.211   6.702 -0.0384 -0.1389 -0.3831
   40POPC   C21 5337   4.627   0.089   6.652 -0.1482 -1.0477 -0.5216
   40POPC   O22 5338   4.735   0.033   6.656 -0.4189  0.5769  0.6348
   40POPC   C22 5339   4.492   0.023   6.619 -0.7773 -0.2672 -0.1240
   40POPC   H2R 5340   4.503  -0.014   6.515 -0.1472  2.3626 -1.0350
   40POPC   H2S 5341   4.417   0.105   6.609  0.6276  0.9508 -0.8771
   40POPC    C3 5342   4.700   0.431   6.776 -0.2799  0.4190 -0.1554
   40POPC    HX 5343   4.629   0.481   6.707 -1.4271  0.8507  1.3399
   40POPC    HY 5344   4.796   0.486   6.787  0.5690 -0.5741 -2.2581
   40POPC   O31 5345   4.634   0.423   6.905 -0.2879  0.6564 -0.8733
   40POPC   C31 5346   4.505   0.402   6.906 -0.1173 -0.7182  0.1387
   40POPC   O32 5347   4.430   0.389   6.808 -0.3402 -0.1131 -0.7431
   40POPC   C32 5348   4.450   0.383   7.044  0.7772  0.5313  0.5428
   40POPC   H2X 5349   4.519   0.426   7.120  2.2921  0.0020 -0.5123
   40POPC   H2Y 5350   4.459   0.276   7.074 -1.1076  0.3179  0.4046
   40POPC   C23 5351   4.466  -0.080   6.727  0.6736  0.2389 -0.1877
   40POPC   H3R 5352   4.530  -0.168   6.752 -2.8316 -1.9428  1.6108
   40POPC   H3S 5353   4.377  -0.134   6.686  0.3921  0.3670  0.2482
   40POPC   C24 5354   4.423  -0.012   6.864  0.1682 -0.7857 -0.5866
   40POPC   H4R 5355   4.353   0.072   6.845  0.1441 -0.6937 -0.0983
   40POPC   H4S 5356   4.500   0.018   6.938 -1.9450  0.0990  1.3259
   40POPC   C25 5357   4.344  -0.117   6.943  0.5031  0.9990  0.3593
   40POPC   H5R 5358   4.396  -0.215   6.947 -2.9475 -0.9627 -1.1016
   40POPC   H5S 5359   4.252  -0.136   6.885  0.3721 -0.3695  0.9850
   40POPC   C26 5360   4.309  -0.056   7.080  0.5282  0.3886  0.2261
   40POPC   H6R 5361   4.249   0.034   7.054 -2.9851 -2.1909 -0.7810
   40POPC   H6S 5362   4.401  -0.026   7.136  0.1348 -0.0235  1.1074
   40POPC   C27 5363   4.218  -0.141   7.168  0.3490 -0.3757  0.6642
   40POPC   H7R 5364   4.272  -0.233   7.201  3.4577  1.5734  1.2767
   40POPC   H7S 5365   4.132  -0.170   7.104 -0.0784  1.9628  0.1218
   40POPC   C28 5366   4.164  -0.068   7.290 -0.6709 -0.7097 -0.4842
   40POPC   H8R 5367   4.100   0.018   7.261  0.3004  0.1863  0.0222
   40POPC   H8S 5368   4.247  -0.035   7.356  0.6750 -2.0592 -1.4667
   40POPC   C29 5369   4.067  -0.157   7.367  0.5875 -0.9457  0.4450
   40POPC   H91 5370   3.991  -0.205   7.304  1.5130 -0.4975 -1.0295
   40POPC  C210 5371   4.060  -0.179   7.499  0.1916  0.6515 -0.5997
   40POPC  H101 5372   3.986  -0.256   7.526  1.0194  0.0183 -0.1117
   40POPC  C211 5373   4.134  -0.135   7.623 -0.5951  0.1626 -0.3942
   40POPC  H11R 5374   4.220  -0.074   7.587  0.2369 -1.1843 -0.7581
   40POPC  H11S 5375   4.156  -0.228   7.679 -1.4398  0.0463 -0.2529
   40POPC  C212 5376   4.036  -0.034   7.692  0.7504  0.5922 -0.5570
   40POPC  H12R 5377   3.932  -0.072   7.685  1.7037 -2.2204  0.0871
   40POPC  H12S 5378   4.049   0.066   7.644  0.3734  0.6099 -0.6270
   40POPC  C213 5379   4.080  -0.017   7.839  0.3803 -0.1932 -0.3163
   40POPC  H13R 5380   4.017   0.060   7.889  1.4085 -0.1561  0.9342
   40POPC  H13S 5381   4.185   0.020   7.843  0.0528  0.5587  1.7522
   40POPC  C214 5382   4.048  -0.153   7.913 -0.5140  0.6727 -0.1578
   40POPC  H14R 5383   4.114  -0.234   7.876 -0.4066  1.1710 -1.0695
   40POPC  H14S 5384   3.950  -0.182   7.871  1.1924 -0.4800 -3.5154
   40POPC  C215 5385   4.046  -0.132   8.064 -0.2205 -0.6916  1.0941
   40POPC  H15R 5386   4.012  -0.230   8.102  1.6577 -1.5796  0.5507
   40POPC  H15S 5387   3.978  -0.052   8.100 -0.5394 -1.4216  2.1293
   40POPC  C216 5388   4.186  -0.096   8.127  0.3703 -0.1344  0.5192
   40POPC  H16R 5389   4.222   0.006   8.103  0.1655 -0.2525 -0.2859
   40POPC  H16S 5390   4.258  -0.171   8.087  0.8113  0.6996 -0.2566
   40POPC  C217 5391   4.192  -0.095   8.279  0.3392  1.5628 -0.0353
   40POPC  H17R 5392   4.099  -0.055   8.326 -1.3443 -1.0646 -1.0344
   40POPC  H17S 5393   4.278  -0.034   8.312  0.7988  1.5135 -1.1459
   40POPC  C218 5394   4.213  -0.238   8.322 -0.5187  0.2690  0.1868
   40POPC  H18R 5395   4.315  -0.276   8.299 -0.7864 -0.1695 -0.2891
   40POPC  H18S 5396   4.142  -0.305   8.269 -0.0267  0.9149 -1.2887
   40POPC  H18T 5397   4.183  -0.257   8.428 -2.3348 -0.1780 -0.3855
   40POPC   C33 5398   4.305   0.430   7.059 -0.2095 -0.4294 -0.2591
   40POPC   H3X 5399   4.229   0.372   7.003 -1.9873  1.5074  0.0757
   40POPC   H3Y 5400   4.294   0.538   7.035 -3.2694  0.0081  2.7055
   40POPC   C34 5401   4.265   0.430   7.205 -0.0372 -0.2145 -0.2346
   40POPC   H4X 5402   4.164   0.476   7.214 -0.8911 -1.5604 -2.4375
   40POPC   H4Y 5403   4.330   0.491   7.271  0.2500 -0.3948 -0.3451
   40POPC   C35 5404   4.251   0.285   7.251  0.8886 -0.2905  0.0060
   40POPC   H5X 5405   4.349   0.234   7.244  0.8933 -0.1881 -0.7299
   40POPC   H5Y 5406   4.170   0.229   7.200  1.3133 -1.2038  0.3299
   40POPC   C36 5407   4.210   0.274   7.400 -0.2655 -0.6684 -0.6216
   40POPC   H6X 5408   4.166   0.174   7.421 -1.9839  0.0700 -0.6599
   40POPC   H6Y 5409   4.129   0.346   7.423  1.2729  0.3735  1.7748
   40POPC   C37 5410   4.333   0.288   7.488  0.3837  0.3696 -0.3415
   40POPC   H7X 5411   4.341   0.399   7.482  0.0810  0.3913 -0.3438
   40POPC   H7Y 5412   4.419   0.237   7.441  0.1387 -0.0287 -0.3631
   40POPC   C38 5413   4.308   0.239   7.634 -0.5088  0.2600  1.5072
   40POPC   H8X 5414   4.284   0.131   7.635 -2.6159  0.6167 -2.1186
   40POPC   H8Y 5415   4.232   0.303   7.683 -1.3633  0.5098 -0.1325
   40POPC   C39 5416   4.449   0.247   7.711  0.2480 -0.8979  0.7510
   40POPC   H9X 5417   4.466   0.355   7.733  1.1713 -1.3794  2.4607
   40POPC   H9Y 5418   4.529   0.211   7.643 -0.3744 -1.4196  0.2938
   40POPC  C310 5419   4.460   0.182   7.850  0.0810  0.1079  0.0866
   40POPC  H10X 5420   4.454   0.072   7.836  2.2691  0.2015 -2.0267
   40POPC  H10Y 5421   4.368   0.215   7.901 -0.4955 -2.3433  0.6795
   40POPC  C311 5422   4.585   0.217   7.927  0.2909  0.1043  0.1133
   40POPC  H11X 5423   4.617   0.323   7.916  1.1404  0.2077  3.2158
   40POPC  H11Y 5424   4.665   0.162   7.874  1.7629  2.3071 -0.0094
   40POPC  C312 5425   4.588   0.167   8.071  0.6387 -0.1752  0.5111
   40POPC  H12X 5426   4.594   0.057   8.056 -0.6368  0.1059 -2.2619
   40POPC  H12Y 5427   4.498   0.196   8.130  0.6048  1.1938 -0.1785
   40POPC  C313 5428   4.728   0.193   8.135 -0.5773 -0.1998 -0.2043
   40POPC  H13X 5429   4.756   0.301   8.145 -0.2259 -0.5224  2.5459
   40POPC  H13Y 5430   4.810   0.144   8.078  1.1704  2.0284  0.2970
   40POPC  C314 5431   4.727   0.133   8.279 -0.0779  0.0409 -0.1819
   40POPC  H14X 5432   4.680   0.033   8.271 -1.2581  0.5727 -0.0274
   40POPC  H14Y 5433   4.663   0.199   8.342 -1.4097 -1.1718 -0.2531
   40POPC  C315 5434   4.866   0.139   8.345 -0.1198  0.6230  0.3480
   40POPC  H15X 5435   4.900   0.243   8.362  1.2167  0.1459  0.6718
   40POPC  H15Y 5436   4.938   0.098   8.270  1.2807  0.3563  1.8059
   40POPC  C316 5437   4.876   0.063   8.475 -0.5155  0.6815 -0.1146
   40POPC  H16X 5438   4.792   0.106   8.533 -0.8633 -0.9003  0.5703
   40POPC  H16Y 5439   4.973   0.080   8.527 -1.6216  0.1023  2.2049
   40POPC  H16Z 5440   4.853  -0.046   8.467  3.5181 -0.3124  0.9163
   41CHL1    C3 5441   4.598   4.412  10.071 -0.1396 -0.2153 -0.1196
   41CHL1    H3 5442   4.609   4.318  10.012 -0.0387  0.6684 -1.5153
   41CHL1    O3 5443   4.649   4.401  10.201 -0.1416  0.7088 -0.7525
   41CHL1   H3' 5444   4.601   4.455  10.265 -1.0525 -1.4093  0.3813
   41CHL1    C4 5445   4.677   4.526   9.998  0.1702  0.0576 -0.4691
   41CHL1   H4A 5446   4.666   4.615  10.063  1.5786  2.2356 -3.1366
   41CHL1   H4B 5447   4.782   4.491  10.000  0.0948 -0.1736  2.2777
   41CHL1    C5 5448   4.627   4.541   9.855 -0.7444 -0.2974 -0.4923
   41CHL1    C6 5449   4.714   4.536   9.752 -0.4520 -0.1454  0.4415
   41CHL1    H6 5450   4.823   4.530   9.766 -0.4324  1.9532  1.4217
   41CHL1    C7 5451   4.668   4.558   9.609 -0.2159 -0.4412 -0.5479
   41CHL1   H7A 5452   4.733   4.637   9.565 -0.7689  1.8177  2.5635
   41CHL1   H7B 5453   4.673   4.464   9.549  0.2848 -1.7853  1.5590
   41CHL1    C8 5454   4.527   4.610   9.605  0.4971 -0.1717  0.4803
   41CHL1    H8 5455   4.534   4.715   9.640  1.0445  0.4948 -1.5407
   41CHL1   C14 5456   4.480   4.604   9.459  0.2430  0.0523  0.1737
   41CHL1   H14 5457   4.484   4.496   9.434 -0.8206  0.0286  0.0694
   41CHL1   C15 5458   4.562   4.670   9.354 -0.1419 -0.1419 -0.0590
   41CHL1  H15A 5459   4.571   4.778   9.377 -0.3269 -0.2485  0.5274
   41CHL1  H15B 5460   4.664   4.627   9.341 -0.1937  0.2686 -1.9833
   41CHL1   C16 5461   4.469   4.658   9.236  0.6399 -0.0962 -0.3923
   41CHL1  H16A 5462   4.448   4.759   9.194 -2.8851 -0.2140  0.8866
   41CHL1  H16B 5463   4.499   4.582   9.161 -1.4680 -0.1282 -1.2450
   41CHL1   C17 5464   4.326   4.622   9.285  0.2206 -0.2498  0.4082
   41CHL1   H17 5465   4.318   4.513   9.264  1.6944 -0.6928  1.9198
   41CHL1   C13 5466   4.335   4.645   9.435 -0.0526  0.4449  0.0247
   41CHL1   C18 5467   4.323   4.797   9.473 -0.2241 -0.2780 -0.1124
   41CHL1  H18A 5468   4.220   4.826   9.502 -1.0001 -3.0786  0.0933
   41CHL1  H18B 5469   4.392   4.816   9.558 -0.4997 -0.5737  0.1806
   41CHL1  H18C 5470   4.357   4.858   9.387  0.3159 -0.0659  0.2506
   41CHL1   C12 5471   4.247   4.557   9.535 -0.1001  0.1720 -0.7131
   41CHL1  H12A 5472   4.147   4.605   9.522 -1.6974 -2.3218  1.8747
   41CHL1  H12B 5473   4.245   4.455   9.490  1.1330  0.6853 -1.9912
   41CHL1   C11 5474   4.280   4.566   9.679  0.4246 -0.3401 -0.0710
   41CHL1  H11A 5475   4.256   4.670   9.711 -1.4415 -1.0081  0.7095
   41CHL1  H11B 5476   4.209   4.500   9.733  0.3499  0.4585  0.8274
   41CHL1    C9 5477   4.430   4.542   9.703 -0.3890 -0.4071 -0.7198
   41CHL1    H9 5478   4.438   4.435   9.673 -0.9526 -0.6539  0.0076
   41CHL1   C10 5479   4.479   4.558   9.842  0.4383  0.2312  0.1406
   41CHL1   C19 5480   4.441   4.700   9.888 -0.4695 -0.4785 -0.4129
   41CHL1  H19A 5481   4.485   4.774   9.818  1.6119 -1.2258  0.0415
   41CHL1  H19B 5482   4.334   4.722   9.905 -0.7709 -1.2646 -1.2364
   41CHL1  H19C 5483   4.492   4.719   9.985 -3.7349  1.3995  1.0140
   41CHL1    C1 5484   4.403   4.450   9.935  0.1951 -0.3414  0.0736
   41CHL1   H1A 5485   4.294   4.470   9.935  0.3521  0.5435  0.9595
   41CHL1   H1B 5486   4.421   4.347   9.898 -1.6732 -0.4005 -0.7143
   41CHL1    C2 5487   4.449   4.449  10.079 -0.7160 -0.1780  0.2971
   41CHL1   H2A 5488   4.391   4.379  10.143 -0.0686 -1.1071 -0.1357
   41CHL1   H2B 5489   4.432   4.550  10.122  0.0540  0.2116 -0.3052
   41CHL1   C20 5490   4.217   4.701   9.207 -0.5390  0.4648  0.5007
   41CHL1   H20 5491   4.225   4.806   9.244  0.9809 -0.1199  1.8964
   41CHL1   C21 5492   4.078   4.648   9.244  0.2508 -0.2253 -0.1113
   41CHL1  H21A 5493   4.065   4.541   9.220  0.7183 -0.3539  0.2046
   41CHL1  H21B 5494   3.996   4.705   9.194  0.1320 -0.8170 -0.5947
   41CHL1  H21C 5495   4.062   4.667   9.352 -0.2844  1.2390 -0.4316
   41CHL1   C22 5496   4.218   4.705   9.051 -0.7102 -0.0866 -0.2411
   41CHL1  H22A 5497   4.130   4.764   9.017 -0.2804  0.1821 -0.8816
   41CHL1  H22B 5498   4.313   4.750   9.016 -0.1897 -1.2281 -0.3044
   41CHL1   C23 5499   4.203   4.569   8.975 -0.0568 -0.0127  0.4788
   41CHL1  H23A 5500   4.277   4.498   9.017  1.2269  0.7131 -0.5211
   41CHL1  H23B 5501   4.102   4.531   9.004 -0.6667  1.9159  0.9932
   41CHL1   C24 5502   4.211   4.587   8.821  0.2227  0.0526 -0.5454
   41CHL1  H24A 5503   4.104   4.589   8.793 -0.1582 -3.0985  0.4967
   41CHL1  H24B 5504   4.256   4.687   8.802 -3.1557  2.2682  2.5289
   41CHL1   C25 5505   4.282   4.477   8.745  0.1875  0.7832 -0.2891
   41CHL1   H25 5506   4.245   4.386   8.797  2.2167  0.4351  0.5881
   41CHL1   C26 5507   4.238   4.470   8.604  0.3828 -1.0299 -0.4211
   41CHL1  H26A 5508   4.128   4.451   8.606 -0.6997  4.2288 -1.3911
   41CHL1  H26B 5509   4.265   4.558   8.541  1.7275 -1.8915 -1.0639
   41CHL1  H26C 5510   4.276   4.386   8.542 -0.5527 -1.3407 -0.5887
   41CHL1   C27 5511   4.438   4.476   8.764 -0.4273  0.3810  0.1202
   41CHL1  H27A 5512   4.478   4.563   8.706 -3.6722  0.8568 -1.5220
   41CHL1  H27B 5513   4.465   4.483   8.871  2.1328 -0.6498 -0.4164
   41CHL1  H27C 5514   4.481   4.383   8.720 -0.8585 -0.9811  2.5347
   42CHL1    C3 5515   4.160   4.028   9.910  0.1377  0.2364 -0.9162
   42CHL1    H3 5516   4.211   3.937   9.871 -2.1074 -0.2521 -2.8613
   42CHL1    O3 5517   4.186   4.044  10.045 -0.8380  0.4967 -0.5668
   42CHL1   H3' 5518   4.168   3.960  10.088  2.0017  0.6020  0.9232
   42CHL1    C4 5519   4.220   4.146   9.838 -0.2104  0.1540  0.0312
   42CHL1   H4A 5520   4.188   4.239   9.888  0.8825  1.2283 -1.2292
   42CHL1   H4B 5521   4.329   4.131   9.857 -0.1384 -0.0703 -0.5321
   42CHL1    C5 5522   4.191   4.152   9.688  0.1427 -1.1383 -0.2195
   42CHL1    C6 5523   4.280   4.171   9.589  0.1775  0.1721 -0.3467
   42CHL1    H6 5524   4.385   4.197   9.612  0.0579 -0.0228  0.4226
   42CHL1    C7 5525   4.252   4.169   9.441  0.3800  0.1765 -0.2016
   42CHL1   H7A 5526   4.310   4.249   9.391  0.2294 -0.3162 -1.1810
   42CHL1   H7B 5527   4.286   4.070   9.404  0.8398 -0.1298  1.0097
   42CHL1    C8 5528   4.101   4.185   9.398 -0.7768  0.0983 -0.6296
   42CHL1    H8 5529   4.059   4.285   9.423 -0.7045 -0.3558  1.3439
   42CHL1   C14 5530   4.076   4.147   9.253 -0.5738  0.7800 -0.1880
   42CHL1   H14 5531   4.105   4.040   9.242  0.1042  1.0767 -1.2810
   42CHL1   C15 5532   4.151   4.222   9.144 -0.0411  0.8800 -0.5163
   42CHL1  H15A 5533   4.153   4.330   9.170  1.9532  0.7800 -0.1628
   42CHL1  H15B 5534   4.255   4.187   9.129 -0.2406  0.4049 -0.8103
   42CHL1   C16 5535   4.072   4.181   9.016  0.0116 -0.4874  0.4401
   42CHL1  H16A 5536   4.040   4.274   8.964  2.9364 -0.5907 -1.6645
   42CHL1  H16B 5537   4.127   4.123   8.939 -2.5317  0.4464 -2.1819
   42CHL1   C17 5538   3.939   4.109   9.067 -0.0707  0.0284  0.6848
   42CHL1   H17 5539   3.962   4.000   9.065  0.1047  0.0767 -0.0820
   42CHL1   C13 5540   3.927   4.147   9.213 -0.0357  0.5170 -0.3530
   42CHL1   C18 5541   3.876   4.297   9.217 -0.5247 -0.2529 -0.3110
   42CHL1  H18A 5542   3.765   4.304   9.211 -0.4336  0.2288 -1.6900
   42CHL1  H18B 5543   3.902   4.357   9.307 -1.3533  0.6229 -0.6355
   42CHL1  H18C 5544   3.917   4.347   9.126  2.4525 -0.6781  0.7688
   42CHL1   C12 5545   3.850   4.049   9.300 -0.3801  0.4436  0.0461
   42CHL1  H12A 5546   3.741   4.045   9.277 -0.3136 -0.1347 -0.1573
   42CHL1  H12B 5547   3.896   3.949   9.285  0.0556  0.6320  0.1276
   42CHL1   C11 5548   3.864   4.089   9.452 -0.6897 -0.5447 -0.5969
   42CHL1  H11A 5549   3.842   4.198   9.461 -2.8031 -0.8344 -1.9365
   42CHL1  H11B 5550   3.799   4.019   9.509 -1.2053  0.7128  0.3896
   42CHL1    C9 5551   4.015   4.097   9.499 -0.3772 -0.0589  0.0039
   42CHL1    H9 5552   4.059   3.996   9.485 -0.2757  0.0769 -0.7115
   42CHL1   C10 5553   4.038   4.123   9.653  0.2459 -0.1895  0.0011
   42CHL1   C19 5554   3.955   4.243   9.703 -0.6996 -0.1664 -0.9975
   42CHL1  H19A 5555   3.847   4.217   9.707 -0.2925 -1.6762  0.9230
   42CHL1  H19B 5556   3.983   4.264   9.808  2.1785 -0.2164 -1.6930
   42CHL1  H19C 5557   3.965   4.333   9.639 -2.3009  1.1767  0.6058
   42CHL1    C1 5558   3.992   3.997   9.733  0.1346  0.3772  0.2687
   42CHL1   H1A 5559   3.885   3.973   9.719  0.1805  0.2728  0.0924
   42CHL1   H1B 5560   4.043   3.908   9.691  1.7916  2.0487 -1.3552
   42CHL1    C2 5561   4.009   4.019   9.882 -0.3187 -0.5843 -0.0450
   42CHL1   H2A 5562   3.968   3.931   9.936 -0.9600 -0.6542 -0.6550
   42CHL1   H2B 5563   3.956   4.108   9.923  0.5958 -0.9220  1.9726
   42CHL1   C20 5564   3.819   4.128   8.972  0.4410  0.1308 -0.2838
   42CHL1   H20 5565   3.802   4.237   8.964 -2.4849 -0.1660  1.1120
   42CHL1   C21 5566   3.687   4.070   9.021 -0.4624 -0.5795  1.1211
   42CHL1  H21A 5567   3.611   4.114   8.954  1.9509  0.6542 -0.9201
   42CHL1  H21B 5568   3.650   4.096   9.122 -1.1273  1.3597  0.3886
   42CHL1  H21C 5569   3.690   3.959   9.012  0.5984 -0.4677 -0.1133
   42CHL1   C22 5570   3.848   4.088   8.828 -0.3050  0.1423  0.5278
   42CHL1  H22A 5571   3.925   4.150   8.776  0.9253 -1.2600  0.6463
   42CHL1  H22B 5572   3.884   3.984   8.842 -0.7568 -0.0658  0.1410
   42CHL1   C23 5573   3.733   4.073   8.727  0.4429  0.5172 -0.7595
   42CHL1  H23A 5574   3.652   4.005   8.761 -1.4146  3.0272  0.0613
   42CHL1  H23B 5575   3.686   4.173   8.714 -4.6731 -1.6063 -0.1108
   42CHL1   C24 5576   3.770   4.018   8.584 -0.1098 -0.2568 -0.4756
   42CHL1  H24A 5577   3.858   4.082   8.563  0.2523 -0.8117 -0.6439
   42CHL1  H24B 5578   3.791   3.909   8.589 -3.2392 -0.8665  0.7346
   42CHL1   C25 5579   3.657   4.041   8.486  0.3059  0.2847 -0.5514
   42CHL1   H25 5580   3.638   4.150   8.488  1.9998  0.6729 -3.6530
   42CHL1   C26 5581   3.709   4.008   8.345  0.2856 -0.2245  0.0003
   42CHL1  H26A 5582   3.649   4.059   8.267 -0.7698 -0.5986  0.5658
   42CHL1  H26B 5583   3.816   4.030   8.324  0.5244 -0.2714  1.1582
   42CHL1  H26C 5584   3.703   3.899   8.325  0.0145 -0.2636  0.2900
   42CHL1   C27 5585   3.532   3.956   8.519 -0.3560 -0.1149  0.2258
   42CHL1  H27A 5586   3.450   4.021   8.557 -0.6559 -0.0727 -0.4694
   42CHL1  H27B 5587   3.496   3.896   8.433 -0.0918 -0.7780  0.5797
   42CHL1  H27C 5588   3.560   3.880   8.594  0.2354 -1.2709 -1.1365
   43CHL1    C3 5589   4.969   4.136   9.859 -0.8802 -0.6191 -0.3870
   43CHL1    H3 5590   5.072   4.125   9.818  0.1665 -1.8799  2.4000
   43CHL1    O3 5591   4.983   4.168   9.997  0.3716  0.1857  0.4122
   43CHL1   H3' 5592   5.040   4.103  10.038  0.9405  0.8470  0.6970
   43CHL1    C4 5593   4.907   4.265   9.800  0.6714  0.0722 -0.3432
   43CHL1   H4A 5594   4.812   4.288   9.853  1.4031  2.6100 -0.0859
   43CHL1   H4B 5595   4.967   4.358   9.806  0.4994  0.3319 -2.3202
   43CHL1    C5 5596   4.881   4.239   9.646 -0.0287 -0.7348 -0.4556
   43CHL1    C6 5597   4.938   4.317   9.554  0.0408  0.5210 -0.0520
   43CHL1    H6 5598   4.995   4.405   9.589 -0.7394  1.4914 -1.1756
   43CHL1    C7 5599   4.923   4.294   9.406 -0.6381  0.4340 -0.0828
   43CHL1   H7A 5600   4.917   4.390   9.350  1.1623 -0.3448 -1.6967
   43CHL1   H7B 5601   5.012   4.239   9.370 -0.5007 -0.6365  1.8466
   43CHL1    C8 5602   4.796   4.213   9.379 -0.0174 -0.2222  0.8674
   43CHL1    H8 5603   4.706   4.276   9.394  1.0129  1.6849 -0.7348
   43CHL1   C14 5604   4.796   4.170   9.232  0.1530 -0.5960  0.7607
   43CHL1   H14 5605   4.877   4.096   9.209 -1.9517 -1.5476 -4.3364
   43CHL1   C15 5606   4.819   4.278   9.123  0.1184 -0.1835 -0.4843
   43CHL1  H15A 5607   4.752   4.366   9.138  0.0462  0.0296 -1.9857
   43CHL1  H15B 5608   4.923   4.312   9.105  0.4145 -1.1595 -0.6209
   43CHL1   C16 5609   4.782   4.199   8.996  0.2126 -0.0650  0.3262
   43CHL1  H16A 5610   4.700   4.256   8.946  0.4566  1.5517  1.7154
   43CHL1  H16B 5611   4.857   4.190   8.915 -0.7361  0.3341 -0.6207
   43CHL1   C17 5612   4.723   4.058   9.039  0.0824 -0.0028 -0.6407
   43CHL1   H17 5613   4.816   3.998   9.041  0.7442  0.9716 -1.5374
   43CHL1   C13 5614   4.679   4.083   9.181  0.4238  0.5766  0.2860
   43CHL1   C18 5615   4.549   4.155   9.183 -0.0714  1.0840 -0.6145
   43CHL1  H18A 5616   4.552   4.242   9.114  0.3558  0.6507 -1.1548
   43CHL1  H18B 5617   4.471   4.080   9.160  0.3438 -0.3257  2.3591
   43CHL1  H18C 5618   4.527   4.198   9.283 -1.7650 -1.1160 -0.0077
   43CHL1   C12 5619   4.683   3.954   9.267 -0.0172 -0.3535 -0.3310
   43CHL1  H12A 5620   4.590   3.901   9.239 -0.7612  1.0163 -0.5437
   43CHL1  H12B 5621   4.772   3.894   9.241  0.6660  0.5112 -0.0217
   43CHL1   C11 5622   4.681   3.981   9.417 -0.1253  0.1483  0.8759
   43CHL1  H11A 5623   4.581   4.028   9.429 -0.8871 -0.5150 -2.3639
   43CHL1  H11B 5624   4.684   3.899   9.491  1.1165 -0.2764  0.3530
   43CHL1    C9 5625   4.789   4.081   9.462  0.5721 -0.5302 -0.4527
   43CHL1    H9 5626   4.887   4.035   9.438  0.5223 -1.3159  0.8511
   43CHL1   C10 5627   4.793   4.115   9.614  0.1034 -1.5328 -0.4407
   43CHL1   C19 5628   4.653   4.144   9.664  0.2936  0.0165 -0.3195
   43CHL1  H19A 5629   4.650   4.172   9.772 -0.4486  2.4265 -0.9436
   43CHL1  H19B 5630   4.597   4.227   9.616 -0.1067  0.2401  0.5211
   43CHL1  H19C 5631   4.586   4.056   9.650 -1.1205  0.3495  3.6359
   43CHL1    C1 5632   4.856   3.988   9.684 -0.2091  0.2765  0.5562
   43CHL1   H1A 5633   4.796   3.895   9.675  0.9369 -0.6551  2.2747
   43CHL1   H1B 5634   4.957   3.975   9.640 -0.3845 -1.7648  0.7200
   43CHL1    C2 5635   4.888   4.007   9.839 -0.8416 -0.1483  0.2023
   43CHL1   H2A 5636   4.949   3.921   9.874 -0.7384  0.7963  2.4173
   43CHL1   H2B 5637   4.791   3.993   9.891  0.8374  0.7049  3.7336
   43CHL1   C20 5638   4.617   3.994   8.946 -0.1481 -0.2486  0.4867
   43CHL1   H20 5639   4.551   3.924   9.001  0.9327 -2.7011 -1.2525
   43CHL1   C21 5640   4.708   3.901   8.863 -0.0075 -0.4850 -0.1905
   43CHL1  H21A 5641   4.786   3.961   8.811 -0.1310  1.0239  1.2885
   43CHL1  H21B 5642   4.648   3.844   8.789 -0.0132  1.4311 -1.7096
   43CHL1  H21C 5643   4.759   3.825   8.926  0.9212  0.6759  0.4959
   43CHL1   C22 5644   4.529   4.075   8.850 -0.1334 -0.0744 -0.3291
   43CHL1  H22A 5645   4.464   4.141   8.911  0.9034  1.2845 -0.6600
   43CHL1  H22B 5646   4.603   4.123   8.782 -1.1395  0.1473 -1.2916
   43CHL1   C23 5647   4.429   3.990   8.772  0.6553 -0.2932 -0.1597
   43CHL1  H23A 5648   4.488   3.921   8.708  0.2400 -1.5445  0.7864
   43CHL1  H23B 5649   4.365   3.934   8.843  0.9360  0.5171  0.7501
   43CHL1   C24 5650   4.339   4.082   8.687  0.6186  0.2003  0.3804
   43CHL1  H24A 5651   4.279   4.148   8.753  0.9173  2.4390 -1.5083
   43CHL1  H24B 5652   4.404   4.146   8.623 -1.4998  0.3791 -1.6780
   43CHL1   C25 5653   4.234   4.002   8.603 -0.1484 -0.0645 -0.1112
   43CHL1   H25 5654   4.186   3.933   8.676  1.1385  1.5921  2.3575
   43CHL1   C26 5655   4.129   4.099   8.552 -0.8058 -1.1190  0.1202
   43CHL1  H26A 5656   4.085   4.155   8.637 -0.2267  0.5983 -0.6869
   43CHL1  H26B 5657   4.167   4.178   8.483 -1.1248 -1.0963 -0.0333
   43CHL1  H26C 5658   4.039   4.054   8.503 -1.8391  0.6545  0.3091
   43CHL1   C27 5659   4.309   3.924   8.484  0.0256 -0.4218  0.4525
   43CHL1  H27A 5660   4.365   4.000   8.425  0.6206 -0.0365  1.4918
   43CHL1  H27B 5661   4.384   3.850   8.519  1.9814  0.1643 -2.3495
   43CHL1  H27C 5662   4.232   3.890   8.411 -0.7945 -0.4503  1.3170
   44CHL1    C3 5663   5.404   4.748  10.203 -0.3185 -0.2631  0.0053
   44CHL1    H3 5664   5.501   4.790  10.167 -1.2344  1.0412 -0.9810
   44CHL1    O3 5665   5.404   4.727  10.340 -0.3073  0.0962 -0.6792
   44CHL1   H3' 5666   5.311   4.721  10.361 -0.1579 -0.1076 -0.0512
   44CHL1    C4 5667   5.303   4.860  10.175 -0.3852 -0.0208  0.1421
   44CHL1   H4A 5668   5.209   4.833  10.227 -0.4877  1.4251  0.7373
   44CHL1   H4B 5669   5.342   4.948  10.230 -1.2049 -1.4970  3.2096
   44CHL1    C5 5670   5.277   4.881  10.033  0.3578  0.7851 -0.1663
   44CHL1    C6 5671   5.296   4.999   9.970  0.4474  0.4685  0.5194
   44CHL1    H6 5672   5.322   5.088  10.029  2.1499  0.0654  0.3943
   44CHL1    C7 5673   5.285   5.021   9.823 -0.1049 -0.2906 -0.4216
   44CHL1   H7A 5674   5.233   5.115   9.797 -0.6333 -0.9539 -1.8090
   44CHL1   H7B 5675   5.390   5.030   9.787  0.4293 -1.5359  0.7561
   44CHL1    C8 5676   5.208   4.906   9.752  0.1934  0.0538  0.7221
   44CHL1    H8 5677   5.101   4.921   9.778  0.1676 -2.2010  1.9930
   44CHL1   C14 5678   5.219   4.919   9.598  0.6646  0.2893 -0.2664
   44CHL1   H14 5679   5.326   4.907   9.571  0.2785  2.1935 -2.8164
   44CHL1   C15 5680   5.175   5.049   9.530  0.1424 -0.9567  0.3399
   44CHL1  H15A 5681   5.077   5.089   9.565 -0.3794 -1.2834 -0.6866
   44CHL1  H15B 5682   5.250   5.130   9.543  0.0760 -1.0249  1.1678
   44CHL1   C16 5683   5.171   5.010   9.376  0.4995  0.2413 -0.9164
   44CHL1  H16A 5684   5.083   5.059   9.329 -0.7472 -2.2167 -1.2488
   44CHL1  H16B 5685   5.267   5.048   9.335  1.7451 -1.1500  0.6739
   44CHL1   C17 5686   5.164   4.856   9.371 -0.2366 -0.1225  0.0448
   44CHL1   H17 5687   5.270   4.824   9.362  0.7968  3.3078 -0.8427
   44CHL1   C13 5688   5.142   4.820   9.516 -0.2069  0.4665 -0.1408
   44CHL1   C18 5689   4.987   4.832   9.549  0.0586  0.6347  0.1732
   44CHL1  H18A 5690   4.919   4.766   9.490 -0.0746  0.1092  0.9043
   44CHL1  H18B 5691   4.961   4.815   9.656 -1.9372 -0.6328 -0.4859
   44CHL1  H18C 5692   4.948   4.930   9.514 -0.3388  0.3147 -0.2878
   44CHL1   C12 5693   5.191   4.681   9.566 -0.2266  0.6111  0.4590
   44CHL1  H12A 5694   5.140   4.601   9.508 -1.4054  0.6107  1.4883
   44CHL1  H12B 5695   5.300   4.677   9.546 -0.1737  0.7082  0.7342
   44CHL1   C11 5696   5.172   4.666   9.719 -0.4217 -1.0757  0.2481
   44CHL1  H11A 5697   5.066   4.666   9.751 -0.5140 -0.5664 -0.0563
   44CHL1  H11B 5698   5.218   4.566   9.738  1.1569 -0.5288 -0.5856
   44CHL1    C9 5699   5.256   4.765   9.798 -0.1164 -0.2869 -0.1518
   44CHL1    H9 5700   5.364   4.754   9.773 -0.1532  1.4460 -1.2128
   44CHL1   C10 5701   5.244   4.748   9.950  0.2172  0.0858 -0.5245
   44CHL1   C19 5702   5.104   4.709   9.989 -0.0256 -0.3327 -0.0904
   44CHL1  H19A 5703   5.081   4.606   9.952 -2.9021 -1.0552  3.4638
   44CHL1  H19B 5704   5.093   4.701  10.099  0.7125  2.7165  0.2613
   44CHL1  H19C 5705   5.026   4.775   9.945  0.9657  0.2956 -0.9387
   44CHL1    C1 5706   5.339   4.634   9.995  0.1575 -0.8934 -0.3146
   44CHL1   H1A 5707   5.299   4.542   9.947 -0.6752  0.1313 -1.6091
   44CHL1   H1B 5708   5.436   4.645   9.942 -0.6945  1.3730 -1.5108
   44CHL1    C2 5709   5.368   4.613  10.143  0.1898 -0.5010  0.7370
   44CHL1   H2A 5710   5.464   4.557  10.151  1.3665  1.4836  0.8566
   44CHL1   H2B 5711   5.293   4.549  10.194  0.8873 -0.9367  1.2127
   44CHL1   C20 5712   5.087   4.786   9.260  0.2064 -0.0154  0.2521
   44CHL1   H20 5713   5.022   4.705   9.302 -0.5597  0.8644  0.7697
   44CHL1   C21 5714   5.200   4.721   9.168 -0.4694  0.1752  0.0510
   44CHL1  H21A 5715   5.154   4.663   9.085  1.4030  1.2806 -1.8082
   44CHL1  H21B 5716   5.260   4.650   9.229  0.2269  1.1274  0.4946
   44CHL1  H21C 5717   5.270   4.804   9.143  0.8509 -0.5192  1.3844
   44CHL1   C22 5718   4.996   4.875   9.175 -0.3905 -0.2137  0.0030
   44CHL1  H22A 5719   4.945   4.950   9.239 -0.5737  0.6966 -1.2063
   44CHL1  H22B 5720   5.057   4.949   9.119  1.1584  0.0373  1.9504
   44CHL1   C23 5721   4.902   4.802   9.087 -0.3191 -0.7604  0.5166
   44CHL1  H23A 5722   4.953   4.731   9.018 -2.1294 -0.8203 -0.7806
   44CHL1  H23B 5723   4.834   4.737   9.146 -0.9715  0.2689  0.9127
   44CHL1   C24 5724   4.822   4.900   9.002 -0.2397 -0.0269 -0.1296
   44CHL1  H24A 5725   4.761   4.968   9.065 -1.2811 -1.0023 -0.0734
   44CHL1  H24B 5726   4.893   4.968   8.950  1.6276 -2.7758 -1.3302
   44CHL1   C25 5727   4.742   4.828   8.894  0.3848 -0.1104 -0.4658
   44CHL1   H25 5728   4.804   4.755   8.838 -0.3533 -2.5259  1.7808
   44CHL1   C26 5729   4.631   4.744   8.962 -0.9850  0.2325  0.4432
   44CHL1  H26A 5730   4.674   4.656   9.014  0.2249 -0.4311 -1.6167
   44CHL1  H26B 5731   4.574   4.816   9.025 -0.7250 -0.5221  1.5548
   44CHL1  H26C 5732   4.548   4.720   8.892 -1.8262  1.5771  0.9488
   44CHL1   C27 5733   4.681   4.925   8.794  0.0315 -0.1689  0.4228
   44CHL1  H27A 5734   4.755   4.978   8.731 -0.5782  0.9074  0.5868
   44CHL1  H27B 5735   4.620   4.873   8.718  1.4869  1.0431 -1.6119
   44CHL1  H27C 5736   4.617   5.001   8.844  1.1037 -0.0609  1.6862
   45CHL1    C3 5737   2.021   2.590  10.308  0.0710 -0.0098  0.2474
   45CHL1    H3 5738   2.126   2.574  10.342  0.1707 -2.3351 -1.0425
   45CHL1    O3 5739   1.939   2.570  10.419  0.2774 -0.2286  0.4438
   45CHL1   H3' 5740   1.886   2.649  10.417 -1.0390 -1.0714  1.0893
   45CHL1    C4 5741   2.002   2.733  10.250 -0.1224 -0.4606 -0.7788
   45CHL1   H4A 5742   1.897   2.768  10.254  0.7797  2.3075 -0.0645
   45CHL1   H4B 5743   2.048   2.801  10.326 -0.1866 -0.7956 -0.4364
   45CHL1    C5 5744   2.059   2.765  10.108 -0.6298  0.3900 -0.2694
   45CHL1    C6 5745   2.137   2.868  10.085  0.4534 -0.0632 -0.5064
   45CHL1    H6 5746   2.165   2.931  10.171  1.8903 -1.2318 -0.0997
   45CHL1    C7 5747   2.201   2.907   9.954 -1.2154  0.9589  0.7368
   45CHL1   H7A 5748   2.209   3.014   9.926  3.1886  1.0913  2.1358
   45CHL1   H7B 5749   2.308   2.882   9.972 -1.0196  1.8810  0.9073
   45CHL1    C8 5750   2.144   2.827   9.831 -0.0232  0.5688 -0.2187
   45CHL1    H8 5751   2.230   2.820   9.762 -0.2523 -1.5163 -0.3152
   45CHL1   C14 5752   2.035   2.899   9.749 -0.4696  0.2073  0.3622
   45CHL1   H14 5753   1.949   2.916   9.817 -0.8930  0.4970 -0.2447
   45CHL1   C15 5754   2.081   3.037   9.703 -0.0224 -0.1504 -0.7179
   45CHL1  H15A 5755   2.046   3.123   9.763  2.3455  0.1668  0.2856
   45CHL1  H15B 5756   2.191   3.048   9.687 -0.0743 -0.1179 -1.0484
   45CHL1   C16 5757   2.018   3.056   9.565  0.5642 -0.4774  0.0442
   45CHL1  H16A 5758   1.916   3.088   9.594  0.6237 -1.6634  1.6298
   45CHL1  H16B 5759   2.076   3.133   9.510 -1.3465  0.5850 -0.5357
   45CHL1   C17 5760   2.035   2.924   9.500  0.1567  0.3901  0.2798
   45CHL1   H17 5761   2.145   2.919   9.484  0.0173  0.9268 -0.9470
   45CHL1   C13 5762   1.994   2.829   9.615  0.8120 -0.7208  0.5067
   45CHL1   C18 5763   1.839   2.823   9.612 -0.3880  0.7525 -0.2159
   45CHL1  H18A 5764   1.798   2.791   9.710 -0.4794  1.4748 -0.0115
   45CHL1  H18B 5765   1.788   2.919   9.588  1.0238  1.4206 -0.5677
   45CHL1  H18C 5766   1.806   2.744   9.541 -2.2242  1.4940 -0.2193
   45CHL1   C12 5767   2.053   2.681   9.613 -0.6807 -0.9212 -0.2633
   45CHL1  H12A 5768   2.020   2.620   9.526 -1.6950 -0.4124 -0.2375
   45CHL1  H12B 5769   2.163   2.695   9.605 -0.4714  0.9877  4.3909
   45CHL1   C11 5770   2.035   2.609   9.745 -0.3218 -0.3270 -0.1440
   45CHL1  H11A 5771   1.931   2.571   9.743 -0.4874  0.1120  0.2446
   45CHL1  H11B 5772   2.102   2.520   9.735  1.5251  0.8790  1.1912
   45CHL1    C9 5773   2.100   2.682   9.869 -0.5535 -0.4448  0.0094
   45CHL1    H9 5774   2.193   2.622   9.877  1.7400  2.5946 -2.6696
   45CHL1   C10 5775   2.018   2.664  10.005  0.2107 -0.4171 -0.7105
   45CHL1   C19 5776   1.872   2.692   9.976 -0.6263 -0.3539  0.1586
   45CHL1  H19A 5777   1.832   2.605   9.920  1.7605  0.3368 -2.7060
   45CHL1  H19B 5778   1.799   2.704  10.060 -0.0326 -1.9197  0.9152
   45CHL1  H19C 5779   1.865   2.784   9.915 -1.0411 -0.7176 -0.3513
   45CHL1    C1 5780   2.044   2.524  10.061 -0.2994  0.1286 -0.6338
   45CHL1   H1A 5781   2.029   2.446   9.983 -0.4834 -1.4231  0.9281
   45CHL1   H1B 5782   2.154   2.527  10.073 -0.4124 -1.9747  1.2512
   45CHL1    C2 5783   1.983   2.496  10.199 -0.6740 -0.5141  0.3326
   45CHL1   H2A 5784   1.996   2.391  10.235  0.5956 -0.1559  0.9483
   45CHL1   H2B 5785   1.873   2.505  10.187 -0.4232  3.2637  0.3176
   45CHL1   C20 5786   1.960   2.918   9.368  0.3187 -0.0808 -0.6516
   45CHL1   H20 5787   1.851   2.926   9.386  0.7258  0.1525  1.9359
   45CHL1   C21 5788   1.975   2.781   9.294 -0.1940 -0.3646 -0.0412
   45CHL1  H21A 5789   2.081   2.750   9.282 -0.1895 -0.6317  0.6266
   45CHL1  H21B 5790   1.921   2.772   9.198 -1.3422  1.4731  0.4202
   45CHL1  H21C 5791   1.933   2.701   9.359 -1.3041  1.1906  1.1870
   45CHL1   C22 5792   2.002   3.025   9.266 -0.0018  1.0714 -0.2779
   45CHL1  H22A 5793   2.042   3.122   9.302  0.7528  0.8744 -0.5674
   45CHL1  H22B 5794   2.098   2.984   9.227 -0.7005  0.1806 -1.0961
   45CHL1   C23 5795   1.899   3.053   9.157 -0.2839  0.1985  1.2836
   45CHL1  H23A 5796   1.837   2.963   9.137 -0.3023  0.0530  1.9597
   45CHL1  H23B 5797   1.828   3.130   9.192 -1.5331 -0.6871  0.7115
   45CHL1   C24 5798   1.961   3.115   9.031  0.2476  0.3238  0.1308
   45CHL1  H24A 5799   2.006   3.216   9.045  1.0321  0.0031 -0.0643
   45CHL1  H24B 5800   2.051   3.053   9.013 -0.4228 -0.5042 -0.4147
   45CHL1   C25 5801   1.871   3.109   8.911 -0.3865  0.5358  0.5009
   45CHL1   H25 5802   1.833   3.005   8.899  4.1124 -0.8422 -3.0190
   45CHL1   C26 5803   1.756   3.205   8.923  0.0836 -0.2156  0.3693
   45CHL1  H26A 5804   1.682   3.196   9.005 -1.4239  2.0846 -0.6605
   45CHL1  H26B 5805   1.809   3.303   8.931  1.6580 -0.8594 -1.9150
   45CHL1  H26C 5806   1.696   3.214   8.830 -0.5190 -1.2348  0.6582
   45CHL1   C27 5807   1.955   3.129   8.779 -0.0088  0.3714 -0.1447
   45CHL1  H27A 5808   2.030   3.047   8.777 -0.9578 -0.5457  0.9398
   45CHL1  H27B 5809   1.888   3.113   8.692  1.2552 -0.6260 -0.9565
   45CHL1  H27C 5810   2.001   3.230   8.776  0.9303 -0.0560 -0.2028
   46CHL1    C3 5811   4.542   0.585   9.963 -0.2735 -0.3033  0.1719
   46CHL1    H3 5812   4.590   0.485   9.960  0.4449  0.0251  0.4955
   46CHL1    O3 5813   4.536   0.639  10.095  0.3924  0.1949 -0.4236
   46CHL1   H3' 5814   4.489   0.570  10.140  0.5156  1.1449  1.2201
   46CHL1    C4 5815   4.626   0.673   9.870  0.4732  0.6039 -0.0824
   46CHL1   H4A 5816   4.596   0.778   9.885 -4.8198 -0.9594  1.0910
   46CHL1   H4B 5817   4.734   0.667   9.895  1.2758  1.8587 -2.9808
   46CHL1    C5 5818   4.603   0.648   9.725 -0.2688  0.3339  0.1247
   46CHL1    C6 5819   4.708   0.625   9.642  0.4441 -0.4837 -0.3902
   46CHL1    H6 5820   4.807   0.629   9.690 -0.3884  2.6344  1.2356
   46CHL1    C7 5821   4.694   0.619   9.493 -0.2048  0.4915  0.3275
   46CHL1   H7A 5822   4.769   0.691   9.454  1.8490  0.5141  4.1041
   46CHL1   H7B 5823   4.718   0.516   9.462 -0.3934 -0.0483  1.9469
   46CHL1    C8 5824   4.552   0.662   9.442 -0.2419 -0.2726  0.1919
   46CHL1    H8 5825   4.548   0.773   9.437 -1.9226 -0.2742  1.0834
   46CHL1   C14 5826   4.535   0.597   9.299 -0.1496 -0.4476  0.2105
   46CHL1   H14 5827   4.528   0.487   9.318  0.4485 -0.3442  1.0421
   46CHL1   C15 5828   4.640   0.623   9.187  0.1553  0.3288 -0.0201
   46CHL1  H15A 5829   4.661   0.732   9.185  1.0200  0.1524 -0.8516
   46CHL1  H15B 5830   4.733   0.563   9.182  0.6354  0.7984  2.6514
   46CHL1   C16 5831   4.563   0.612   9.059 -0.2764 -0.5565  0.1256
   46CHL1  H16A 5832   4.559   0.711   9.010  2.1868  0.4634  1.8958
   46CHL1  H16B 5833   4.613   0.545   8.985  0.0200  0.0365 -0.2097
   46CHL1   C17 5834   4.415   0.571   9.098 -0.1654 -0.4134  0.2755
   46CHL1   H17 5835   4.414   0.461   9.114 -0.0804 -0.5225 -0.4300
   46CHL1   C13 5836   4.399   0.630   9.236  0.2570 -0.4496 -1.1114
   46CHL1   C18 5837   4.377   0.785   9.212  0.4937 -0.0680  0.1820
   46CHL1  H18A 5838   4.456   0.824   9.144 -0.5428 -0.2294 -1.1431
   46CHL1  H18B 5839   4.278   0.824   9.180  0.0477 -0.9653  0.4493
   46CHL1  H18C 5840   4.396   0.838   9.308 -2.8724  0.6433  0.5034
   46CHL1   C12 5841   4.288   0.567   9.331 -0.4564 -0.0444  0.4571
   46CHL1  H12A 5842   4.186   0.595   9.297  0.2200  0.4039 -1.2368
   46CHL1  H12B 5843   4.302   0.457   9.332 -2.2730 -0.2919 -0.0918
   46CHL1   C11 5844   4.309   0.629   9.472 -0.0857  0.2556 -0.4211
   46CHL1  H11A 5845   4.278   0.736   9.466  1.0101  0.5007 -1.9507
   46CHL1  H11B 5846   4.234   0.581   9.538  0.2532 -0.7580 -0.7701
   46CHL1    C9 5847   4.445   0.603   9.531 -0.3052  0.2128  0.1065
   46CHL1    H9 5848   4.467   0.494   9.531 -0.4591  0.1723 -1.4344
   46CHL1   C10 5849   4.458   0.643   9.675 -0.2981 -0.4300 -0.4823
   46CHL1   C19 5850   4.414   0.793   9.688  0.0242 -0.7121 -0.5026
   46CHL1  H19A 5851   4.468   0.868   9.628  0.3457  0.4968  1.2587
   46CHL1  H19B 5852   4.305   0.805   9.666 -0.4527  0.0474  2.0489
   46CHL1  H19C 5853   4.429   0.826   9.793  1.5960  1.4070 -1.3832
   46CHL1    C1 5854   4.371   0.544   9.770 -0.1634 -0.5719 -0.5507
   46CHL1   H1A 5855   4.267   0.568   9.740 -0.1283  1.8849  1.1804
   46CHL1   H1B 5856   4.400   0.439   9.749  0.0370 -0.4725 -0.7865
   46CHL1    C2 5857   4.393   0.580   9.915  0.8807 -1.3097 -0.7877
   46CHL1   H2A 5858   4.338   0.498   9.965 -1.4778 -0.5583 -2.0729
   46CHL1   H2B 5859   4.335   0.672   9.936 -0.1572 -1.9383 -0.8907
   46CHL1   C20 5860   4.308   0.601   8.988  0.8830  0.3418 -0.3390
   46CHL1   H20 5861   4.288   0.710   8.981 -1.3136  0.0877  1.5060
   46CHL1   C21 5862   4.163   0.551   9.028 -0.0172  1.2895  0.3106
   46CHL1  H21A 5863   4.104   0.547   8.934  0.7660  1.4879 -0.1938
   46CHL1  H21B 5864   4.113   0.606   9.110 -1.0051  1.4444 -0.3939
   46CHL1  H21C 5865   4.166   0.444   9.059 -1.9252  0.8962 -0.7747
   46CHL1   C22 5866   4.353   0.515   8.859 -0.3586 -0.1135 -0.0710
   46CHL1  H22A 5867   4.427   0.439   8.893  0.9804  1.4885  0.6837
   46CHL1  H22B 5868   4.260   0.469   8.818 -1.8106  1.5169  1.2835
   46CHL1   C23 5869   4.429   0.603   8.752 -0.1729  0.3989  0.0208
   46CHL1  H23A 5870   4.349   0.665   8.707 -1.6270 -1.4099  0.0408
   46CHL1  H23B 5871   4.500   0.670   8.804 -0.2735 -1.4439  2.6146
   46CHL1   C24 5872   4.494   0.515   8.642  1.0434 -0.5977 -0.1543
   46CHL1  H24A 5873   4.565   0.441   8.685 -1.7375 -1.9454  2.2324
   46CHL1  H24B 5874   4.410   0.454   8.603  0.8745 -0.8183  0.5537
   46CHL1   C25 5875   4.556   0.599   8.540  0.3171  0.5773  0.2749
   46CHL1   H25 5876   4.470   0.665   8.518  0.4467  1.8765  3.3590
   46CHL1   C26 5877   4.656   0.699   8.596 -0.6172  0.9207  0.0139
   46CHL1  H26A 5878   4.661   0.697   8.707  0.1693 -1.6422 -0.0267
   46CHL1  H26B 5879   4.762   0.678   8.569 -0.3858 -0.1799  1.6957
   46CHL1  H26C 5880   4.634   0.795   8.546  0.4630  1.3478  0.3409
   46CHL1   C27 5881   4.608   0.505   8.424  0.1734  0.3644 -0.3716
   46CHL1  H27A 5882   4.528   0.438   8.385 -0.2242  0.0006  1.0281
   46CHL1  H27B 5883   4.656   0.566   8.345 -0.4065  0.6117 -0.5326
   46CHL1  H27C 5884   4.679   0.430   8.467 -1.5091 -1.7307 -1.1514
   47CHL1    C3 5885   5.611   3.983  10.074 -1.2443  0.3653 -0.2623
   47CHL1    H3 5886   5.708   3.952  10.030 -0.1299  0.2148  2.2397
   47CHL1    O3 5887   5.586   3.944  10.209 -0.1059 -0.0727 -0.8231
   47CHL1   H3' 5888   5.500   3.978  10.236  0.4592  1.2760 -0.6455
   47CHL1    C4 5889   5.607   4.135  10.080  0.5689  0.1059 -0.2080
   47CHL1   H4A 5890   5.521   4.175  10.138 -0.9216  0.2644 -2.4804
   47CHL1   H4B 5891   5.698   4.166  10.135 -0.5900  2.1079  0.6506
   47CHL1    C5 5892   5.604   4.193   9.941 -0.0137 -0.4737  0.1712
   47CHL1    C6 5893   5.693   4.286   9.902  0.3645  0.2284  0.5341
   47CHL1    H6 5894   5.768   4.333   9.968  1.3763 -1.6394  0.7521
   47CHL1    C7 5895   5.700   4.337   9.755  0.0348 -0.2711  0.1016
   47CHL1   H7A 5896   5.717   4.447   9.753 -0.8123 -0.1007  1.5073
   47CHL1   H7B 5897   5.791   4.291   9.712 -0.5334 -2.1621  0.8841
   47CHL1    C8 5898   5.572   4.308   9.670  0.1940 -0.2116 -0.0253
   47CHL1    H8 5899   5.483   4.365   9.706  0.1740  0.6909 -1.4755
   47CHL1   C14 5900   5.589   4.345   9.519  0.0087  0.0301  0.0648
   47CHL1   H14 5901   5.683   4.293   9.493  0.9241  0.5412  2.2136
   47CHL1   C15 5902   5.629   4.496   9.494 -0.8914  0.2686  0.0096
   47CHL1  H15A 5903   5.562   4.571   9.541  0.5864  1.2761  0.5411
   47CHL1  H15B 5904   5.729   4.528   9.530 -0.3232 -0.5754 -0.8037
   47CHL1   C16 5905   5.614   4.509   9.340  0.4405  0.0386 -0.5817
   47CHL1  H16A 5906   5.552   4.598   9.317 -0.3782  0.2032  2.1165
   47CHL1  H16B 5907   5.710   4.522   9.286 -0.6197  0.4992 -2.3914
   47CHL1   C17 5908   5.547   4.374   9.302  1.0436  0.1881 -0.5374
   47CHL1   H17 5909   5.630   4.302   9.286 -0.3497 -1.6986  0.5137
   47CHL1   C13 5910   5.479   4.315   9.424 -0.1975 -0.0770 -0.2212
   47CHL1   C18 5911   5.348   4.405   9.449  0.2652  0.6027 -0.8018
   47CHL1  H18A 5912   5.279   4.381   9.366  0.4974 -1.6231 -0.3704
   47CHL1  H18B 5913   5.310   4.381   9.550 -2.2436  1.6086 -1.4591
   47CHL1  H18C 5914   5.366   4.515   9.440 -0.8777  0.7318 -1.5909
   47CHL1   C12 5915   5.455   4.165   9.432 -0.1348  0.3550 -0.1852
   47CHL1  H12A 5916   5.370   4.138   9.366  0.4834 -0.3682 -0.6851
   47CHL1  H12B 5917   5.552   4.121   9.403  0.3606  1.6845 -0.5964
   47CHL1   C11 5918   5.423   4.124   9.572  0.2643  0.7427 -0.4093
   47CHL1  H11A 5919   5.318   4.148   9.598 -0.8913 -3.3599 -1.0198
   47CHL1  H11B 5920   5.424   4.013   9.567  4.0542  0.6519  0.2909
   47CHL1    C9 5921   5.523   4.163   9.693  0.5561 -0.1620  0.1495
   47CHL1    H9 5922   5.618   4.108   9.675  0.3491 -0.4969  0.0878
   47CHL1   C10 5923   5.495   4.131   9.845  0.3485 -0.1852 -0.2896
   47CHL1   C19 5924   5.351   4.172   9.880  0.1698 -0.0398  0.3288
   47CHL1  H19A 5925   5.337   4.282   9.879  1.5610  0.1340 -1.7392
   47CHL1  H19B 5926   5.279   4.116   9.816  1.4720 -1.1237 -0.1983
   47CHL1  H19C 5927   5.331   4.142   9.985 -1.4558  0.3960  0.1625
   47CHL1    C1 5928   5.506   3.974   9.855  0.2179  0.6547 -0.3857
   47CHL1   H1A 5929   5.417   3.930   9.804 -1.3424 -0.8518  3.4164
   47CHL1   H1B 5930   5.602   3.943   9.810  1.2087  1.9253  0.8323
   47CHL1    C2 5931   5.496   3.919   9.995  0.4288 -0.6100  0.6407
   47CHL1   H2A 5932   5.506   3.809   9.996 -0.8236 -0.7272  2.8190
   47CHL1   H2B 5933   5.398   3.954  10.035 -0.2208 -3.2723  1.4779
   47CHL1   C20 5934   5.481   4.381   9.165  0.2670 -0.7158  0.1553
   47CHL1   H20 5935   5.390   4.445   9.161 -0.5040 -1.9024 -2.5012
   47CHL1   C21 5936   5.423   4.247   9.118 -0.3418  0.2526 -0.7364
   47CHL1  H21A 5937   5.434   4.234   9.008  1.6379 -2.3761 -0.2990
   47CHL1  H21B 5938   5.319   4.231   9.153  0.0934 -1.7901 -0.3023
   47CHL1  H21C 5939   5.481   4.158   9.153 -1.1560 -0.0408 -0.1130
   47CHL1   C22 5940   5.575   4.454   9.060  0.1922  0.4489 -0.1441
   47CHL1  H22A 5941   5.596   4.554   9.103  0.7102  0.2423  0.0895
   47CHL1  H22B 5942   5.664   4.388   9.056 -1.8685 -2.5879  1.9843
   47CHL1   C23 5943   5.508   4.483   8.921  0.3829  0.2244 -0.2168
   47CHL1  H23A 5944   5.480   4.383   8.883 -2.9433  0.2418  1.8820
   47CHL1  H23B 5945   5.418   4.545   8.942  2.3257  2.8257  0.7573
   47CHL1   C24 5946   5.599   4.549   8.826 -0.1486 -0.1689 -0.4037
   47CHL1  H24A 5947   5.639   4.637   8.880 -0.2544 -0.5457  0.2922
   47CHL1  H24B 5948   5.682   4.476   8.810  1.3340  1.5457 -0.7082
   47CHL1   C25 5949   5.541   4.576   8.683  0.2156  0.7212 -0.3419
   47CHL1   H25 5950   5.500   4.487   8.629 -1.0331  0.8949  0.2962
   47CHL1   C26 5951   5.433   4.683   8.689  0.0885  0.5998  0.0691
   47CHL1  H26A 5952   5.462   4.758   8.766  2.7188 -0.5495  0.2554
   47CHL1  H26B 5953   5.340   4.629   8.718 -0.9407  1.6488 -1.2365
   47CHL1  H26C 5954   5.407   4.733   8.593  1.0282  0.9330 -0.0116
   47CHL1   C27 5955   5.647   4.627   8.590 -0.1471  0.0295 -0.0032
   47CHL1  H27A 5956   5.725   4.548   8.585 -0.5716 -0.5409  1.8280
   47CHL1  H27B 5957   5.612   4.643   8.486 -0.2450  1.1479  0.1869
   47CHL1  H27C 5958   5.692   4.720   8.632 -0.3638  0.8084 -1.4766
   48CHL1    C3 5959   6.525   4.657  10.027 -0.6112 -0.3937 -0.0222
   48CHL1    H3 5960   6.627   4.667   9.984 -0.1396 -1.4637  0.8088
   48CHL1    O3 5961   6.520   4.627  10.166  0.1314  0.1199  0.4490
   48CHL1   H3' 5962   6.441   4.670  10.199 -0.5617  0.2679 -1.3313
   48CHL1    C4 5963   6.450   4.789  10.006 -0.3391  0.4162 -0.4188
   48CHL1   H4A 5964   6.345   4.777  10.039 -0.2109 -0.9998 -0.4587
   48CHL1   H4B 5965   6.502   4.861  10.072  0.1917 -1.6972  1.5518
   48CHL1    C5 5966   6.428   4.823   9.863  0.9142  0.5883 -0.7163
   48CHL1    C6 5967   6.471   4.942   9.812 -0.0361  0.7473 -0.1327
   48CHL1    H6 5968   6.511   5.017   9.882  0.9392 -0.9318  1.1383
   48CHL1    C7 5969   6.447   4.973   9.668  0.3639 -0.2634  0.7969
   48CHL1   H7A 5970   6.407   5.077   9.659  1.1248  0.1740  2.2332
   48CHL1   H7B 5971   6.550   4.985   9.628 -0.7579  2.8284 -1.3847
   48CHL1    C8 5972   6.353   4.878   9.582 -0.8585 -1.1407  0.1065
   48CHL1    H8 5973   6.250   4.917   9.595  0.1697  0.7224  2.9676
   48CHL1   C14 5974   6.388   4.897   9.434 -0.0017 -0.8021  0.4857
   48CHL1   H14 5975   6.491   4.859   9.418 -0.3125 -1.3573 -0.2138
   48CHL1   C15 5976   6.391   5.044   9.390  0.2194 -0.4522 -0.2207
   48CHL1  H15A 5977   6.308   5.098   9.439 -1.1639 -2.7850  0.1146
   48CHL1  H15B 5978   6.491   5.090   9.402 -0.6219  1.2515  0.4211
   48CHL1   C16 5979   6.363   5.023   9.238  0.1114 -0.8135  0.5036
   48CHL1  H16A 5980   6.266   5.068   9.208  0.9241  0.2985 -0.5153
   48CHL1  H16B 5981   6.443   5.069   9.176 -1.4787  3.9108  1.7736
   48CHL1   C17 5982   6.350   4.875   9.198  0.5032 -0.2982  0.1759
   48CHL1   H17 5983   6.457   4.845   9.191  1.0067  0.9164  2.1747
   48CHL1   C13 5984   6.297   4.818   9.337  0.4550  0.0340  0.5181
   48CHL1   C18 5985   6.152   4.861   9.357 -0.3969  0.3612  0.7203
   48CHL1  H18A 5986   6.132   4.965   9.388 -0.3826  0.7514 -0.5423
   48CHL1  H18B 5987   6.099   4.854   9.260  3.0363  1.6831 -1.3324
   48CHL1  H18C 5988   6.096   4.794   9.425 -0.8362 -1.2707 -1.1961
   48CHL1   C12 5989   6.323   4.673   9.373 -0.8456  0.5903 -0.6302
   48CHL1  H12A 5990   6.252   4.608   9.318 -0.7672 -1.4408  1.5814
   48CHL1  H12B 5991   6.427   4.639   9.351  0.0274  0.8692  2.7570
   48CHL1   C11 5992   6.307   4.642   9.528 -0.1069  0.8946  0.0503
   48CHL1  H11A 5993   6.202   4.665   9.553 -0.1981  0.3044  0.2143
   48CHL1  H11B 5994   6.316   4.534   9.551  1.4438  1.2600  1.2742
   48CHL1    C9 5995   6.385   4.734   9.623  0.1489 -0.4892  0.0367
   48CHL1    H9 5996   6.494   4.715   9.607  0.6963  2.8119 -0.3797
   48CHL1   C10 5997   6.371   4.709   9.777 -0.1817  0.0737  0.1810
   48CHL1   C19 5998   6.223   4.703   9.808 -0.0002 -1.0227  0.0529
   48CHL1  H19A 5999   6.198   4.691   9.916 -0.3929  0.7899  0.1822
   48CHL1  H19B 6000   6.172   4.797   9.779  0.8196 -0.6850 -0.3162
   48CHL1  H19C 6001   6.174   4.627   9.744 -2.2911  1.1616 -0.8738
   48CHL1    C1 6002   6.447   4.574   9.803 -0.3233  0.4473  0.8940
   48CHL1   H1A 6003   6.393   4.491   9.753  2.0345 -0.6933  0.1952
   48CHL1   H1B 6004   6.549   4.573   9.759  0.5888  2.6074  2.8588
   48CHL1    C2 6005   6.466   4.541   9.953  0.1024  0.1126  0.1844
   48CHL1   H2A 6006   6.524   4.448   9.973  1.0423  0.8077  0.7494
   48CHL1   H2B 6007   6.366   4.523   9.996 -0.6084  1.4195 -0.8778
   48CHL1   C20 6008   6.276   4.850   9.061  0.1006 -0.3371  0.0756
   48CHL1   H20 6009   6.197   4.928   9.057  0.4252  0.0235  0.6356
   48CHL1   C21 6010   6.200   4.715   9.054 -0.1671 -0.2082 -0.2067
   48CHL1  H21A 6011   6.270   4.629   9.050  0.7571  0.6048 -2.2319
   48CHL1  H21B 6012   6.143   4.710   8.959  1.0116 -0.8270 -0.8949
   48CHL1  H21C 6013   6.126   4.707   9.136 -0.1642  0.7606 -0.0995
   48CHL1   C22 6014   6.369   4.865   8.934  0.1542  0.0083  0.0955
   48CHL1  H22A 6015   6.402   4.971   8.932  0.2349 -0.0493 -2.6352
   48CHL1  H22B 6016   6.452   4.795   8.954 -0.1120  0.0778  1.4937
   48CHL1   C23 6017   6.309   4.835   8.794 -0.3355  0.3295 -0.1479
   48CHL1  H23A 6018   6.275   4.730   8.782  0.7147 -0.1459  0.9643
   48CHL1  H23B 6019   6.218   4.899   8.795  0.9546  2.2364 -0.6735
   48CHL1   C24 6020   6.390   4.874   8.672 -0.6376 -0.1518 -0.3869
   48CHL1  H24A 6021   6.423   4.980   8.670  0.3873 -0.4193  1.3006
   48CHL1  H24B 6022   6.478   4.807   8.663 -1.3135 -0.8793 -1.8764
   48CHL1   C25 6023   6.317   4.839   8.539 -0.0273 -0.2338  0.2248
   48CHL1   H25 6024   6.317   4.730   8.516 -0.3130 -0.6658  2.1538
   48CHL1   C26 6025   6.169   4.873   8.540 -0.1612 -0.0327  0.2530
   48CHL1  H26A 6026   6.117   4.827   8.627 -0.5998  3.4439  1.9232
   48CHL1  H26B 6027   6.146   4.980   8.558  0.0994 -0.1599  1.4017
   48CHL1  H26C 6028   6.127   4.838   8.443 -0.6225 -1.9400  1.1032
   48CHL1   C27 6029   6.380   4.908   8.414 -0.1315 -0.4983 -0.2352
   48CHL1  H27A 6030   6.457   4.835   8.379  0.3556 -1.3301  2.4999
   48CHL1  H27B 6031   6.299   4.913   8.339 -0.7722 -0.7682  0.4371
   48CHL1  H27C 6032   6.401   5.015   8.436  0.6672 -0.5732 -0.6023
   49CHL1    C3 6033   4.283   6.675  10.061  0.1311 -0.4420  0.0331
   49CHL1    H3 6034   4.272   6.778  10.020 -0.9876 -1.8976 -3.5670
   49CHL1    O3 6035   4.235   6.669  10.196 -0.1587  0.3116  1.1770
   49CHL1   H3' 6036   4.231   6.576  10.219  1.0920 -0.0931 -0.1956
   49CHL1    C4 6037   4.186   6.591   9.977 -0.8691 -0.0969 -0.9340
   49CHL1   H4A 6038   4.163   6.505  10.044 -0.9340 -0.6695 -1.6921
   49CHL1   H4B 6039   4.096   6.656   9.973 -1.0231 -0.2251  0.1155
   49CHL1    C5 6040   4.232   6.546   9.838  0.3266  0.0152  0.0225
   49CHL1    C6 6041   4.147   6.572   9.738 -0.2909 -0.0758 -0.2670
   49CHL1    H6 6042   4.048   6.615   9.760  0.8010  0.7453  3.3593
   49CHL1    C7 6043   4.187   6.550   9.596 -0.5345 -0.0127 -0.0687
   49CHL1   H7A 6044   4.109   6.493   9.541  0.0854 -0.1973 -0.7533
   49CHL1   H7B 6045   4.201   6.642   9.536 -1.2146  0.2996  0.2482
   49CHL1    C8 6046   4.317   6.461   9.590  0.9658 -0.5166 -0.4625
   49CHL1    H8 6047   4.276   6.358   9.601 -2.8454  0.8107 -1.7596
   49CHL1   C14 6048   4.372   6.470   9.450 -0.7873 -0.2193 -0.0016
   49CHL1   H14 6049   4.405   6.576   9.446 -1.5214 -0.0344 -1.2247
   49CHL1   C15 6050   4.276   6.460   9.332  0.1897 -0.6026  0.1428
   49CHL1  H15A 6051   4.217   6.366   9.328 -2.7889  1.2943 -2.5399
   49CHL1  H15B 6052   4.211   6.550   9.323 -1.0363 -1.6394 -1.6398
   49CHL1   C16 6053   4.377   6.448   9.212  0.4627  0.8493  0.1282
   49CHL1  H16A 6054   4.349   6.358   9.153 -0.4493  0.4910  1.1048
   49CHL1  H16B 6055   4.357   6.533   9.143  1.0904 -0.7555 -2.0766
   49CHL1   C17 6056   4.518   6.430   9.269  0.0586  0.1952  0.4664
   49CHL1   H17 6057   4.571   6.525   9.288  3.0219 -1.1011 -1.0653
   49CHL1   C13 6058   4.486   6.378   9.416 -0.6488  0.1723 -0.7917
   49CHL1   C18 6059   4.450   6.225   9.409  0.2943 -0.0787 -0.2692
   49CHL1  H18A 6060   4.376   6.196   9.332  0.5036  0.4729 -0.6765
   49CHL1  H18B 6061   4.545   6.168   9.403 -0.0755 -0.7834  0.4636
   49CHL1  H18C 6062   4.407   6.198   9.508 -0.3053 -0.0869 -0.5269
   49CHL1   C12 6063   4.602   6.405   9.518 -0.1450  0.6498  0.4166
   49CHL1  H12A 6064   4.686   6.333   9.511  1.7660  2.9690 -1.4332
   49CHL1  H12B 6065   4.630   6.511   9.504 -0.1994  0.7379  0.9766
   49CHL1   C11 6066   4.556   6.410   9.663  0.5154  0.0295 -0.1359
   49CHL1  H11A 6067   4.542   6.303   9.692  3.1178 -0.5860 -1.0077
   49CHL1  H11B 6068   4.638   6.450   9.726 -0.7576 -0.8770  2.1592
   49CHL1    C9 6069   4.424   6.492   9.690  0.0370 -0.0627 -0.0541
   49CHL1    H9 6070   4.443   6.599   9.670 -2.0923  0.3588  0.0744
   49CHL1   C10 6071   4.380   6.498   9.835  0.0389 -0.6804 -0.0392
   49CHL1   C19 6072   4.376   6.354   9.886  0.0363 -0.4484 -0.3734
   49CHL1  H19A 6073   4.482   6.319   9.881  0.5472  0.9017  0.5632
   49CHL1  H19B 6074   4.340   6.352   9.991  1.2895  0.4982  0.0972
   49CHL1  H19C 6075   4.320   6.282   9.823  3.0209 -1.0967 -2.3981
   49CHL1    C1 6076   4.469   6.597   9.915 -0.6656  0.0678  0.1191
   49CHL1   H1A 6077   4.565   6.544   9.929 -1.5846 -0.7372  3.7901
   49CHL1   H1B 6078   4.490   6.690   9.857  1.6319  0.0178  0.8423
   49CHL1    C2 6079   4.424   6.620  10.056 -0.7600  0.4554  0.0515
   49CHL1   H2A 6080   4.495   6.686  10.110 -0.9570  1.6411 -1.0996
   49CHL1   H2B 6081   4.421   6.521  10.105  2.2740 -0.4020 -1.3856
   49CHL1   C20 6082   4.607   6.339   9.173 -0.1574  0.1061 -0.7470
   49CHL1   H20 6083   4.552   6.246   9.152  1.9297 -1.1861 -0.6374
   49CHL1   C21 6084   4.737   6.304   9.243 -0.0871  0.4592  0.2828
   49CHL1  H21A 6085   4.718   6.243   9.334 -0.2087  2.7496  1.8389
   49CHL1  H21B 6086   4.796   6.392   9.278  1.3402 -1.7176  3.6173
   49CHL1  H21C 6087   4.803   6.248   9.174 -0.7443 -1.7344  1.4037
   49CHL1   C22 6088   4.625   6.417   9.040 -0.9355  0.0325  0.1843
   49CHL1  H22A 6089   4.531   6.468   9.008  0.8710  2.4419 -1.5033
   49CHL1  H22B 6090   4.699   6.494   9.069 -1.0850 -0.4395  1.8660
   49CHL1   C23 6091   4.674   6.340   8.916  0.7868  0.0754  0.7667
   49CHL1  H23A 6092   4.774   6.295   8.932  0.4031 -1.7261 -1.6485
   49CHL1  H23B 6093   4.594   6.267   8.891 -0.2197  1.5410 -0.3536
   49CHL1   C24 6094   4.687   6.435   8.790  0.2197  0.2157  0.5295
   49CHL1  H24A 6095   4.582   6.468   8.774  0.5573  0.5361 -1.0766
   49CHL1  H24B 6096   4.737   6.528   8.826 -1.3953  1.7711 -1.1286
   49CHL1   C25 6097   4.755   6.378   8.666  0.3945  0.6179  0.1634
   49CHL1   H25 6098   4.830   6.313   8.715 -1.4152  0.0439  2.2288
   49CHL1   C26 6099   4.666   6.295   8.576  0.4933 -0.3832 -0.1662
   49CHL1  H26A 6100   4.662   6.199   8.631 -0.9472 -0.0221  0.4011
   49CHL1  H26B 6101   4.569   6.343   8.551 -0.1203 -1.1377  0.7457
   49CHL1  H26C 6102   4.711   6.269   8.477 -0.3323  1.5307 -1.0802
   49CHL1   C27 6103   4.827   6.481   8.580 -0.4150 -0.4008 -0.2059
   49CHL1  H27A 6104   4.753   6.564   8.569 -0.6313 -0.4196  1.0427
   49CHL1  H27B 6105   4.922   6.516   8.625 -1.1470 -0.8438  1.7403
   49CHL1  H27C 6106   4.854   6.449   8.477 -3.5459  0.0816 -1.2383
   50CHL1    C3 6107   0.884   1.854  10.233 -0.7377  0.7219 -0.1088
   50CHL1    H3 6108   0.777   1.836  10.211 -0.1699  0.0367 -2.4557
   50CHL1    O3 6109   0.907   1.926  10.354 -0.6119 -0.3370  0.0564
   50CHL1   H3' 6110   0.999   1.952  10.355 -1.2735  2.1826  0.2928
   50CHL1    C4 6111   0.966   1.722  10.229 -0.0186 -0.1520  0.2749
   50CHL1   H4A 6112   1.071   1.756  10.232  0.3664 -0.9222 -2.7832
   50CHL1   H4B 6113   0.941   1.663  10.319  0.7219  1.2003  1.3912
   50CHL1    C5 6114   0.933   1.646  10.100 -0.5232 -0.7847  0.2054
   50CHL1    C6 6115   0.879   1.522  10.101  0.4811 -1.1977 -0.0432
   50CHL1    H6 6116   0.857   1.457  10.187 -2.4185  0.3873  0.4619
   50CHL1    C7 6117   0.848   1.452   9.969 -0.4314  0.8641  0.1872
   50CHL1   H7A 6118   0.865   1.342   9.975 -0.2318  0.9107  0.4902
   50CHL1   H7B 6119   0.739   1.467   9.961 -0.8965 -1.4076  1.5982
   50CHL1    C8 6120   0.910   1.518   9.843  0.8206  0.0472  0.0408
   50CHL1    H8 6121   1.017   1.491   9.839  1.0114  0.9757 -1.7845
   50CHL1   C14 6122   0.838   1.467   9.722 -0.0452  0.2839  0.1194
   50CHL1   H14 6123   0.732   1.502   9.725  1.1638  4.1853  0.8066
   50CHL1   C15 6124   0.825   1.310   9.702  0.0186 -0.2034 -0.4759
   50CHL1  H15A 6125   0.923   1.267   9.731  0.0718  0.5243  0.4525
   50CHL1  H15B 6126   0.751   1.261   9.770  0.4326 -0.3045 -0.0976
   50CHL1   C16 6127   0.798   1.292   9.553  0.0188 -0.0251  0.1366
   50CHL1  H16A 6128   0.878   1.243   9.494  0.2343 -0.0858  0.4780
   50CHL1  H16B 6129   0.699   1.247   9.529 -1.3867  1.9143  2.0575
   50CHL1   C17 6130   0.796   1.441   9.496 -0.1882  0.2670  0.2376
   50CHL1   H17 6131   0.695   1.481   9.516  0.6483  1.7452  1.6375
   50CHL1   C13 6132   0.886   1.521   9.588 -0.4614  0.0221 -0.1360
   50CHL1   C18 6133   1.027   1.474   9.569  0.2586 -0.5513 -0.2454
   50CHL1  H18A 6134   1.055   1.528   9.476  0.4281  0.7938  0.5784
   50CHL1  H18B 6135   1.093   1.505   9.653  0.8067  0.1848 -0.9424
   50CHL1  H18C 6136   1.047   1.364   9.564  3.1677 -0.1573  1.3104
   50CHL1   C12 6137   0.868   1.675   9.593 -0.0614  0.2390 -0.3713
   50CHL1  H12A 6138   0.934   1.707   9.509  0.1269  0.9545  0.0515
   50CHL1  H12B 6139   0.762   1.706   9.583  0.4852  1.6588 -1.9523
   50CHL1   C11 6140   0.936   1.739   9.713  0.1181  0.8899  0.1773
   50CHL1  H11A 6141   1.047   1.739   9.712  0.1642 -0.2092 -3.3602
   50CHL1  H11B 6142   0.920   1.849   9.720 -0.0105  0.7367  2.4634
   50CHL1    C9 6143   0.892   1.669   9.842 -0.1018  0.5275  0.0559
   50CHL1    H9 6144   0.782   1.680   9.857 -0.2043  0.7370 -0.7939
   50CHL1   C10 6145   0.948   1.732   9.971 -0.0225  0.4979 -0.6164
   50CHL1   C19 6146   1.100   1.743   9.949 -0.2653 -0.4102 -0.2941
   50CHL1  H19A 6147   1.151   1.657   9.902  2.0052  0.8069 -0.1399
   50CHL1  H19B 6148   1.104   1.831   9.881 -0.0109 -0.9254 -0.9491
   50CHL1  H19C 6149   1.155   1.771  10.041 -0.0742 -0.4573 -0.3944
   50CHL1    C1 6150   0.891   1.876   9.990 -0.8198 -0.1960 -0.2911
   50CHL1   H1A 6151   0.919   1.946   9.909 -0.7319  0.3451  0.2053
   50CHL1   H1B 6152   0.781   1.861   9.990 -1.1551  2.1658  0.3489
   50CHL1    C2 6153   0.932   1.942  10.118 -0.2643  0.2986  0.3085
   50CHL1   H2A 6154   0.893   2.041  10.149 -0.3872  0.3097  0.1148
   50CHL1   H2B 6155   1.043   1.942  10.120 -0.2775  1.0379  1.9718
   50CHL1   C20 6156   0.819   1.457   9.344  0.4024 -0.3572  0.5417
   50CHL1   H20 6157   0.925   1.430   9.323  0.9650  1.8002  0.5114
   50CHL1   C21 6158   0.791   1.596   9.285 -0.4261  0.7924 -0.0258
   50CHL1  H21A 6159   0.827   1.686   9.340  0.5744  0.6943 -0.5094
   50CHL1  H21B 6160   0.681   1.610   9.279 -0.2391  2.0691 -0.5173
   50CHL1  H21C 6161   0.840   1.593   9.185 -2.6152  0.2751 -1.1223
   50CHL1   C22 6162   0.728   1.353   9.272 -0.8436 -0.4414  0.0537
   50CHL1  H22A 6163   0.751   1.249   9.304 -0.5516 -0.4420 -0.1614
   50CHL1  H22B 6164   0.627   1.366   9.317 -0.9629  0.0204 -0.3440
   50CHL1   C23 6165   0.723   1.349   9.120  0.7203 -0.5546 -0.2084
   50CHL1  H23A 6166   0.690   1.444   9.073  0.9523  0.8960  2.4257
   50CHL1  H23B 6167   0.822   1.311   9.087  0.6965 -0.8531  0.0621
   50CHL1   C24 6168   0.614   1.245   9.069 -0.3497  0.0320 -0.2984
   50CHL1  H24A 6169   0.647   1.141   9.091 -0.6255 -0.5894 -2.6716
   50CHL1  H24B 6170   0.525   1.282   9.124  0.9339 -0.2473  2.0301
   50CHL1   C25 6171   0.585   1.237   8.915  0.6832  0.1755 -0.5506
   50CHL1   H25 6172   0.680   1.251   8.860 -0.4328  2.4459 -1.9888
   50CHL1   C26 6173   0.514   1.100   8.886  0.4817 -0.4249  0.6583
   50CHL1  H26A 6174   0.557   1.015   8.944  0.7589 -0.1966  0.7933
   50CHL1  H26B 6175   0.413   1.115   8.929  0.5176 -0.0299  0.6064
   50CHL1  H26C 6176   0.504   1.080   8.778 -1.2492  2.8738  0.1346
   50CHL1   C27 6177   0.500   1.350   8.868 -0.0934 -0.1544  0.3032
   50CHL1  H27A 6178   0.543   1.448   8.898 -0.6202  0.5159 -1.0752
   50CHL1  H27B 6179   0.488   1.354   8.757 -0.4328 -0.9720  0.3057
   50CHL1  H27C 6180   0.401   1.355   8.918 -0.4960 -0.9023 -0.3925
   51CHL1    C3 6181   2.003   4.638  10.295 -0.0684 -0.3070  0.2360
   51CHL1    H3 6182   1.911   4.578  10.282 -1.9513  2.3061  1.1657
   51CHL1    O3 6183   2.019   4.675  10.433 -0.1133  0.3055 -0.1147
   51CHL1   H3' 6184   2.095   4.735  10.433  0.1675 -0.0237  2.0399
   51CHL1    C4 6185   2.120   4.559  10.243 -0.3595  0.2864 -0.3250
   51CHL1   H4A 6186   2.212   4.619  10.256 -0.5579  0.1578  1.8418
   51CHL1   H4B 6187   2.144   4.471  10.307  1.8198  0.2711 -1.1498
   51CHL1    C5 6188   2.113   4.524  10.097  0.3952  0.1256 -0.1536
   51CHL1    C6 6189   2.135   4.402  10.048  0.2787  0.2892 -0.3136
   51CHL1    H6 6190   2.151   4.318  10.117  0.7882  0.5814 -0.0700
   51CHL1    C7 6191   2.147   4.372   9.900 -0.0613 -0.0942 -0.4403
   51CHL1   H7A 6192   2.229   4.300   9.883  1.8388  1.7906  0.5941
   51CHL1   H7B 6193   2.054   4.316   9.874  0.2423 -1.5236  1.4867
   51CHL1    C8 6194   2.156   4.493   9.810 -0.3485  0.4134  0.7706
   51CHL1    H8 6195   2.261   4.531   9.815 -0.5215  1.0086 -0.0801
   51CHL1   C14 6196   2.128   4.461   9.664  0.0431 -0.0276 -1.2591
   51CHL1   H14 6197   2.024   4.430   9.683  0.4912  0.1493  1.6378
   51CHL1   C15 6198   2.181   4.331   9.606 -0.6347  0.6104 -0.4621
   51CHL1  H15A 6199   2.290   4.324   9.625 -0.5854  2.2943 -0.0986
   51CHL1  H15B 6200   2.130   4.244   9.652 -1.1130  1.0275 -0.1960
   51CHL1   C16 6201   2.147   4.344   9.453 -0.2658  0.1303  0.3555
   51CHL1  H16A 6202   2.236   4.338   9.387  0.8354 -3.3519  2.0019
   51CHL1  H16B 6203   2.069   4.269   9.428 -0.4477  0.1671  0.7970
   51CHL1   C17 6204   2.078   4.484   9.438  0.2895  0.8528 -0.4011
   51CHL1   H17 6205   1.971   4.461   9.457  0.3508  1.0908  0.2581
   51CHL1   C13 6206   2.134   4.566   9.562  0.2166  0.1267 -0.5176
   51CHL1   C18 6207   2.274   4.616   9.539  0.0690  0.0863 -0.2990
   51CHL1  H18A 6208   2.325   4.651   9.632  2.1873  4.2692 -2.8763
   51CHL1  H18B 6209   2.335   4.534   9.496  0.6712  0.7756 -0.7714
   51CHL1  H18C 6210   2.275   4.715   9.488 -1.9650  0.4330  0.2945
   51CHL1   C12 6211   2.041   4.681   9.616  0.0677  0.1761 -0.0315
   51CHL1  H12A 6212   2.054   4.764   9.544 -1.3081  1.1019  0.7430
   51CHL1  H12B 6213   1.933   4.654   9.612  0.6687 -2.0670 -1.2059
   51CHL1   C11 6214   2.074   4.721   9.761 -0.0261 -0.4306  0.7621
   51CHL1  H11A 6215   2.178   4.758   9.747 -0.4603  0.8688  0.8599
   51CHL1  H11B 6216   2.001   4.798   9.795 -0.0347  0.0351 -0.3025
   51CHL1    C9 6217   2.069   4.605   9.862 -0.1984  0.6061  0.1184
   51CHL1    H9 6218   1.966   4.563   9.863 -0.5067  1.3516  1.4824
   51CHL1   C10 6219   2.103   4.648  10.003  0.0959  0.4676 -0.7824
   51CHL1   C19 6220   2.236   4.729  10.014 -0.7581  0.4971 -0.5239
   51CHL1  H19A 6221   2.329   4.678   9.982  0.4655  2.3436  0.0070
   51CHL1  H19B 6222   2.233   4.820   9.950  1.3030  1.6357  0.9373
   51CHL1  H19C 6223   2.247   4.767  10.118  2.4768 -1.0932 -0.2141
   51CHL1    C1 6224   1.989   4.738  10.059 -0.3110 -0.0179 -0.5252
   51CHL1   H1A 6225   2.000   4.835  10.006  0.0753  0.4105  0.3228
   51CHL1   H1B 6226   1.895   4.693  10.020 -1.1956  2.7120 -1.6760
   51CHL1    C2 6227   1.986   4.763  10.211 -0.5873 -0.7062 -0.4360
   51CHL1   H2A 6228   1.896   4.814  10.252  0.5522  0.4226  0.7069
   51CHL1   H2B 6229   2.071   4.829  10.240  1.4932 -3.8769  0.9195
   51CHL1   C20 6230   2.099   4.536   9.291 -0.1111  0.6457  0.0544
   51CHL1   H20 6231   2.205   4.566   9.280  0.4040 -0.7245  1.1697
   51CHL1   C21 6232   2.008   4.662   9.274 -0.1069 -0.5909  0.1419
   51CHL1  H21A 6233   1.904   4.640   9.306  0.6017 -2.7974  1.0288
   51CHL1  H21B 6234   1.989   4.697   9.170 -0.6960 -2.6653 -0.4566
   51CHL1  H21C 6235   2.047   4.739   9.345  0.6501 -0.7848 -0.0604
   51CHL1   C22 6236   2.069   4.433   9.176  0.1587  0.2523 -0.3975
   51CHL1  H22A 6237   2.152   4.359   9.175  1.2148  1.4000  0.5199
   51CHL1  H22B 6238   1.973   4.381   9.192  1.9341 -2.7868  0.6344
   51CHL1   C23 6239   2.075   4.501   9.033 -0.1437 -0.3358  0.7495
   51CHL1  H23A 6240   2.059   4.412   8.968  2.9939 -0.1013 -0.4414
   51CHL1  H23B 6241   1.987   4.564   9.006  0.7038 -0.0621 -1.5061
   51CHL1   C24 6242   2.215   4.545   8.996  0.3632  0.2026  0.5131
   51CHL1  H24A 6243   2.238   4.650   9.024 -2.0217  0.8662  0.0725
   51CHL1  H24B 6244   2.292   4.489   9.054 -0.1337 -0.6950  0.3132
   51CHL1   C25 6245   2.240   4.531   8.840 -0.1009  0.6643  0.4972
   51CHL1   H25 6246   2.208   4.432   8.800  0.2611  0.8567 -0.2775
   51CHL1   C26 6247   2.164   4.636   8.754 -0.1502  0.1061 -0.3195
   51CHL1  H26A 6248   2.185   4.728   8.812  1.4157 -0.5514  0.1990
   51CHL1  H26B 6249   2.190   4.633   8.646  0.0090 -1.8265 -0.2516
   51CHL1  H26C 6250   2.055   4.616   8.762 -0.0424 -0.3422  0.1133
   51CHL1   C27 6251   2.392   4.538   8.825  0.4569  0.3291  0.4451
   51CHL1  H27A 6252   2.432   4.641   8.839  2.5445 -0.2819 -0.7653
   51CHL1  H27B 6253   2.440   4.476   8.903 -1.1871 -0.6885  0.6627
   51CHL1  H27C 6254   2.432   4.515   8.724 -1.2492  0.1708 -0.2126
   52CHL1    C3 6255   5.854   3.282   9.940  0.3354  0.1991 -0.1796
   52CHL1    H3 6256   5.945   3.330   9.897  0.0759  0.2970 -0.6168
   52CHL1    O3 6257   5.849   3.293  10.082  0.3868 -0.2392 -0.6356
   52CHL1   H3' 6258   5.754   3.284  10.094 -0.2242  4.1035 -1.1981
   52CHL1    C4 6259   5.726   3.346   9.881 -0.8683  0.5973 -0.0260
   52CHL1   H4A 6260   5.635   3.308   9.931 -0.4503  1.3169  1.2882
   52CHL1   H4B 6261   5.728   3.453   9.912  1.6691  0.5722 -0.0156
   52CHL1    C5 6262   5.715   3.320   9.734 -0.0781  0.3880 -0.9066
   52CHL1    C6 6263   5.694   3.425   9.647 -0.2550  0.6345  0.7779
   52CHL1    H6 6264   5.681   3.526   9.688 -0.6957  0.4888  1.0039
   52CHL1    C7 6265   5.675   3.409   9.496 -0.3636  0.1297 -0.1174
   52CHL1   H7A 6266   5.581   3.454   9.457  0.9828  0.3143 -3.2798
   52CHL1   H7B 6267   5.754   3.457   9.435 -0.7058 -0.4686 -1.0417
   52CHL1    C8 6268   5.658   3.269   9.456 -0.2019 -0.6524  0.1532
   52CHL1    H8 6269   5.551   3.250   9.480 -0.8212 -0.6577 -2.4628
   52CHL1   C14 6270   5.678   3.250   9.308 -1.0782  0.2790  0.1614
   52CHL1   H14 6271   5.784   3.280   9.294 -0.5861 -1.4140  0.0614
   52CHL1   C15 6272   5.597   3.338   9.217  0.3940 -0.3127  0.3713
   52CHL1  H15A 6273   5.489   3.321   9.237  0.7356  0.3143  3.0113
   52CHL1  H15B 6274   5.626   3.445   9.229  2.6649 -0.5796 -2.2339
   52CHL1   C16 6275   5.622   3.282   9.077  0.3371 -0.0174  0.3309
   52CHL1  H16A 6276   5.533   3.284   9.009  1.7642 -0.5098 -1.5828
   52CHL1  H16B 6277   5.700   3.347   9.034  0.5532  0.2705  1.1528
   52CHL1   C17 6278   5.693   3.148   9.101  0.4952  0.1815  0.3781
   52CHL1   H17 6279   5.803   3.163   9.104  0.7252 -1.0461 -1.3963
   52CHL1   C13 6280   5.660   3.113   9.245  0.2645 -0.5031 -0.3039
   52CHL1   C18 6281   5.514   3.069   9.277 -0.0853  0.9863  0.2326
   52CHL1  H18A 6282   5.501   2.961   9.252 -1.9407  1.3454 -0.4397
   52CHL1  H18B 6283   5.497   3.078   9.386 -1.1523  0.6383  0.0940
   52CHL1  H18C 6284   5.432   3.125   9.228 -1.1102 -1.5406 -1.0281
   52CHL1   C12 6285   5.756   3.019   9.316  0.3382 -0.3240 -0.4368
   52CHL1  H12A 6286   5.724   2.917   9.288 -1.4209  0.0136  0.3125
   52CHL1  H12B 6287   5.863   3.032   9.287 -0.1234 -0.3422 -2.2157
   52CHL1   C11 6288   5.743   3.026   9.472 -0.2826  0.2906  0.3927
   52CHL1  H11A 6289   5.646   2.976   9.493  0.6028 -1.6062  0.0685
   52CHL1  H11B 6290   5.821   2.968   9.526 -0.4709 -0.0494  0.3033
   52CHL1    C9 6291   5.742   3.168   9.531 -0.1651 -0.3650 -0.6062
   52CHL1    H9 6292   5.843   3.210   9.509 -0.2607  1.4978  2.2209
   52CHL1   C10 6293   5.724   3.177   9.687 -0.2321  0.2215  0.1084
   52CHL1   C19 6294   5.599   3.088   9.715 -0.4854  0.2228 -0.1125
   52CHL1  H19A 6295   5.512   3.102   9.648 -1.4688  2.6940  1.6001
   52CHL1  H19B 6296   5.626   2.981   9.716 -0.8993  0.0910  2.8859
   52CHL1  H19C 6297   5.556   3.112   9.815 -1.1759 -0.7429 -0.1780
   52CHL1    C1 6298   5.845   3.111   9.751  0.3284 -0.8387 -0.4576
   52CHL1   H1A 6299   5.840   3.000   9.743  0.9953 -1.1576  2.8438
   52CHL1   H1B 6300   5.942   3.139   9.705 -0.9365  0.4563 -2.4165
   52CHL1    C2 6301   5.858   3.131   9.899 -0.7489 -0.4548 -1.0117
   52CHL1   H2A 6302   5.947   3.087   9.948 -1.0733  1.2808  1.2514
   52CHL1   H2B 6303   5.778   3.076   9.953  1.8128 -1.7690  1.5966
   52CHL1   C20 6304   5.662   3.045   8.982 -0.0766  0.1516 -0.5905
   52CHL1   H20 6305   5.551   3.032   8.978 -0.1068  0.1086  0.3758
   52CHL1   C21 6306   5.718   2.904   9.003 -0.2262 -0.1813  0.2647
   52CHL1  H21A 6307   5.679   2.849   9.091 -0.5816 -0.7105 -0.2181
   52CHL1  H21B 6308   5.828   2.910   9.018  0.0736 -1.1505 -1.4288
   52CHL1  H21C 6309   5.703   2.843   8.911  0.9210 -1.1223  0.6828
   52CHL1   C22 6310   5.717   3.093   8.845  0.1450  0.0874  0.0348
   52CHL1  H22A 6311   5.702   3.008   8.775  1.1478  0.2560 -0.3938
   52CHL1  H22B 6312   5.646   3.173   8.813  1.6580  0.9831 -1.1600
   52CHL1   C23 6313   5.860   3.142   8.832 -0.6394  0.5808 -0.7652
   52CHL1  H23A 6314   5.877   3.231   8.897 -1.7153 -1.5072  2.5054
   52CHL1  H23B 6315   5.919   3.062   8.882  0.9824  0.8577 -2.1886
   52CHL1   C24 6316   5.915   3.165   8.693 -0.6089 -0.2304 -0.4144
   52CHL1  H24A 6317   6.018   3.205   8.708 -1.2762  1.8958 -1.3216
   52CHL1  H24B 6318   5.923   3.076   8.627 -3.3954 -0.9713  0.2046
   52CHL1   C25 6319   5.838   3.266   8.615 -0.3075 -0.6030  0.1824
   52CHL1   H25 6320   5.734   3.227   8.609 -0.1275 -1.1214  0.4185
   52CHL1   C26 6321   5.836   3.403   8.679 -0.2726 -0.8021 -0.5051
   52CHL1  H26A 6322   5.797   3.401   8.783  1.6310 -0.7589  0.2181
   52CHL1  H26B 6323   5.935   3.450   8.692 -0.7900  1.1334 -3.0499
   52CHL1  H26C 6324   5.762   3.458   8.616  1.0372  0.7584 -0.7112
   52CHL1   C27 6325   5.874   3.273   8.463 -0.2415  0.0932 -0.4859
   52CHL1  H27A 6326   5.868   3.173   8.416  0.0135 -0.3623  0.4363
   52CHL1  H27B 6327   5.797   3.334   8.411 -0.2934 -1.0669 -1.7973
   52CHL1  H27C 6328   5.975   3.310   8.438 -1.0846  2.5533 -0.4334
   53CHL1    C3 6329   0.011   3.189  10.130 -0.0137 -0.5507  0.1972
   53CHL1    H3 6330   0.093   3.264  10.124 -0.5960  0.1575  0.9836
   53CHL1    O3 6331  -0.010   3.136  10.260  0.1818  0.1449  0.6119
   53CHL1   H3' 6332   0.052   3.065  10.278 -2.5683 -1.8244  2.9131
   53CHL1    C4 6333  -0.123   3.241  10.083 -0.1038 -0.3920  0.2697
   53CHL1   H4A 6334  -0.215   3.182  10.104 -0.9792  1.0185  0.4545
   53CHL1   H4B 6335  -0.130   3.332  10.145  1.8555 -2.0057  2.9729
   53CHL1    C5 6336  -0.130   3.284   9.934 -0.2444  0.0316 -0.1927
   53CHL1    C6 6337  -0.160   3.413   9.894 -0.4324 -0.9816  0.4451
   53CHL1    H6 6338  -0.188   3.476   9.980  0.8202 -0.5431  0.5493
   53CHL1    C7 6339  -0.160   3.452   9.753 -0.4608  0.2355  0.1518
   53CHL1   H7A 6340  -0.245   3.523   9.738  0.2024  1.0577  0.2541
   53CHL1   H7B 6341  -0.065   3.506   9.732  0.0699 -0.6864  0.1773
   53CHL1    C8 6342  -0.166   3.334   9.649  0.6651  0.2627  0.0307
   53CHL1    H8 6343  -0.266   3.289   9.669  0.3781  1.1118  0.5439
   53CHL1   C14 6344  -0.137   3.388   9.510  0.4158  0.2014  0.0909
   53CHL1   H14 6345  -0.028   3.411   9.511  0.2730  0.8672  1.4320
   53CHL1   C15 6346  -0.200   3.515   9.458  0.3721  0.0726 -0.1643
   53CHL1  H15A 6347  -0.309   3.519   9.477  0.5137  0.1222  0.6685
   53CHL1  H15B 6348  -0.155   3.606   9.501  2.3425 -0.6254 -0.6933
   53CHL1   C16 6349  -0.171   3.510   9.308 -0.3203 -0.0055 -0.1785
   53CHL1  H16A 6350  -0.262   3.535   9.249 -2.1363  0.5972  2.7541
   53CHL1  H16B 6351  -0.100   3.592   9.281 -1.6926  0.9390 -0.9822
   53CHL1   C17 6352  -0.103   3.366   9.277  0.5356 -0.9805 -0.1498
   53CHL1   H17 6353   0.007   3.384   9.277  0.0134  2.7194  1.0974
   53CHL1   C13 6354  -0.144   3.282   9.405 -0.8670  0.7467  0.4240
   53CHL1   C18 6355  -0.284   3.224   9.405  0.3209  0.0596  0.6379
   53CHL1  H18A 6356  -0.279   3.138   9.335 -0.4764  1.0651 -0.6715
   53CHL1  H18B 6357  -0.330   3.186   9.499 -0.4647  1.1007  0.6788
   53CHL1  H18C 6358  -0.344   3.306   9.362  2.4356  0.4749 -1.6555
   53CHL1   C12 6359  -0.039   3.168   9.441  0.6019  0.0302  0.1864
   53CHL1  H12A 6360  -0.058   3.079   9.378 -2.2460 -0.1784  1.2354
   53CHL1  H12B 6361   0.067   3.200   9.441  0.9567 -1.1320  0.2980
   53CHL1   C11 6362  -0.055   3.118   9.586  0.2715  0.3709  0.0208
   53CHL1  H11A 6363  -0.146   3.055   9.584  0.8425 -0.4435 -0.5293
   53CHL1  H11B 6364   0.038   3.060   9.601  0.1156 -0.0351 -0.5665
   53CHL1    C9 6365  -0.062   3.227   9.695 -0.7338 -0.0198 -0.4852
   53CHL1    H9 6366   0.039   3.272   9.700 -0.7336 -0.1175  0.4507
   53CHL1   C10 6367  -0.092   3.174   9.837  0.5641 -0.1183  0.7518
   53CHL1   C19 6368  -0.206   3.069   9.834  0.5166  0.1633 -0.1518
   53CHL1  H19A 6369  -0.248   3.046   9.935 -0.9724  0.6870 -0.6457
   53CHL1  H19B 6370  -0.287   3.104   9.767  0.3306 -0.0249 -0.0272
   53CHL1  H19C 6371  -0.173   2.973   9.787  0.5727 -0.0164  0.2491
   53CHL1    C1 6372   0.045   3.115   9.892 -0.6168  0.6528  0.0557
   53CHL1   H1A 6373   0.065   3.026   9.828 -0.0216  1.5095 -0.9611
   53CHL1   H1B 6374   0.128   3.189   9.886  1.8794 -1.7831  2.6840
   53CHL1    C2 6375   0.052   3.066  10.039  0.4564 -0.7304  0.3467
   53CHL1   H2A 6376   0.149   3.028  10.076 -0.2127 -0.4743  2.4629
   53CHL1   H2B 6377  -0.028   2.991  10.059  0.0215 -0.2994  0.2426
   53CHL1   C20 6378  -0.145   3.312   9.134  0.1457  0.6877  0.2841
   53CHL1   H20 6379  -0.252   3.282   9.129  0.7641 -1.6786  0.7161
   53CHL1   C21 6380  -0.056   3.191   9.103  0.2125  0.2606 -1.0190
   53CHL1  H21A 6381  -0.073   3.125   9.191 -2.4656  0.9442 -0.9706
   53CHL1  H21B 6382   0.048   3.230   9.104  0.2028  0.2756 -0.4544
   53CHL1  H21C 6383  -0.082   3.139   9.008  2.4906 -1.6146 -0.6460
   53CHL1   C22 6384  -0.118   3.418   9.020  0.3627  0.6861 -0.4888
   53CHL1  H22A 6385  -0.177   3.506   9.055  2.2667  1.0022  2.0167
   53CHL1  H22B 6386  -0.014   3.456   9.021 -0.1586  2.1702  2.1393
   53CHL1   C23 6387  -0.196   3.385   8.887 -0.0752 -0.1229 -0.2876
   53CHL1  H23A 6388  -0.144   3.304   8.831 -1.5136 -0.1693 -1.5986
   53CHL1  H23B 6389  -0.304   3.366   8.900 -0.1432 -1.2371 -2.2219
   53CHL1   C24 6390  -0.206   3.518   8.794  0.3222  0.4540 -0.2434
   53CHL1  H24A 6391  -0.265   3.600   8.840 -0.9348  0.4972 -1.8632
   53CHL1  H24B 6392  -0.098   3.535   8.776  0.4084  1.0252  0.7759
   53CHL1   C25 6393  -0.272   3.490   8.656 -0.0940 -0.4523 -0.0165
   53CHL1   H25 6394  -0.379   3.462   8.670  0.0918 -0.1217  2.2034
   53CHL1   C26 6395  -0.264   3.613   8.565  0.2951  0.2727 -0.0885
   53CHL1  H26A 6396  -0.321   3.594   8.472  2.8639 -1.4025 -1.3884
   53CHL1  H26B 6397  -0.299   3.700   8.624  0.0724  2.1461 -2.9311
   53CHL1  H26C 6398  -0.160   3.634   8.534  0.4671  0.6262  0.7033
   53CHL1   C27 6399  -0.222   3.370   8.572 -0.4558 -0.0245 -0.0337
   53CHL1  H27A 6400  -0.289   3.368   8.483  0.6296  0.7810 -0.8805
   53CHL1  H27B 6401  -0.118   3.385   8.536  0.1743  0.0780  1.8074
   53CHL1  H27C 6402  -0.241   3.272   8.619  0.6470 -0.9942 -1.5867
   54CHL1    C3 6403   0.031   4.357  10.063  0.2616  0.0056  0.1368
   54CHL1    H3 6404  -0.063   4.413  10.086 -0.8781 -1.1690 -1.4954
   54CHL1    O3 6405   0.089   4.314  10.186 -0.5621 -0.3741  0.4626
   54CHL1   H3' 6406   0.106   4.219  10.180 -2.2849 -0.6767  0.1978
   54CHL1    C4 6407   0.004   4.228   9.983 -0.4329  0.4232  1.5939
   54CHL1   H4A 6408   0.092   4.162   9.969  1.0132  2.6443 -0.1577
   54CHL1   H4B 6409  -0.061   4.170  10.051  0.3668 -2.4963 -0.0791
   54CHL1    C5 6410  -0.048   4.254   9.849  0.6699  0.5819  0.5107
   54CHL1    C6 6411  -0.166   4.205   9.809 -0.7536 -0.8697 -0.1768
   54CHL1    H6 6412  -0.222   4.139   9.876 -1.7481 -0.5766 -0.7153
   54CHL1    C7 6413  -0.210   4.235   9.667 -0.0674 -0.0546 -0.1490
   54CHL1   H7A 6414  -0.257   4.140   9.633  0.8394 -0.0705 -1.3872
   54CHL1   H7B 6415  -0.287   4.315   9.672 -0.5275 -0.6015  1.9223
   54CHL1    C8 6416  -0.106   4.280   9.574  0.5226 -0.1336 -0.9906
   54CHL1    H8 6417  -0.056   4.185   9.546  0.6288 -0.5836  0.6890
   54CHL1   C14 6418  -0.168   4.331   9.443  0.1737 -0.4399 -0.0367
   54CHL1   H14 6419  -0.225   4.419   9.480 -2.3079 -2.3090  0.7379
   54CHL1   C15 6420  -0.271   4.236   9.375  0.1440  0.0799 -0.3682
   54CHL1  H15A 6421  -0.233   4.132   9.386  0.5278  0.3341  0.8226
   54CHL1  H15B 6422  -0.371   4.241   9.423  0.5422 -0.6122  0.5549
   54CHL1   C16 6423  -0.286   4.295   9.235 -0.2322 -0.5057  0.7386
   54CHL1  H16A 6424  -0.249   4.230   9.153 -0.7699 -0.0715  0.1475
   54CHL1  H16B 6425  -0.389   4.333   9.218  0.2389 -0.0297 -1.2062
   54CHL1   C17 6426  -0.185   4.416   9.231  0.2194 -0.0638  0.6685
   54CHL1   H17 6427  -0.245   4.502   9.269 -0.4977 -1.5563  3.0599
   54CHL1   C13 6428  -0.080   4.380   9.337  0.0763  0.4955  0.4032
   54CHL1   C18 6429   0.013   4.276   9.287 -0.3003 -0.1414  0.8091
   54CHL1  H18A 6430   0.084   4.307   9.208  1.4496 -2.6410  1.3271
   54CHL1  H18B 6431   0.084   4.227   9.356 -0.8369  1.4938  2.5468
   54CHL1  H18C 6432  -0.036   4.189   9.238  1.4294 -2.3115  2.8250
   54CHL1   C12 6433  -0.004   4.501   9.393 -0.3508 -0.3463  0.0345
   54CHL1  H12A 6434   0.070   4.549   9.326  0.8989 -0.4282  1.3236
   54CHL1  H12B 6435  -0.069   4.587   9.419  0.4117 -0.0448  0.9347
   54CHL1   C11 6436   0.060   4.458   9.527  0.9212  0.1299  0.1410
   54CHL1  H11A 6437   0.141   4.388   9.499  0.7741  0.1643 -0.3744
   54CHL1  H11B 6438   0.101   4.554   9.565 -1.1006  1.3048 -0.5769
   54CHL1    C9 6439  -0.033   4.397   9.635  0.3333  1.1075  0.3681
   54CHL1    H9 6440  -0.108   4.474   9.661  0.7408  0.7840  2.5699
   54CHL1   C10 6441   0.033   4.353   9.761 -0.6958  0.3263  0.0926
   54CHL1   C19 6442   0.172   4.282   9.728 -0.1086 -0.5225 -0.0775
   54CHL1  H19A 6443   0.232   4.253   9.818 -0.4633  0.5841  0.5246
   54CHL1  H19B 6444   0.147   4.191   9.670 -1.4172  0.5241 -1.1963
   54CHL1  H19C 6445   0.233   4.351   9.666  0.0045 -0.8120 -0.2901
   54CHL1    C1 6446   0.076   4.475   9.851  0.6445  0.1301  0.1027
   54CHL1   H1A 6447   0.147   4.537   9.792 -1.1900  1.3428 -0.8495
   54CHL1   H1B 6448  -0.009   4.543   9.872  0.2684 -1.2146  3.1253
   54CHL1    C2 6449   0.123   4.449   9.996 -0.0393 -0.2421  0.3627
   54CHL1   H2A 6450   0.157   4.538  10.053 -3.2234  0.5312  1.1730
   54CHL1   H2B 6451   0.214   4.387   9.983 -0.1707  0.0575 -2.2295
   54CHL1   C20 6452  -0.142   4.445   9.087 -0.4904  0.3151  0.5914
   54CHL1   H20 6453  -0.100   4.348   9.051  1.1573  0.6909  1.4541
   54CHL1   C21 6454  -0.031   4.552   9.068  0.3555  0.6820  0.2042
   54CHL1  H21A 6455   0.067   4.502   9.084 -0.1806 -0.3838  0.2669
   54CHL1  H21B 6456  -0.037   4.649   9.121  0.3595  0.6723  0.2243
   54CHL1  H21C 6457  -0.029   4.565   8.958 -2.3508 -2.7164 -0.3489
   54CHL1   C22 6458  -0.269   4.479   9.002 -0.3820  0.9793  0.0880
   54CHL1  H22A 6459  -0.341   4.395   9.009  1.2605 -0.3699  1.1847
   54CHL1  H22B 6460  -0.304   4.577   9.040  2.8694  2.7181 -1.1879
   54CHL1   C23 6461  -0.254   4.501   8.843  0.4872  0.1486 -0.3116
   54CHL1  H23A 6462  -0.360   4.516   8.815  0.1804 -1.2870  0.0148
   54CHL1  H23B 6463  -0.199   4.596   8.825  0.1290  0.3288 -0.4503
   54CHL1   C24 6464  -0.193   4.379   8.776 -0.0188  0.0528  0.4136
   54CHL1  H24A 6465  -0.098   4.347   8.823  0.6873 -0.8287 -1.6040
   54CHL1  H24B 6466  -0.267   4.297   8.794 -0.7218  0.6454  0.2544
   54CHL1   C25 6467  -0.176   4.394   8.627 -0.2248  0.3977 -0.4185
   54CHL1   H25 6468  -0.102   4.470   8.594 -0.4166  1.5003  1.6035
   54CHL1   C26 6469  -0.131   4.257   8.567 -0.3011 -0.6659 -0.6953
   54CHL1  H26A 6470  -0.207   4.182   8.597 -0.4854  0.7621  2.6074
   54CHL1  H26B 6471  -0.120   4.257   8.456  1.3668 -0.7446 -0.5338
   54CHL1  H26C 6472  -0.031   4.229   8.605  0.7139  2.2491 -1.0844
   54CHL1   C27 6473  -0.311   4.427   8.561  0.1851  0.3278  0.1115
   54CHL1  H27A 6474  -0.349   4.526   8.593 -1.3196  0.2375 -1.3309
   54CHL1  H27B 6475  -0.313   4.420   8.450 -2.4580 -1.0837  0.1925
   54CHL1  H27C 6476  -0.378   4.354   8.612 -2.5173  1.8195 -1.2173
   55CHL1    C3 6477   0.430   1.702  10.134 -0.8437  0.0561 -0.1770
   55CHL1    H3 6478   0.484   1.798  10.130  0.2786 -0.6044 -1.1193
   55CHL1    O3 6479   0.420   1.660  10.265 -0.3303  0.1425 -0.5393
   55CHL1   H3' 6480   0.342   1.705  10.299 -0.7905 -1.6943  0.9223
   55CHL1    C4 6481   0.286   1.726  10.080 -0.1963  0.1189 -0.4432
   55CHL1   H4A 6482   0.228   1.636  10.107  2.5637 -1.3899  0.7269
   55CHL1   H4B 6483   0.256   1.815  10.138 -3.4908  0.0763 -1.9559
   55CHL1    C5 6484   0.273   1.737   9.927  0.6145  0.1878  0.0644
   55CHL1    C6 6485   0.219   1.838   9.867 -0.9097 -0.4138 -0.0001
   55CHL1    H6 6486   0.181   1.917   9.934  1.3347  1.7622 -1.1814
   55CHL1    C7 6487   0.210   1.849   9.718  0.1180 -0.3848 -0.0020
   55CHL1   H7A 6488   0.110   1.889   9.690  0.9740  1.5504 -0.3786
   55CHL1   H7B 6489   0.287   1.921   9.681  0.1177  0.4394  1.5388
   55CHL1    C8 6490   0.227   1.719   9.638 -0.0690 -0.0573 -0.3899
   55CHL1    H8 6491   0.134   1.659   9.647  0.5621 -0.8991  0.7076
   55CHL1   C14 6492   0.252   1.747   9.485 -0.2166 -0.0225 -0.0912
   55CHL1   H14 6493   0.350   1.799   9.478  1.0538 -2.3113  0.2887
   55CHL1   C15 6494   0.142   1.841   9.421 -0.3082  0.3228 -0.1966
   55CHL1  H15A 6495   0.035   1.824   9.445 -0.1587 -1.0081 -0.4219
   55CHL1  H15B 6496   0.168   1.945   9.452  0.3886 -0.9021  3.6277
   55CHL1   C16 6497   0.160   1.806   9.271 -0.1592  0.8275  0.0212
   55CHL1  H16A 6498   0.064   1.777   9.223 -0.2580  0.4318  0.4504
   55CHL1  H16B 6499   0.203   1.903   9.239 -1.0852  1.9452  1.9952
   55CHL1   C17 6500   0.264   1.687   9.260 -0.1771 -0.6691 -0.2991
   55CHL1   H17 6501   0.370   1.716   9.271  0.3234 -2.0362 -1.3638
   55CHL1   C13 6502   0.261   1.621   9.402  0.3698  0.0407  0.0005
   55CHL1   C18 6503   0.140   1.533   9.413  0.0641 -0.2573 -0.2401
   55CHL1  H18A 6504   0.166   1.428   9.386 -0.3640 -0.0134 -1.5920
   55CHL1  H18B 6505   0.094   1.523   9.514  0.7699 -3.7846 -0.1892
   55CHL1  H18C 6506   0.058   1.557   9.343 -0.3842 -0.9133  0.0599
   55CHL1   C12 6507   0.383   1.546   9.453  0.1072 -0.5696  0.1474
   55CHL1  H12A 6508   0.391   1.455   9.390 -0.3936  1.2972 -2.7608
   55CHL1  H12B 6509   0.482   1.593   9.433  1.5440 -2.9998  1.4144
   55CHL1   C11 6510   0.373   1.511   9.608 -0.1456  0.2492 -0.5487
   55CHL1  H11A 6511   0.295   1.434   9.627  1.6300 -1.1561  1.2126
   55CHL1  H11B 6512   0.467   1.460   9.638 -1.4354 -1.9548 -0.1678
   55CHL1    C9 6513   0.346   1.642   9.690  0.0016 -0.4915 -0.9622
   55CHL1    H9 6514   0.437   1.704   9.672  0.7360 -1.1886  0.2571
   55CHL1   C10 6515   0.342   1.625   9.846 -0.2746  0.6778 -0.5223
   55CHL1   C19 6516   0.253   1.495   9.880 -0.2647  0.1462 -0.1726
   55CHL1  H19A 6517   0.296   1.404   9.832  1.9044  0.6731  0.7144
   55CHL1  H19B 6518   0.254   1.473   9.989 -2.0064  0.2929 -0.1191
   55CHL1  H19C 6519   0.154   1.508   9.832 -0.7569  0.3177  0.8909
   55CHL1    C1 6520   0.484   1.592   9.902  0.1694  0.1797  0.6307
   55CHL1   H1A 6521   0.522   1.503   9.848  1.1902 -0.0575  1.7305
   55CHL1   H1B 6522   0.547   1.677   9.867 -0.3887  0.2500 -0.2138
   55CHL1    C2 6523   0.500   1.587  10.051  0.5358  0.3164  0.9062
   55CHL1   H2A 6524   0.608   1.585  10.078  0.7134  0.8149  0.2567
   55CHL1   H2B 6525   0.467   1.484  10.076  0.3766 -0.0235 -0.6315
   55CHL1   C20 6526   0.278   1.610   9.130  0.3179 -0.4199  0.0171
   55CHL1   H20 6527   0.325   1.511   9.147 -1.7516 -1.6320 -1.0687
   55CHL1   C21 6528   0.365   1.695   9.036  0.6148  0.8531  0.0490
   55CHL1  H21A 6529   0.326   1.798   9.022 -2.3902 -0.1845  0.5482
   55CHL1  H21B 6530   0.351   1.657   8.933 -0.7812  1.5450 -0.0212
   55CHL1  H21C 6531   0.473   1.683   9.061  0.1995 -0.8539  1.1717
   55CHL1   C22 6532   0.140   1.586   9.059 -0.4914  0.1496 -0.1996
   55CHL1  H22A 6533   0.067   1.556   9.137 -0.3704 -0.4311 -0.3017
   55CHL1  H22B 6534   0.098   1.681   9.020 -1.8351 -1.0444 -1.7403
   55CHL1   C23 6535   0.149   1.472   8.970 -0.0174 -0.1194  0.8317
   55CHL1  H23A 6536   0.232   1.497   8.900 -1.2338  0.7198 -0.3410
   55CHL1  H23B 6537   0.161   1.379   9.029 -1.0010 -1.6066 -1.2837
   55CHL1   C24 6538   0.017   1.442   8.890 -0.0756 -0.5054  0.0621
   55CHL1  H24A 6539  -0.068   1.431   8.961  1.5132  2.1277  2.4525
   55CHL1  H24B 6540  -0.007   1.528   8.824 -2.3868 -1.2058 -0.0601
   55CHL1   C25 6541   0.019   1.318   8.802  0.0611  1.5258  0.3632
   55CHL1   H25 6542   0.029   1.224   8.861  2.2163  0.9076 -0.9291
   55CHL1   C26 6543  -0.103   1.306   8.710 -0.4275 -0.6103 -0.0295
   55CHL1  H26A 6544  -0.088   1.363   8.616 -0.7118 -0.6024 -0.0721
   55CHL1  H26B 6545  -0.129   1.203   8.678  0.1702 -1.0374  0.8467
   55CHL1  H26C 6546  -0.190   1.349   8.764 -1.6266  0.3769 -2.6642
   55CHL1   C27 6547   0.137   1.306   8.712 -0.2835 -0.3479 -0.7697
   55CHL1  H27A 6548   0.155   1.409   8.673  1.9475 -0.3619  0.1468
   55CHL1  H27B 6549   0.222   1.278   8.777 -2.7803 -1.2398  2.2284
   55CHL1  H27C 6550   0.125   1.233   8.629  0.1844  0.6734 -1.7652
   56CHL1    C3 6551   4.796   0.310  10.076 -0.2612 -0.3137  0.2173
   56CHL1    H3 6552   4.731   0.400  10.072  0.2184  0.0906  1.4021
   56CHL1    O3 6553   4.859   0.307  10.199  0.0368  0.4262 -0.0096
   56CHL1   H3' 6554   4.888   0.216  10.199 -2.8084 -0.5229 -0.8865
   56CHL1    C4 6555   4.696   0.191  10.064 -1.4518  0.1150 -0.9649
   56CHL1   H4A 6556   4.749   0.096  10.083 -0.7241  0.9287  1.1744
   56CHL1   H4B 6557   4.617   0.194  10.142  1.0818  1.4585  1.6002
   56CHL1    C5 6558   4.634   0.171   9.923  0.1768 -0.7615 -0.0974
   56CHL1    C6 6559   4.507   0.146   9.901  0.8874  0.6328  1.1348
   56CHL1    H6 6560   4.438   0.142   9.987 -2.3052  0.3233 -1.3618
   56CHL1    C7 6561   4.443   0.132   9.768  0.0671  0.0001 -0.4578
   56CHL1   H7A 6562   4.374   0.045   9.768  0.3497 -0.2242 -0.4942
   56CHL1   H7B 6563   4.378   0.220   9.749  0.5314  0.4811  0.1653
   56CHL1    C8 6564   4.542   0.103   9.658 -0.8274 -0.6686 -0.6700
   56CHL1    H8 6565   4.568  -0.004   9.672  1.9444 -0.1336 -1.3458
   56CHL1   C14 6566   4.484   0.130   9.518 -0.5945  0.1835  0.3439
   56CHL1   H14 6567   4.454   0.237   9.519 -3.4739 -0.5859  0.9782
   56CHL1   C15 6568   4.352   0.050   9.477  0.1655 -0.5233 -0.3997
   56CHL1  H15A 6569   4.368  -0.048   9.527  1.4196  0.7002  1.6280
   56CHL1  H15B 6570   4.264   0.111   9.508  1.3279  2.4058 -2.5830
   56CHL1   C16 6571   4.361   0.047   9.331  0.2720 -0.0474 -1.0253
   56CHL1  H16A 6572   4.389  -0.057   9.303 -0.7778 -0.7783  0.5711
   56CHL1  H16B 6573   4.259   0.068   9.291  0.7587  3.4152 -0.5675
   56CHL1   C17 6574   4.474   0.139   9.285  0.3975  0.1906  0.8964
   56CHL1   H17 6575   4.425   0.239   9.283 -0.8067 -0.3869 -3.5940
   56CHL1   C13 6576   4.573   0.116   9.403 -0.0041 -0.3594 -0.5918
   56CHL1   C18 6577   4.635  -0.027   9.402 -0.2523 -0.7399 -0.0650
   56CHL1  H18A 6578   4.692  -0.039   9.497  1.1991 -0.4174 -0.8789
   56CHL1  H18B 6579   4.560  -0.108   9.408 -0.1002 -0.7776  1.5567
   56CHL1  H18C 6580   4.700  -0.024   9.312 -1.8125  0.6136 -1.1675
   56CHL1   C12 6581   4.691   0.209   9.421  0.5133  0.4513 -0.2228
   56CHL1  H12A 6582   4.763   0.201   9.337  0.0842 -0.6419 -0.4992
   56CHL1  H12B 6583   4.648   0.311   9.417 -0.8149 -0.0114  1.3212
   56CHL1   C11 6584   4.769   0.195   9.556  0.3268 -0.3758  0.2350
   56CHL1  H11A 6585   4.838   0.107   9.555  2.7743  1.4816  1.1466
   56CHL1  H11B 6586   4.838   0.281   9.574  1.0155 -0.9977  0.6307
   56CHL1    C9 6587   4.673   0.190   9.676  0.0088 -0.4547 -0.7633
   56CHL1    H9 6588   4.632   0.293   9.685 -1.0148 -0.9678  0.6477
   56CHL1   C10 6589   4.740   0.170   9.816  0.2897 -0.2708  0.2858
   56CHL1   C19 6590   4.822   0.039   9.818  0.1569  0.4428  0.5837
   56CHL1  H19A 6591   4.770  -0.049   9.775 -1.2675  0.8215  1.4909
   56CHL1  H19B 6592   4.920   0.041   9.767 -0.3476  1.4865 -0.3671
   56CHL1  H19C 6593   4.846   0.000   9.919  2.6569 -2.0955 -0.9242
   56CHL1    C1 6594   4.835   0.293   9.826  0.1300 -0.3181 -0.5912
   56CHL1   H1A 6595   4.914   0.273   9.752  1.1018  1.0016  0.0747
   56CHL1   H1B 6596   4.777   0.383   9.797 -0.2994 -0.2320  0.4778
   56CHL1    C2 6597   4.898   0.309   9.962 -0.1358 -0.1593 -0.0405
   56CHL1   H2A 6598   4.950   0.406   9.979  2.0412 -1.4105  0.7103
   56CHL1   H2B 6599   4.969   0.224   9.974  0.4173  0.1944 -0.7718
   56CHL1   C20 6600   4.519   0.120   9.141 -0.1541  0.1666 -0.3592
   56CHL1   H20 6601   4.571   0.023   9.125 -1.1800 -0.1788 -1.6865
   56CHL1   C21 6602   4.619   0.231   9.097 -0.3554 -0.1892  0.0611
   56CHL1  H21A 6603   4.659   0.206   8.997  2.1166 -1.3272  1.2687
   56CHL1  H21B 6604   4.704   0.238   9.169 -1.1898 -0.3841  1.0758
   56CHL1  H21C 6605   4.565   0.328   9.096 -1.2737 -0.7038 -1.8814
   56CHL1   C22 6606   4.388   0.112   9.051  0.1242  0.1422  0.1028
   56CHL1  H22A 6607   4.333   0.017   9.068  1.5732 -0.5599  0.9439
   56CHL1  H22B 6608   4.326   0.198   9.084 -1.7449 -0.9355 -0.5283
   56CHL1   C23 6609   4.405   0.144   8.903  0.1267 -0.6117  0.5406
   56CHL1  H23A 6610   4.303   0.161   8.864  2.0718  0.8155 -4.3543
   56CHL1  H23B 6611   4.473   0.229   8.883  2.3248 -2.6940 -1.1776
   56CHL1   C24 6612   4.468   0.025   8.822  0.2319  1.2453 -0.8032
   56CHL1  H24A 6613   4.572   0.006   8.854  0.0898  0.5351 -0.7418
   56CHL1  H24B 6614   4.410  -0.063   8.859 -0.1558  1.0604 -1.8275
   56CHL1   C25 6615   4.447   0.028   8.667  0.6672  0.0527 -0.6809
   56CHL1   H25 6616   4.339   0.009   8.649  0.6648  0.6398 -1.2868
   56CHL1   C26 6617   4.474   0.164   8.602 -0.9439  0.4271 -0.0342
   56CHL1  H26A 6618   4.415   0.242   8.655  3.3960  2.6369  1.7929
   56CHL1  H26B 6619   4.581   0.193   8.604 -0.9208  0.3151  0.6294
   56CHL1  H26C 6620   4.460   0.148   8.493 -3.0962 -1.3055  0.4654
   56CHL1   C27 6621   4.526  -0.081   8.596  0.5959 -0.0829 -0.3802
   56CHL1  H27A 6622   4.513  -0.092   8.486  0.6505 -0.3031 -0.3657
   56CHL1  H27B 6623   4.635  -0.072   8.614  0.3298  1.6241  0.5322
   56CHL1  H27C 6624   4.505  -0.186   8.623  0.0444 -0.3405 -1.7460
   57CHL1    C3 6625   0.818   2.672  10.167 -0.2661  1.4102 -0.9789
   57CHL1    H3 6626   0.759   2.764  10.146 -0.5237  1.6347  0.6051
   57CHL1    O3 6627   0.819   2.650  10.305  0.5337  0.1079  0.0230
   57CHL1   H3' 6628   0.881   2.713  10.343  1.6558  0.8261 -2.8984
   57CHL1    C4 6629   0.749   2.549  10.089  0.6909 -0.3505 -0.7540
   57CHL1   H4A 6630   0.806   2.459  10.121 -1.0452 -0.8414  1.0397
   57CHL1   H4B 6631   0.649   2.530  10.133  3.0456 -4.0273  3.4013
   57CHL1    C5 6632   0.753   2.559   9.937 -0.1620  0.3340 -0.1654
   57CHL1    C6 6633   0.640   2.552   9.865 -0.1517  0.8666 -0.2315
   57CHL1    H6 6634   0.541   2.531   9.908 -0.2631  1.1318 -0.3548
   57CHL1    C7 6635   0.636   2.566   9.720  0.1243 -0.1357  0.3582
   57CHL1   H7A 6636   0.588   2.475   9.677  0.6896 -1.0280  1.5751
   57CHL1   H7B 6637   0.587   2.662   9.693  0.9967 -0.4065 -2.3421
   57CHL1    C8 6638   0.769   2.572   9.645 -0.5309 -0.0966 -0.8086
   57CHL1    H8 6639   0.801   2.467   9.628  4.0102  0.9786  0.4216
   57CHL1   C14 6640   0.752   2.644   9.513 -0.4407  0.0267  0.2933
   57CHL1   H14 6641   0.745   2.751   9.542  2.0453  0.5134 -0.7845
   57CHL1   C15 6642   0.638   2.605   9.426  0.2472 -0.4106  0.4341
   57CHL1  H15A 6643   0.626   2.495   9.421  1.5582 -0.5485  0.2065
   57CHL1  H15B 6644   0.543   2.648   9.466  1.0524  1.9818 -0.1003
   57CHL1   C16 6645   0.676   2.668   9.288 -0.9057  0.1315 -0.0540
   57CHL1  H16A 6646   0.650   2.585   9.219 -0.2645  0.0035 -0.1446
   57CHL1  H16B 6647   0.621   2.763   9.274  0.4792  0.6078 -2.4558
   57CHL1   C17 6648   0.829   2.710   9.295 -0.1181  0.5986  0.7297
   57CHL1   H17 6649   0.832   2.817   9.325 -3.6268  1.0067 -0.1265
   57CHL1   C13 6650   0.883   2.634   9.423  0.1126  0.0628 -0.0720
   57CHL1   C18 6651   0.910   2.486   9.391 -0.5970 -0.6895 -0.2258
   57CHL1  H18A 6652   0.834   2.443   9.322 -0.5369 -1.2704  0.0671
   57CHL1  H18B 6653   1.005   2.486   9.334 -0.0560  0.4611  0.6648
   57CHL1  H18C 6654   0.920   2.427   9.485 -0.0880 -2.4871 -1.3801
   57CHL1   C12 6655   0.995   2.695   9.505  0.0975  0.2320  0.3686
   57CHL1  H12A 6656   1.084   2.673   9.442 -0.8824  1.5595 -1.5388
   57CHL1  H12B 6657   0.988   2.806   9.512 -0.1011  0.2432  0.0120
   57CHL1   C11 6658   1.015   2.643   9.647  0.1315 -0.0426 -0.1060
   57CHL1  H11A 6659   1.063   2.543   9.643  0.9334  0.3580 -0.4923
   57CHL1  H11B 6660   1.081   2.708   9.708 -0.4357  1.5460 -1.1562
   57CHL1    C9 6661   0.880   2.641   9.730  0.6185 -0.4430  0.6183
   57CHL1    H9 6662   0.853   2.748   9.740 -1.5356 -0.7172 -1.7825
   57CHL1   C10 6663   0.891   2.593   9.878 -0.1540 -0.2904  0.1998
   57CHL1   C19 6664   0.967   2.462   9.869  0.1454  0.5751 -0.1785
   57CHL1  H19A 6665   0.915   2.398   9.796 -0.3168  0.1215  0.5445
   57CHL1  H19B 6666   1.070   2.478   9.830  0.4794 -1.1674 -0.0386
   57CHL1  H19C 6667   0.983   2.417   9.969  0.5153  1.5846  0.2303
   57CHL1    C1 6668   0.964   2.694   9.964  0.2993 -0.3495  0.2942
   57CHL1   H1A 6669   1.068   2.700   9.925 -0.6688  0.6335 -2.2209
   57CHL1   H1B 6670   0.910   2.786   9.934 -0.8646 -0.6610  1.4009
   57CHL1    C2 6671   0.966   2.683  10.120  0.3742  0.0483  0.3139
   57CHL1   H2A 6672   1.019   2.767  10.172 -1.4194  1.8828 -0.7511
   57CHL1   H2B 6673   1.013   2.586  10.147  0.9585  0.1601 -0.3125
   57CHL1   C20 6674   0.894   2.700   9.164  0.5018 -0.1539 -0.3022
   57CHL1   H20 6675   0.881   2.598   9.123  1.4837 -0.3864 -0.0702
   57CHL1   C21 6676   1.043   2.727   9.171  0.4191  0.2315 -0.3863
   57CHL1  H21A 6677   1.097   2.732   9.074  1.8429 -2.1561  0.2512
   57CHL1  H21B 6678   1.092   2.648   9.232 -1.5374 -1.7653 -1.3281
   57CHL1  H21C 6679   1.059   2.830   9.211 -0.3837 -0.1774  1.0193
   57CHL1   C22 6680   0.818   2.799   9.068  0.1745  0.8150  0.0664
   57CHL1  H22A 6681   0.707   2.794   9.076  0.2483  0.1137  0.7599
   57CHL1  H22B 6682   0.839   2.903   9.102 -1.2203  1.0249  0.3123
   57CHL1   C23 6683   0.850   2.794   8.912  0.6945  0.2683  0.3372
   57CHL1  H23A 6684   0.960   2.800   8.895  0.7170  1.0939  0.7637
   57CHL1  H23B 6685   0.819   2.691   8.883 -0.6026 -0.1658  3.0927
   57CHL1   C24 6686   0.793   2.906   8.830  0.3896 -0.3277 -0.2349
   57CHL1  H24A 6687   0.682   2.906   8.836  0.4669 -0.7748  1.6351
   57CHL1  H24B 6688   0.823   2.997   8.885 -0.9596 -0.0107  0.0018
   57CHL1   C25 6689   0.829   2.904   8.681  0.1783  0.2427 -0.6297
   57CHL1   H25 6690   0.938   2.882   8.676  0.1392 -0.1236  0.0656
   57CHL1   C26 6691   0.745   2.804   8.600 -0.0225 -0.1322 -0.1971
   57CHL1  H26A 6692   0.773   2.812   8.492 -0.6557 -2.1181 -0.5314
   57CHL1  H26B 6693   0.765   2.701   8.636 -1.1461 -0.4976 -0.6043
   57CHL1  H26C 6694   0.643   2.845   8.612 -0.0682  0.4686 -2.3643
   57CHL1   C27 6695   0.817   3.043   8.616 -0.6039  0.0521 -0.2859
   57CHL1  H27A 6696   0.846   3.036   8.509 -1.1673 -2.0817 -0.3138
   57CHL1  H27B 6697   0.717   3.087   8.640 -0.2213 -0.8165  3.1532
   57CHL1  H27C 6698   0.891   3.114   8.658 -0.6857  1.2628 -2.1219
   58CHL1    C3 6699   3.242   1.204  10.168  0.0904  0.4059 -0.3240
   58CHL1    H3 6700   3.184   1.110  10.172  0.5620  0.1193 -0.1815
   58CHL1    O3 6701   3.302   1.215  10.299 -0.3369 -0.2136 -0.4250
   58CHL1   H3' 6702   3.353   1.295  10.286 -0.8875  0.1949 -0.0785
   58CHL1    C4 6703   3.342   1.193  10.057  1.1999 -0.3525  0.5666
   58CHL1   H4A 6704   3.415   1.274  10.074  0.3500  1.0506 -2.1981
   58CHL1   H4B 6705   3.390   1.093  10.072  0.3161 -1.0825 -1.3116
   58CHL1    C5 6706   3.285   1.204   9.915 -0.3230 -0.9762  0.1927
   58CHL1    C6 6707   3.298   1.106   9.833  0.0192 -0.3016  0.4678
   58CHL1    H6 6708   3.368   1.026   9.858  0.6934 -0.1290 -0.8068
   58CHL1    C7 6709   3.238   1.103   9.694  0.4308  0.9121 -0.9905
   58CHL1   H7A 6710   3.310   1.062   9.621  1.0075 -0.9556  0.5992
   58CHL1   H7B 6711   3.151   1.036   9.682  0.8515  0.2870 -0.5457
   58CHL1    C8 6712   3.192   1.242   9.653  0.5159  0.1508 -0.1215
   58CHL1    H8 6713   3.277   1.309   9.629  1.0346 -0.4266  0.0834
   58CHL1   C14 6714   3.105   1.230   9.524  0.1458 -0.2978  0.0737
   58CHL1   H14 6715   3.025   1.156   9.545 -0.5784  0.4424 -0.0328
   58CHL1   C15 6716   3.176   1.163   9.403  0.1832 -0.3393  0.6293
   58CHL1  H15A 6717   3.277   1.201   9.378 -2.2085  4.1095 -3.3888
   58CHL1  H15B 6718   3.172   1.053   9.417  1.0371 -0.3671  0.6245
   58CHL1   C16 6719   3.084   1.208   9.284  0.5390 -0.0340  0.0067
   58CHL1  H16A 6720   3.147   1.265   9.213  1.4812  1.7794  2.2403
   58CHL1  H16B 6721   3.028   1.133   9.223  2.2420 -0.4478 -1.0747
   58CHL1   C17 6722   2.992   1.322   9.341 -0.0703  0.8684  0.0400
   58CHL1   H17 6723   2.894   1.278   9.369 -0.5808  1.1227 -1.2873
   58CHL1   C13 6724   3.051   1.362   9.472 -0.0375 -1.0182 -0.3688
   58CHL1   C18 6725   3.168   1.461   9.446  0.2199  0.5257 -0.4609
   58CHL1  H18A 6726   3.144   1.560   9.401 -2.3044 -0.8206 -2.2110
   58CHL1  H18B 6727   3.215   1.488   9.543 -0.9925  1.4529 -0.1191
   58CHL1  H18C 6728   3.236   1.429   9.364 -1.9122 -4.3571 -0.5078
   58CHL1   C12 6729   2.957   1.419   9.583 -0.0276  0.0334  0.4286
   58CHL1  H12A 6730   2.914   1.518   9.556 -0.0444 -0.0305  0.2229
   58CHL1  H12B 6731   2.881   1.339   9.598  1.0752 -0.6517  2.4855
   58CHL1   C11 6732   3.044   1.444   9.706 -0.3671 -0.0751  0.3988
   58CHL1  H11A 6733   3.115   1.529   9.697  1.8468 -1.9752 -0.4293
   58CHL1  H11B 6734   2.980   1.478   9.791 -0.8530 -0.1962  0.0873
   58CHL1    C9 6735   3.108   1.318   9.758  0.3206  0.7859 -0.5353
   58CHL1    H9 6736   3.019   1.259   9.788  0.2356  1.9691  1.6476
   58CHL1   C10 6737   3.192   1.329   9.887 -0.0563 -0.4729  0.0463
   58CHL1   C19 6738   3.290   1.451   9.882  0.0973  0.6521  0.4154
   58CHL1  H19A 6739   3.364   1.447   9.799 -1.6053 -0.4171 -1.0857
   58CHL1  H19B 6740   3.225   1.539   9.866 -1.8551 -0.8824 -0.2579
   58CHL1  H19C 6741   3.339   1.468   9.980  1.9303  0.1978 -0.3983
   58CHL1    C1 6742   3.087   1.340  10.006 -0.0110 -0.7145 -0.1145
   58CHL1   H1A 6743   3.025   1.431   9.991  1.4660  0.1532 -1.0156
   58CHL1   H1B 6744   3.016   1.254  10.014 -1.4454  0.4809  0.2781
   58CHL1    C2 6745   3.145   1.329  10.151  0.1089  0.1892  0.4534
   58CHL1   H2A 6746   3.060   1.307  10.220  0.2528  0.8831  0.8645
   58CHL1   H2B 6747   3.195   1.427  10.166  0.0100  0.0363  1.9548
   58CHL1   C20 6748   2.957   1.421   9.231  0.1600  0.6357 -0.7495
   58CHL1   H20 6749   3.050   1.475   9.206  0.3010  1.0695  0.7127
   58CHL1   C21 6750   2.867   1.531   9.287 -0.6535 -0.6326 -0.9841
   58CHL1  H21A 6751   2.765   1.512   9.327 -0.1777 -1.0007  0.0913
   58CHL1  H21B 6752   2.842   1.606   9.210 -4.9613  2.1360  2.8376
   58CHL1  H21C 6753   2.925   1.575   9.371  1.7010 -3.0566 -1.2343
   58CHL1   C22 6754   2.891   1.366   9.100  0.1041  0.0544 -0.2302
   58CHL1  H22A 6755   2.843   1.269   9.125 -1.6009  1.1935  0.9472
   58CHL1  H22B 6756   2.806   1.432   9.073 -0.4398 -0.3848  0.4013
   58CHL1   C23 6757   2.981   1.361   8.978 -0.2484 -1.1896  0.0892
   58CHL1  H23A 6758   3.011   1.466   8.957  1.0635 -1.6023 -0.1889
   58CHL1  H23B 6759   3.075   1.310   9.008 -1.0091 -2.5985  0.1128
   58CHL1   C24 6760   2.922   1.288   8.853  0.1478 -0.0394  0.3856
   58CHL1  H24A 6761   2.912   1.182   8.885 -1.0441 -0.4925 -1.4332
   58CHL1  H24B 6762   2.817   1.316   8.834 -0.3039 -2.0933 -0.2581
   58CHL1   C25 6763   3.004   1.296   8.720  0.1613  0.5159  0.1195
   58CHL1   H25 6764   3.099   1.246   8.748  0.5101  0.4898 -1.0941
   58CHL1   C26 6765   2.944   1.203   8.610 -0.4665 -0.8441 -0.9748
   58CHL1  H26A 6766   2.886   1.114   8.643  0.3792 -1.5755 -1.4375
   58CHL1  H26B 6767   2.894   1.266   8.532 -1.8764 -1.6369 -0.7274
   58CHL1  H26C 6768   3.028   1.155   8.555 -0.6420 -3.1099  0.7072
   58CHL1   C27 6769   3.044   1.438   8.676 -0.1814  0.8987  0.0541
   58CHL1  H27A 6770   3.116   1.484   8.747  2.3791 -0.0404 -1.8492
   58CHL1  H27B 6771   3.077   1.429   8.570 -2.7331 -0.5300 -0.6681
   58CHL1  H27C 6772   2.952   1.500   8.672 -2.3445 -1.9646  2.4323
   59CHL1    C3 6773   2.861   0.295  10.353 -0.5830  0.1115 -0.3314
   59CHL1    H3 6774   2.906   0.202  10.313  2.2448  1.4558 -0.3961
   59CHL1    O3 6775   2.890   0.305  10.490 -0.4234 -0.2515 -0.2921
   59CHL1   H3' 6776   2.828   0.243  10.531 -0.1796  0.3539  1.0194
   59CHL1    C4 6777   2.935   0.414  10.279 -0.3848  0.2711  0.3217
   59CHL1   H4A 6778   2.895   0.505  10.328  3.1235  1.4638  1.1144
   59CHL1   H4B 6779   3.044   0.409  10.298 -0.1140  1.3685 -0.8590
   59CHL1    C5 6780   2.900   0.431  10.134 -0.1175  0.4142 -0.1230
   59CHL1    C6 6781   2.994   0.449  10.039  0.3006 -0.5831  0.5935
   59CHL1    H6 6782   3.097   0.441  10.077  0.2322  0.6092  1.0213
   59CHL1    C7 6783   2.971   0.474   9.896 -0.5678  0.0444 -0.4506
   59CHL1   H7A 6784   3.026   0.565   9.864 -2.7961  1.1596 -1.1925
   59CHL1   H7B 6785   3.012   0.390   9.835  0.0176  0.4001 -0.5472
   59CHL1    C8 6786   2.827   0.470   9.856  0.1814  0.2146 -0.5137
   59CHL1    H8 6787   2.793   0.575   9.864  1.0833  0.4629  0.1291
   59CHL1   C14 6788   2.811   0.416   9.712  0.5245  0.2163 -0.0959
   59CHL1   H14 6789   2.838   0.309   9.721 -3.7862 -0.8666  0.9766
   59CHL1   C15 6790   2.899   0.468   9.593 -0.1897  0.6670 -0.1255
   59CHL1  H15A 6791   2.896   0.579   9.590 -2.1618  0.5911 -3.2502
   59CHL1  H15B 6792   3.002   0.428   9.605 -0.4686 -0.3690 -1.1117
   59CHL1   C16 6793   2.827   0.422   9.464  0.0006  0.4936 -0.4978
   59CHL1  H16A 6794   2.822   0.514   9.402 -0.3662  0.3408 -0.6929
   59CHL1  H16B 6795   2.885   0.339   9.418  0.1387  1.6275 -2.4486
   59CHL1   C17 6796   2.690   0.359   9.517 -0.5112 -0.1063  0.4992
   59CHL1   H17 6797   2.711   0.253   9.543 -3.2466 -1.2081 -1.4758
   59CHL1   C13 6798   2.669   0.421   9.652  0.6763  0.6792 -0.3766
   59CHL1   C18 6799   2.608   0.564   9.636 -0.3277  0.2677 -0.9420
   59CHL1  H18A 6800   2.498   0.561   9.620 -0.2530  0.2758 -1.4530
   59CHL1  H18B 6801   2.624   0.623   9.729 -1.1905 -0.8959 -0.0484
   59CHL1  H18C 6802   2.655   0.617   9.551  1.4214 -0.0139 -0.1840
   59CHL1   C12 6803   2.578   0.339   9.749  0.1214 -0.4896  0.0963
   59CHL1  H12A 6804   2.469   0.339   9.726 -0.2919 -2.8728  1.8771
   59CHL1  H12B 6805   2.596   0.230   9.737 -2.4830 -0.9554  0.1557
   59CHL1   C11 6806   2.592   0.386   9.896  0.0328 -1.2465 -0.3093
   59CHL1  H11A 6807   2.574   0.495   9.899  0.7586 -1.1433  3.2635
   59CHL1  H11B 6808   2.517   0.335   9.961 -0.1586  1.2336  1.4757
   59CHL1    C9 6809   2.737   0.381   9.950 -0.0297  0.3583 -0.7406
   59CHL1    H9 6810   2.767   0.274   9.945  1.5105  0.5809  2.4139
   59CHL1   C10 6811   2.755   0.414  10.103  0.4127  0.5201  0.8464
   59CHL1   C19 6812   2.681   0.546  10.140  0.3479  0.2722 -0.2051
   59CHL1  H19A 6813   2.699   0.579  10.245  0.3653  1.0157 -0.4392
   59CHL1  H19B 6814   2.714   0.629  10.074  0.8467 -0.7156 -1.2108
   59CHL1  H19C 6815   2.571   0.534  10.129  0.5702 -0.4678 -1.6614
   59CHL1    C1 6816   2.689   0.300  10.182  0.0637  0.0594 -0.4789
   59CHL1   H1A 6817   2.579   0.300  10.166 -0.3423  1.0611  2.1614
   59CHL1   H1B 6818   2.737   0.209  10.141  0.6992  0.0811  0.2052
   59CHL1    C2 6819   2.704   0.296  10.330  0.5969  0.3129  0.2408
   59CHL1   H2A 6820   2.675   0.196  10.369  0.1250  0.1451 -0.5431
   59CHL1   H2B 6821   2.651   0.379  10.380  0.3451  0.5182 -0.3761
   59CHL1   C20 6822   2.580   0.367   9.407 -0.0180  0.0625 -0.7564
   59CHL1   H20 6823   2.525   0.463   9.403  0.9613  0.7043  0.6347
   59CHL1   C21 6824   2.479   0.249   9.430 -0.5161  0.2249  0.1769
   59CHL1  H21A 6825   2.529   0.150   9.423  1.4484  1.1770  0.5059
   59CHL1  H21B 6826   2.402   0.249   9.350 -0.4532 -2.1542  0.0895
   59CHL1  H21C 6827   2.418   0.262   9.522 -0.4586 -3.0165  0.7220
   59CHL1   C22 6828   2.641   0.345   9.266 -0.5935  1.0680  0.2853
   59CHL1  H22A 6829   2.715   0.423   9.242  1.6019 -1.1283 -0.3402
   59CHL1  H22B 6830   2.705   0.255   9.280 -1.0584  0.4952 -1.1459
   59CHL1   C23 6831   2.543   0.324   9.147  0.3357  0.3806 -0.1159
   59CHL1  H23A 6832   2.611   0.303   9.062 -1.3757  1.1902 -1.7285
   59CHL1  H23B 6833   2.501   0.222   9.156 -0.4265  0.3845 -3.1010
   59CHL1   C24 6834   2.446   0.442   9.129 -0.0202 -0.1779  0.3061
   59CHL1  H24A 6835   2.358   0.442   9.197 -0.4924 -1.8491 -0.2937
   59CHL1  H24B 6836   2.501   0.539   9.132 -0.8020  0.2277  3.4446
   59CHL1   C25 6837   2.365   0.435   8.995  0.1093  0.0695  0.1465
   59CHL1   H25 6838   2.328   0.538   8.972 -2.4913 -1.3224 -2.1440
   59CHL1   C26 6839   2.445   0.404   8.868  0.0788  0.0751 -0.5864
   59CHL1  H26A 6840   2.461   0.295   8.884  3.5331  0.5567 -0.4050
   59CHL1  H26B 6841   2.382   0.414   8.777 -0.1038  0.8215 -0.3772
   59CHL1  H26C 6842   2.545   0.452   8.856 -0.4971  1.2313 -0.8085
   59CHL1   C27 6843   2.256   0.334   9.013  0.0517 -0.1228  0.1650
   59CHL1  H27A 6844   2.180   0.366   9.087 -2.9445 -2.9736 -1.5607
   59CHL1  H27B 6845   2.217   0.332   8.909  1.3017 -0.6506 -0.3042
   59CHL1  H27C 6846   2.285   0.229   9.036 -1.1315  0.0515  2.6910
   60CHL1    C3 6847   2.217   6.019  10.295 -0.7204 -0.7018  0.1453
   60CHL1    H3 6848   2.160   5.926  10.276 -0.2255 -0.8659 -0.5761
   60CHL1    O3 6849   2.215   6.046  10.434  0.3699 -0.3533  0.5021
   60CHL1   H3' 6850   2.228   6.141  10.439 -1.0098 -0.1457  0.5178
   60CHL1    C4 6851   2.357   6.021  10.239  0.1385  0.1909 -0.2703
   60CHL1   H4A 6852   2.406   6.117  10.265  2.7791 -0.9374 -0.8786
   60CHL1   H4B 6853   2.421   5.943  10.285  0.4087 -0.7598 -2.2209
   60CHL1    C5 6854   2.361   6.004  10.086 -0.3390  0.6652  0.1760
   60CHL1    C6 6855   2.442   5.914  10.030 -0.8758  0.0393  0.2737
   60CHL1    H6 6856   2.503   5.860  10.105 -2.3199 -2.1706 -0.1146
   60CHL1    C7 6857   2.469   5.898   9.887 -0.5819 -0.5506  0.3144
   60CHL1   H7A 6858   2.579   5.898   9.876 -0.3776 -0.3472  2.2326
   60CHL1   H7B 6859   2.438   5.798   9.849 -0.1519 -0.6868  0.3216
   60CHL1    C8 6860   2.396   6.006   9.797  0.0162 -0.6081  0.3843
   60CHL1    H8 6861   2.451   6.102   9.794  0.7215 -1.0431 -2.7068
   60CHL1   C14 6862   2.372   5.963   9.653 -0.2790 -0.0118  0.1026
   60CHL1   H14 6863   2.299   5.880   9.668 -0.1854 -0.2737 -0.8579
   60CHL1   C15 6864   2.488   5.907   9.575  0.1467  0.2720  0.2687
   60CHL1  H15A 6865   2.580   5.967   9.583  0.7777 -0.2088 -2.6028
   60CHL1  H15B 6866   2.508   5.804   9.611  4.4181  1.5596  1.8443
   60CHL1   C16 6867   2.441   5.906   9.431 -0.2783  0.0000 -0.3430
   60CHL1  H16A 6868   2.510   5.963   9.365  1.0455 -1.7207 -0.4763
   60CHL1  H16B 6869   2.435   5.801   9.397 -0.8571 -0.4442  1.1033
   60CHL1   C17 6870   2.296   5.966   9.431  0.3094  0.7108 -0.3943
   60CHL1   H17 6871   2.222   5.884   9.445 -0.3506  1.3383 -0.2135
   60CHL1   C13 6872   2.303   6.057   9.558 -0.2270  0.4856 -0.3962
   60CHL1   C18 6873   2.387   6.178   9.527 -0.7304  0.6438 -0.4575
   60CHL1  H18A 6874   2.492   6.147   9.508 -1.5368 -1.8897 -1.0058
   60CHL1  H18B 6875   2.335   6.241   9.451  2.8022  0.8773 -2.7973
   60CHL1  H18C 6876   2.385   6.242   9.617 -2.1759  0.8951 -0.6659
   60CHL1   C12 6877   2.163   6.091   9.616 -0.6320  0.1939  0.2749
   60CHL1  H12A 6878   2.122   6.170   9.549 -0.2762  0.4419  0.3514
   60CHL1  H12B 6879   2.116   5.990   9.622 -0.5612  0.3353  4.1760
   60CHL1   C11 6880   2.178   6.136   9.761  0.6146 -0.4446 -0.6690
   60CHL1  H11A 6881   2.216   6.240   9.760  0.6003 -0.4410 -1.2685
   60CHL1  H11B 6882   2.074   6.147   9.800 -0.1346 -4.2176 -1.3903
   60CHL1    C9 6883   2.259   6.043   9.856 -0.4321  0.2616  0.0764
   60CHL1    H9 6884   2.212   5.943   9.854 -0.0204 -0.0078 -5.1131
   60CHL1   C10 6885   2.273   6.093  10.000  0.2823 -0.8817  0.2129
   60CHL1   C19 6886   2.344   6.231  10.004 -0.1554 -0.4617 -0.0168
   60CHL1  H19A 6887   2.289   6.299   9.936 -0.8353 -0.7062  0.2833
   60CHL1  H19B 6888   2.331   6.273  10.106 -0.1848  0.7511 -0.5121
   60CHL1  H19C 6889   2.447   6.229   9.961 -0.4597  1.7711 -0.9030
   60CHL1    C1 6890   2.134   6.109  10.067  0.1114  0.1905  0.5631
   60CHL1   H1A 6891   2.075   6.193  10.025 -0.3624 -1.0263 -1.2569
   60CHL1   H1B 6892   2.092   6.010  10.037 -2.0047  1.9270 -2.4815
   60CHL1    C2 6893   2.129   6.124  10.221  0.0994  0.0744  0.3244
   60CHL1   H2A 6894   2.029   6.123  10.269  1.1599 -0.7312  2.5901
   60CHL1   H2B 6895   2.167   6.226  10.244 -1.5798  0.6842  0.4905
   60CHL1   C20 6896   2.269   6.040   9.295  0.8871 -0.3659  0.5623
   60CHL1   H20 6897   2.318   6.140   9.287 -0.6103  0.5359  2.1928
   60CHL1   C21 6898   2.113   6.050   9.282 -0.4185 -0.2699 -0.3273
   60CHL1  H21A 6899   2.068   5.949   9.292 -0.5096 -0.2709 -0.7593
   60CHL1  H21B 6900   2.083   6.096   9.185 -1.1659 -3.9518 -1.9225
   60CHL1  H21C 6901   2.078   6.117   9.364  0.7428 -0.5310  0.3940
   60CHL1   C22 6902   2.319   5.961   9.170 -0.1659  0.4419  0.4050
   60CHL1  H22A 6903   2.414   5.905   9.176  0.7896  1.8728 -0.9653
   60CHL1  H22B 6904   2.239   5.885   9.154 -0.1192  0.1172  1.6891
   60CHL1   C23 6905   2.327   6.047   9.044 -0.4431 -0.1042 -0.3908
   60CHL1  H23A 6906   2.229   6.098   9.033 -0.6686  0.2670  2.9017
   60CHL1  H23B 6907   2.393   6.136   9.051  0.1215 -0.5496  0.0670
   60CHL1   C24 6908   2.350   5.978   8.915  0.2251 -0.1971 -0.0493
   60CHL1  H24A 6909   2.454   5.947   8.896  0.1123  0.4201 -1.7516
   60CHL1  H24B 6910   2.283   5.889   8.916  0.1311 -0.1421 -1.2162
   60CHL1   C25 6911   2.298   6.059   8.791 -0.0472  0.1340  0.5994
   60CHL1   H25 6912   2.200   6.106   8.812 -1.0208 -0.4851 -2.3214
   60CHL1   C26 6913   2.398   6.173   8.760  0.0215 -0.4620  0.3097
   60CHL1  H26A 6914   2.501   6.135   8.745 -0.3383 -0.5182 -2.1240
   60CHL1  H26B 6915   2.370   6.225   8.666  1.8293 -1.2615 -0.7003
   60CHL1  H26C 6916   2.397   6.255   8.835 -2.3841  0.8821 -1.1287
   60CHL1   C27 6917   2.290   5.953   8.675 -0.8147  1.0174 -0.3868
   60CHL1  H27A 6918   2.274   6.003   8.577  0.6696  1.7947 -0.2479
   60CHL1  H27B 6919   2.383   5.891   8.677 -0.5208  1.4181 -1.1491
   60CHL1  H27C 6920   2.209   5.879   8.691  0.1099 -0.1782 -1.1416
   61CHL1    C3 6921   6.179   5.883  10.205 -0.2914 -0.0462 -0.7041
   61CHL1    H3 6922   6.228   5.982  10.215 -0.0901  0.0576 -2.5378
   61CHL1    O3 6923   6.147   5.855  10.340 -0.1069  0.6824 -0.3150
   61CHL1   H3' 6924   6.215   5.804  10.386  1.4051  3.2248  0.3841
   61CHL1    C4 6925   6.064   5.891  10.103 -0.1359  0.2435 -0.3685
   61CHL1   H4A 6926   6.004   5.798  10.104  0.1431  0.0665 -0.1773
   61CHL1   H4B 6927   5.994   5.966  10.146  0.6347  0.6691  0.1582
   61CHL1    C5 6928   6.102   5.920   9.966  0.0774  0.8342  0.7799
   61CHL1    C6 6929   6.065   6.029   9.896  0.0404 -0.2415  0.4270
   61CHL1    H6 6930   5.989   6.099   9.935  1.8546  2.1783 -0.2555
   61CHL1    C7 6931   6.098   6.056   9.753 -0.3138 -0.7892  0.0560
   61CHL1   H7A 6932   6.003   6.084   9.702 -1.0742 -3.1192  0.1277
   61CHL1   H7B 6933   6.168   6.142   9.755  1.6271 -2.3606  0.8387
   61CHL1    C8 6934   6.167   5.936   9.678 -0.3225 -0.2149 -0.0269
   61CHL1    H8 6935   6.100   5.851   9.656 -0.3843 -0.0240 -0.5913
   61CHL1   C14 6936   6.244   5.990   9.562 -0.1677  0.3643 -0.4279
   61CHL1   H14 6937   6.321   6.053   9.611 -1.0588 -1.0860  2.9711
   61CHL1   C15 6938   6.161   6.070   9.461  0.4939 -0.6915  0.3402
   61CHL1  H15A 6939   6.059   6.032   9.439  0.1118  1.3629 -1.6150
   61CHL1  H15B 6940   6.159   6.171   9.507  2.4914 -1.4759  2.2576
   61CHL1   C16 6941   6.244   6.058   9.329  0.3012  0.3930 -0.4879
   61CHL1  H16A 6942   6.194   6.000   9.249 -0.2060  0.4979 -0.2496
   61CHL1  H16B 6943   6.270   6.157   9.286  1.0227  0.3921 -0.0592
   61CHL1   C17 6944   6.367   5.978   9.371  0.1743  0.6531 -0.3792
   61CHL1   H17 6945   6.432   6.047   9.430 -0.2540  1.0741 -0.4052
   61CHL1   C13 6946   6.322   5.886   9.485  0.0119 -0.0853 -0.6618
   61CHL1   C18 6947   6.219   5.772   9.438 -0.4825 -0.3581 -0.2950
   61CHL1  H18A 6948   6.268   5.701   9.368 -4.2749 -3.3991 -0.0460
   61CHL1  H18B 6949   6.202   5.717   9.534  0.6084  2.9889  1.9040
   61CHL1  H18C 6950   6.127   5.805   9.386 -1.2952 -0.7349  0.8864
   61CHL1   C12 6951   6.430   5.839   9.565  0.0241  0.6954  0.1135
   61CHL1  H12A 6952   6.483   5.759   9.508  1.6505  2.1157 -0.3875
   61CHL1  H12B 6953   6.499   5.925   9.577  1.3566 -0.0424 -1.9410
   61CHL1   C11 6954   6.382   5.788   9.701  0.3192  0.2361  0.3056
   61CHL1  H11A 6955   6.340   5.687   9.688  1.4244 -0.1591 -0.2083
   61CHL1  H11B 6956   6.470   5.781   9.770  1.6357 -0.5488 -1.4342
   61CHL1    C9 6957   6.273   5.879   9.773  0.7619 -0.4843  0.1579
   61CHL1    H9 6958   6.323   5.971   9.812 -0.4992  0.8403 -1.2876
   61CHL1   C10 6959   6.204   5.819   9.901 -0.8747 -0.0093 -0.0296
   61CHL1   C19 6960   6.136   5.679   9.889  0.6867 -0.5836  0.0124
   61CHL1  H19A 6961   6.078   5.661   9.982  0.8782 -1.4969 -0.0436
   61CHL1  H19B 6962   6.070   5.684   9.799 -0.1830 -0.5453  0.6463
   61CHL1  H19C 6963   6.203   5.593   9.868 -0.5402 -0.9809 -2.5199
   61CHL1    C1 6964   6.320   5.798  10.002  0.0610  0.1449  0.1475
   61CHL1   H1A 6965   6.371   5.705   9.967 -2.6530 -1.5530  0.5796
   61CHL1   H1B 6966   6.404   5.871  10.000  0.3222 -0.1649 -0.3287
   61CHL1    C2 6967   6.284   5.777  10.154  0.6445  0.3080 -0.0837
   61CHL1   H2A 6968   6.377   5.774  10.214  0.5508  0.8328  0.0864
   61CHL1   H2B 6969   6.232   5.680  10.169 -0.8477  1.1350  0.2355
   61CHL1   C20 6970   6.448   5.919   9.257 -0.3857 -0.4487  0.4322
   61CHL1   H20 6971   6.503   5.833   9.299  0.1318  0.5374  1.8049
   61CHL1   C21 6972   6.556   6.031   9.237  0.1449 -0.6552 -0.2788
   61CHL1  H21A 6973   6.640   6.017   9.309 -0.8848  1.0016  1.2618
   61CHL1  H21B 6974   6.523   6.137   9.248 -0.3892 -1.0469  2.1727
   61CHL1  H21C 6975   6.600   6.027   9.135 -1.4551 -0.0670 -1.0020
   61CHL1   C22 6976   6.381   5.888   9.127 -0.0418 -0.5053  0.3631
   61CHL1  H22A 6977   6.289   5.828   9.144  0.1553 -0.2954  2.2882
   61CHL1  H22B 6978   6.361   5.991   9.089  0.3142 -0.5439  0.0628
   61CHL1   C23 6979   6.481   5.824   9.025  0.5859  0.2305  0.4447
   61CHL1  H23A 6980   6.557   5.891   8.979  0.6397 -0.6592 -0.7896
   61CHL1  H23B 6981   6.539   5.753   9.088 -1.2757 -0.7439  1.0880
   61CHL1   C24 6982   6.417   5.740   8.912  0.4054 -0.2338  0.2442
   61CHL1  H24A 6983   6.501   5.714   8.844  0.3131 -1.4406  0.5758
   61CHL1  H24B 6984   6.370   5.653   8.963  0.4851  0.6808  1.9284
   61CHL1   C25 6985   6.322   5.815   8.822  0.4289  0.3179 -0.0682
   61CHL1   H25 6986   6.239   5.846   8.889  0.4146 -1.5321  0.8127
   61CHL1   C26 6987   6.378   5.943   8.769  0.5654 -0.3727  0.1280
   61CHL1  H26A 6988   6.467   5.920   8.707  0.0661 -1.0539 -0.3393
   61CHL1  H26B 6989   6.310   5.990   8.695  1.0699 -0.1296 -0.1836
   61CHL1  H26C 6990   6.415   6.008   8.851  1.4214  1.3548 -1.5723
   61CHL1   C27 6991   6.270   5.718   8.718 -0.4954 -0.0793  0.2836
   61CHL1  H27A 6992   6.198   5.769   8.650 -1.1712 -0.5861  0.6092
   61CHL1  H27B 6993   6.347   5.666   8.657 -2.4219 -0.3297 -2.0459
   61CHL1  H27C 6994   6.221   5.631   8.767 -0.9537  0.4442  0.7623
   62CHL1    C3 6995   0.514   2.224  10.069  0.2391 -0.2002 -0.2038
   62CHL1    H3 6996   0.497   2.333  10.056  0.2299  0.4179  4.2996
   62CHL1    O3 6997   0.480   2.208  10.207 -0.0480 -0.2376  0.0717
   62CHL1   H3' 6998   0.551   2.154  10.243  0.4222 -0.3929 -1.0682
   62CHL1    C4 6999   0.403   2.171   9.982 -0.3029 -0.5338 -0.2722
   62CHL1   H4A 7000   0.373   2.068  10.012 -0.6288 -0.1318  0.8045
   62CHL1   H4B 7001   0.310   2.230   9.996 -1.6261 -2.1501 -2.0601
   62CHL1    C5 7002   0.439   2.168   9.831 -0.6912 -0.6810  0.7697
   62CHL1    C6 7003   0.359   2.225   9.740  0.1717  0.3989  0.2408
   62CHL1    H6 7004   0.266   2.273   9.776  1.5155  2.6964  0.7065
   62CHL1    C7 7005   0.385   2.221   9.593 -0.7441  0.1038  0.1549
   62CHL1   H7A 7006   0.299   2.194   9.528 -0.3172 -0.9257  0.0078
   62CHL1   H7B 7007   0.423   2.321   9.562  1.5095  0.3325  3.4031
   62CHL1    C8 7008   0.503   2.127   9.559 -0.7446 -0.7886 -0.1087
   62CHL1    H8 7009   0.466   2.023   9.574 -0.9861 -0.5932  0.6777
   62CHL1   C14 7010   0.542   2.150   9.418 -0.3473  0.0819 -0.7374
   62CHL1   H14 7011   0.582   2.254   9.414  0.8571 -0.3979 -1.3513
   62CHL1   C15 7012   0.434   2.133   9.311 -0.1702 -0.5107  0.2300
   62CHL1  H15A 7013   0.356   2.057   9.332  0.6824 -1.1331  1.2429
   62CHL1  H15B 7014   0.381   2.227   9.288  0.3225 -0.1181  0.6826
   62CHL1   C16 7015   0.508   2.100   9.184  0.1088 -0.1412  0.3906
   62CHL1  H16A 7016   0.473   1.998   9.157 -0.4397 -1.0276  4.1903
   62CHL1  H16B 7017   0.485   2.171   9.101 -1.1444 -1.6369 -0.5705
   62CHL1   C17 7018   0.658   2.094   9.214 -0.0779  0.5611  0.1433
   62CHL1   H17 7019   0.694   2.197   9.195 -1.0053  0.5606 -1.7482
   62CHL1   C13 7020   0.660   2.059   9.370  1.1012  0.1428  0.0951
   62CHL1   C18 7021   0.633   1.907   9.394  0.3741  0.5001 -0.8362
   62CHL1  H18A 7022   0.623   1.880   9.501 -1.8996 -0.8847 -1.3755
   62CHL1  H18B 7023   0.547   1.877   9.330 -0.1865  1.0809 -0.3545
   62CHL1  H18C 7024   0.719   1.852   9.351  0.8550 -0.3714  1.1934
   62CHL1   C12 7025   0.782   2.104   9.458  0.7151 -0.0148  0.0935
   62CHL1  H12A 7026   0.872   2.042   9.438  1.8474  1.7017 -0.2737
   62CHL1  H12B 7027   0.813   2.210   9.442  0.7449 -0.1598 -0.8435
   62CHL1   C11 7028   0.757   2.083   9.610 -0.2400 -0.7014 -0.0790
   62CHL1  H11A 7029   0.755   1.974   9.631  2.9085 -0.6479  0.7390
   62CHL1  H11B 7030   0.841   2.134   9.662 -0.0798 -0.1274 -0.8912
   62CHL1    C9 7031   0.621   2.142   9.653 -0.9244  0.2356  0.0273
   62CHL1    H9 7032   0.633   2.252   9.664  2.0489 -0.1412  0.9573
   62CHL1   C10 7033   0.580   2.113   9.797 -0.2618  0.6301  0.8278
   62CHL1   C19 7034   0.578   1.954   9.825  0.6021 -0.4673  0.7943
   62CHL1  H19A 7035   0.681   1.914   9.822  0.8190  0.1428  0.0079
   62CHL1  H19B 7036   0.531   1.940   9.925 -0.8814 -1.3916 -0.0242
   62CHL1  H19C 7037   0.508   1.911   9.751 -0.0069  1.0520  0.4651
   62CHL1    C1 7038   0.683   2.172   9.895  0.1948  0.3650 -0.7263
   62CHL1   H1A 7039   0.782   2.125   9.878  1.6559  2.3656  1.8652
   62CHL1   H1B 7040   0.707   2.280   9.879  3.1257 -0.6518 -3.7573
   62CHL1    C2 7041   0.641   2.152  10.041 -0.3709 -0.3044 -0.2987
   62CHL1   H2A 7042   0.724   2.194  10.102 -0.7392 -0.7458  0.5066
   62CHL1   H2B 7043   0.634   2.046  10.073 -0.8621  0.0681  0.8460
   62CHL1   C20 7044   0.729   2.017   9.108 -0.3526 -0.3197 -0.3410
   62CHL1   H20 7045   0.706   1.912   9.138 -0.8710  0.8102  3.4464
   62CHL1   C21 7046   0.876   2.043   9.105 -0.6568  0.1927  0.1503
   62CHL1  H21A 7047   0.920   2.019   9.006 -1.0903  2.1538 -0.5410
   62CHL1  H21B 7048   0.931   1.993   9.188  0.5350 -0.1155 -0.8224
   62CHL1  H21C 7049   0.887   2.152   9.126  0.0711 -0.1994  1.9376
   62CHL1   C22 7050   0.690   2.054   8.965 -0.5141  0.8817  0.3087
   62CHL1  H22A 7051   0.757   1.999   8.896  0.3362 -0.3615  2.0974
   62CHL1  H22B 7052   0.586   2.020   8.946 -0.3719  1.1863 -1.0631
   62CHL1   C23 7053   0.690   2.202   8.927  0.0679  0.1943  0.3347
   62CHL1  H23A 7054   0.627   2.258   9.000 -1.8862  2.1312 -2.7152
   62CHL1  H23B 7055   0.787   2.255   8.942  0.1944  0.3358 -0.9264
   62CHL1   C24 7056   0.614   2.218   8.798  1.1029  0.1570 -0.3727
   62CHL1  H24A 7057   0.678   2.162   8.727  1.2816  0.0212 -0.1044
   62CHL1  H24B 7058   0.509   2.183   8.810  1.3267 -0.2665  0.3967
   62CHL1   C25 7059   0.600   2.367   8.753  0.0102 -0.6687  0.5589
   62CHL1   H25 7060   0.703   2.410   8.749 -0.0784 -0.6149 -1.8248
   62CHL1   C26 7061   0.541   2.379   8.607  0.1292 -0.0683  0.4127
   62CHL1  H26A 7062   0.437   2.341   8.600 -0.4729  1.6622 -0.4317
   62CHL1  H26B 7063   0.531   2.484   8.572 -1.8388 -1.0322 -2.0769
   62CHL1  H26C 7064   0.615   2.336   8.535  1.7168  3.0730  0.0500
   62CHL1   C27 7065   0.520   2.448   8.854 -0.1448 -0.3900  0.2273
   62CHL1  H27A 7066   0.419   2.404   8.871 -0.8393  1.0682 -0.0128
   62CHL1  H27B 7067   0.565   2.462   8.954 -1.9498  0.6077  0.9318
   62CHL1  H27C 7068   0.514   2.549   8.807 -1.3765 -0.6264 -0.1412
   63CHL1    C3 7069   1.731   3.664  10.360 -0.5229 -0.4302 -0.9915
   63CHL1    H3 7070   1.633   3.671  10.411  0.0129 -1.7813  0.2751
   63CHL1    O3 7071   1.819   3.606  10.450  0.2242 -0.0043  0.4952
   63CHL1   H3' 7072   1.857   3.680  10.497 -1.3666  1.2311 -0.0793
   63CHL1    C4 7073   1.727   3.565  10.237 -0.1008 -0.1570 -0.8846
   63CHL1   H4A 7074   1.833   3.554  10.205  0.7986  1.9016  1.2520
   63CHL1   H4B 7075   1.694   3.466  10.275 -0.7899  0.5736  0.4376
   63CHL1    C5 7076   1.638   3.606  10.119 -0.9347 -0.7720 -0.2241
   63CHL1    C6 7077   1.539   3.536  10.064  0.3679 -0.1285  0.2193
   63CHL1    H6 7078   1.523   3.437  10.109 -1.6961  1.6265  3.5005
   63CHL1    C7 7079   1.452   3.576   9.946 -0.1055  0.0402  0.1737
   63CHL1   H7A 7080   1.423   3.501   9.869  0.8026  0.1862 -0.3176
   63CHL1   H7B 7081   1.355   3.608   9.989  0.0436 -0.5233  0.9325
   63CHL1    C8 7082   1.526   3.695   9.867 -1.2294 -0.5355 -0.0806
   63CHL1    H8 7083   1.612   3.644   9.818 -0.6190  0.1831  0.2233
   63CHL1   C14 7084   1.435   3.748   9.765 -0.2031  0.3681 -0.2956
   63CHL1   H14 7085   1.350   3.795   9.820 -0.4578 -0.3927 -0.0371
   63CHL1   C15 7086   1.404   3.651   9.652 -0.7784  0.0737 -0.2594
   63CHL1  H15A 7087   1.498   3.594   9.634 -0.9217  0.1123 -1.1278
   63CHL1  H15B 7088   1.314   3.594   9.684 -1.0175  0.1834 -0.7414
   63CHL1   C16 7089   1.373   3.739   9.524  0.4904 -0.1811  0.2347
   63CHL1  H16A 7090   1.423   3.705   9.430  0.8736  1.5750 -0.2215
   63CHL1  H16B 7091   1.263   3.745   9.511  0.7288  0.4833 -1.7292
   63CHL1   C17 7092   1.418   3.883   9.571 -0.5027  0.1928  0.7592
   63CHL1   H17 7093   1.332   3.944   9.606 -1.6544 -0.8594 -0.2064
   63CHL1   C13 7094   1.511   3.859   9.690 -0.7671 -0.6507 -0.1312
   63CHL1   C18 7095   1.654   3.813   9.629  0.1957 -0.2401  0.4187
   63CHL1  H18A 7096   1.632   3.719   9.574 -0.2487 -0.8860  1.6815
   63CHL1  H18B 7097   1.699   3.898   9.574  0.7731  0.5556  2.0997
   63CHL1  H18C 7098   1.719   3.779   9.712 -1.1714  1.6719  2.3422
   63CHL1   C12 7099   1.523   3.972   9.793 -0.0726 -0.5154 -0.1819
   63CHL1  H12A 7100   1.571   4.063   9.751 -1.3975  0.3175  0.0909
   63CHL1  H12B 7101   1.421   3.987   9.833 -0.8023 -2.6593 -1.1360
   63CHL1   C11 7102   1.606   3.927   9.911  0.7438  0.4465 -0.6805
   63CHL1  H11A 7103   1.708   3.917   9.869  1.0247 -0.4553  0.2084
   63CHL1  H11B 7104   1.614   4.007   9.988  0.9167  1.2267 -1.5032
   63CHL1    C9 7105   1.565   3.797   9.974 -0.1203 -0.4009  0.9647
   63CHL1    H9 7106   1.475   3.800  10.038 -0.8818 -0.1627 -0.1106
   63CHL1   C10 7107   1.666   3.745  10.075 -0.3154  0.0914  0.2236
   63CHL1   C19 7108   1.808   3.742  10.013  0.1206 -0.0489 -0.0114
   63CHL1  H19A 7109   1.855   3.843  10.005  0.5858 -0.2432  0.2722
   63CHL1  H19B 7110   1.883   3.672  10.055  2.1332  0.8939 -1.8752
   63CHL1  H19C 7111   1.797   3.711   9.907 -1.0631  1.6315 -0.4186
   63CHL1    C1 7112   1.669   3.839  10.195  0.2121  0.7376 -0.2091
   63CHL1   H1A 7113   1.702   3.937  10.155 -0.1717  0.5297 -1.0672
   63CHL1   H1B 7114   1.566   3.858  10.233 -0.5175 -2.3105 -0.5137
   63CHL1    C2 7115   1.765   3.798  10.305 -0.2692  0.0925 -0.6226
   63CHL1   H2A 7116   1.760   3.880  10.381  0.1161  0.3555 -0.8747
   63CHL1   H2B 7117   1.868   3.782  10.268  0.4798  4.0460 -0.4846
   63CHL1   C20 7118   1.469   3.969   9.449  0.0488  0.7888 -1.0685
   63CHL1   H20 7119   1.557   3.911   9.414  0.5221  0.4343  0.6903
   63CHL1   C21 7120   1.503   4.108   9.490  0.0984  0.6130 -0.3297
   63CHL1  H21A 7121   1.523   4.172   9.402 -0.5400 -1.1794 -1.8245
   63CHL1  H21B 7122   1.596   4.105   9.550 -0.1118 -0.6268 -0.0471
   63CHL1  H21C 7123   1.425   4.150   9.557 -0.4772 -2.1022  0.7630
   63CHL1   C22 7124   1.369   3.969   9.335 -0.1522 -0.6747  0.1322
   63CHL1  H22A 7125   1.338   3.864   9.318  1.8978 -0.7246 -3.7476
   63CHL1  H22B 7126   1.276   4.022   9.366  1.2240  2.5526 -1.0048
   63CHL1   C23 7127   1.416   4.037   9.200 -0.4270  0.0342  0.4266
   63CHL1  H23A 7128   1.431   4.146   9.216 -0.3467  0.0684  0.1244
   63CHL1  H23B 7129   1.509   3.991   9.161 -1.5910  0.1326 -2.6116
   63CHL1   C24 7130   1.305   4.025   9.090 -0.3822 -0.7534  0.1533
   63CHL1  H24A 7131   1.279   3.918   9.076 -1.5130 -0.8386  2.6602
   63CHL1  H24B 7132   1.214   4.063   9.140  0.1497 -1.0450  1.3654
   63CHL1   C25 7133   1.328   4.098   8.959  0.8523 -0.1965 -0.4323
   63CHL1   H25 7134   1.353   4.203   8.986  0.2060  0.0330 -0.7110
   63CHL1   C26 7135   1.457   4.050   8.894 -0.6395  0.2592  0.0974
   63CHL1  H26A 7136   1.464   3.942   8.868 -2.5304 -0.1625  1.1870
   63CHL1  H26B 7137   1.487   4.120   8.814 -1.6306 -0.5974 -1.0372
   63CHL1  H26C 7138   1.536   4.055   8.972 -1.7359  1.3758  1.1563
   63CHL1   C27 7139   1.212   4.091   8.865  0.0421  0.3489  0.4841
   63CHL1  H27A 7140   1.233   4.146   8.770  1.2573 -2.0479 -0.6734
   63CHL1  H27B 7141   1.188   3.984   8.846  1.0639  0.4938 -1.7933
   63CHL1  H27C 7142   1.117   4.131   8.907 -2.5496 -0.8840 -3.8446
   64CHL1    C3 7143   1.190   3.090  10.124  0.5922  0.4361 -0.2587
   64CHL1    H3 7144   1.149   2.987  10.123  0.0886  0.6092  1.4797
   64CHL1    O3 7145   1.268   3.122  10.238 -0.2959  0.2059  0.4967
   64CHL1   H3' 7146   1.219   3.099  10.317 -0.2662 -1.3624  0.0744
   64CHL1    C4 7147   1.288   3.089   9.998  0.0747  0.6409 -0.0425
   64CHL1   H4A 7148   1.358   3.175  10.011  1.1251 -0.4460  1.7241
   64CHL1   H4B 7149   1.346   2.995  10.009  2.5099  2.2922  1.8749
   64CHL1    C5 7150   1.206   3.098   9.872 -0.7425  1.2460  0.3003
   64CHL1    C6 7151   1.242   3.012   9.773  0.0535 -0.1464  0.0865
   64CHL1    H6 7152   1.325   2.941   9.792  1.7327  1.7268 -0.0840
   64CHL1    C7 7153   1.187   3.026   9.633 -0.9478 -0.0722 -0.5197
   64CHL1   H7A 7154   1.269   3.002   9.562 -1.1299 -2.5245  0.0395
   64CHL1   H7B 7155   1.109   2.947   9.620  1.2461 -2.5527  0.8821
   64CHL1    C8 7156   1.121   3.164   9.606  0.6831  0.6510 -0.0868
   64CHL1    H8 7157   1.197   3.245   9.601  1.8518 -0.4979 -1.2019
   64CHL1   C14 7158   1.043   3.158   9.479 -0.1298  0.1709  1.1768
   64CHL1   H14 7159   0.963   3.089   9.513  0.7143 -0.5572  1.7324
   64CHL1   C15 7160   1.119   3.113   9.353 -0.7461 -0.1276  0.1009
   64CHL1  H15A 7161   1.220   3.159   9.350 -0.9949  0.5804  1.9893
   64CHL1  H15B 7162   1.129   3.003   9.353  3.3262  0.1858 -0.0303
   64CHL1   C16 7163   1.028   3.155   9.244  0.2213  0.2097  0.0324
   64CHL1  H16A 7164   1.081   3.212   9.164  3.2930  0.6208  2.2967
   64CHL1  H16B 7165   0.972   3.076   9.189 -0.4208  0.6079  0.1032
   64CHL1   C17 7166   0.917   3.242   9.305 -0.9846  0.1365 -0.2208
   64CHL1   H17 7167   0.827   3.176   9.312  0.6040 -2.0048  0.6115
   64CHL1   C13 7168   0.966   3.281   9.442 -0.5060 -0.2851 -0.0979
   64CHL1   C18 7169   1.051   3.406   9.433 -0.5700 -0.7122  0.8306
   64CHL1  H18A 7170   0.987   3.497   9.431  0.1088 -0.2137  1.6269
   64CHL1  H18B 7171   1.122   3.416   9.517 -2.0347 -0.6777  2.0894
   64CHL1  H18C 7172   1.113   3.410   9.341 -0.5387 -0.7957  0.8475
   64CHL1   C12 7173   0.859   3.298   9.551  0.0813  0.6046  0.5626
   64CHL1  H12A 7174   0.811   3.398   9.544  1.0004  0.9766 -0.5333
   64CHL1  H12B 7175   0.788   3.213   9.543  0.9880 -0.3717  2.4781
   64CHL1   C11 7176   0.930   3.308   9.688 -0.4850  0.2482 -0.1027
   64CHL1  H11A 7177   0.972   3.409   9.706 -0.0904  0.0307  0.2172
   64CHL1  H11B 7178   0.850   3.307   9.764 -0.0823  0.9388  0.3335
   64CHL1    C9 7179   1.030   3.194   9.724  0.0006  0.0299  0.2783
   64CHL1    H9 7180   0.964   3.104   9.723  1.0735 -0.7666  1.0139
   64CHL1   C10 7181   1.103   3.213   9.857 -0.1296  0.1896  0.7452
   64CHL1   C19 7182   1.168   3.354   9.862 -0.0915  0.2111  0.6846
   64CHL1  H19A 7183   1.090   3.432   9.856  0.4771  0.7008 -0.6449
   64CHL1  H19B 7184   1.227   3.360   9.956  1.7017  0.1819 -0.4064
   64CHL1  H19C 7185   1.231   3.366   9.771  1.7555 -1.4772  1.7007
   64CHL1    C1 7186   1.008   3.199   9.975  0.3388  0.0961  0.7855
   64CHL1   H1A 7187   0.931   3.279   9.980  0.4462  0.3989 -1.9753
   64CHL1   H1B 7188   0.946   3.108   9.963  1.3742 -0.6174  0.8112
   64CHL1    C2 7189   1.084   3.192  10.106  0.5635 -0.1871 -0.3679
   64CHL1   H2A 7190   1.010   3.172  10.186  0.2145 -1.6323 -1.0309
   64CHL1   H2B 7191   1.127   3.293  10.118  0.4083 -0.0811 -0.6918
   64CHL1   C20 7192   0.882   3.362   9.206  0.1319 -0.2392  0.0714
   64CHL1   H20 7193   0.962   3.438   9.210  1.4991 -1.7679  3.2274
   64CHL1   C21 7194   0.752   3.432   9.260  1.0484  0.0574  0.7203
   64CHL1  H21A 7195   0.714   3.503   9.185 -0.9219 -1.8972 -0.1884
   64CHL1  H21B 7196   0.787   3.495   9.345  0.8457 -0.0802  0.9059
   64CHL1  H21C 7197   0.669   3.361   9.280  2.6751 -2.6685 -1.7220
   64CHL1   C22 7198   0.868   3.331   9.048 -0.1242 -0.5328 -0.4017
   64CHL1  H22A 7199   0.954   3.270   9.012  0.1291 -0.3334 -0.1321
   64CHL1  H22B 7200   0.772   3.278   9.029 -0.9971  1.1999 -0.8959
   64CHL1   C23 7201   0.860   3.458   8.949  0.3999  0.4374 -0.0474
   64CHL1  H23A 7202   0.774   3.521   8.981 -0.3906 -0.7816  0.2444
   64CHL1  H23B 7203   0.954   3.510   8.978  1.0074 -0.8906  0.4449
   64CHL1   C24 7204   0.849   3.411   8.803 -0.3342  0.0285  0.2542
   64CHL1  H24A 7205   0.947   3.369   8.773 -1.3677 -0.4439 -2.5606
   64CHL1  H24B 7206   0.780   3.324   8.790 -0.1134 -0.0495 -0.4041
   64CHL1   C25 7207   0.827   3.515   8.697  0.4487  0.0134  0.3816
   64CHL1   H25 7208   0.731   3.568   8.720  0.1623 -0.7243  0.9068
   64CHL1   C26 7209   0.942   3.624   8.699  0.4342 -0.2281 -0.4860
   64CHL1  H26A 7210   1.044   3.580   8.703  0.2228 -0.6432  0.5416
   64CHL1  H26B 7211   0.927   3.704   8.623 -1.7444 -0.3925 -0.2642
   64CHL1  H26C 7212   0.933   3.676   8.797  0.3681  0.9349 -1.1041
   64CHL1   C27 7213   0.834   3.444   8.555 -0.5336  0.7986  0.0650
   64CHL1  H27A 7214   0.782   3.513   8.486 -1.2186 -0.9414 -1.1804
   64CHL1  H27B 7215   0.940   3.425   8.527 -0.9766  1.1642 -1.9083
   64CHL1  H27C 7216   0.782   3.346   8.562  1.9267 -0.5774 -0.3900
   65CHL1    C3 7217   3.535   0.481  10.371  0.3223 -0.6026 -0.5426
   65CHL1    H3 7218   3.512   0.376  10.346  0.4914 -0.9230  0.6219
   65CHL1    O3 7219   3.575   0.489  10.509 -0.0604 -0.5635 -0.1671
   65CHL1   H3' 7220   3.637   0.563  10.512  0.6519 -1.0812 -1.7372
   65CHL1    C4 7221   3.653   0.534  10.288  0.3396 -0.4963  0.4266
   65CHL1   H4A 7222   3.682   0.634  10.326  0.1825  1.1414 -3.5580
   65CHL1   H4B 7223   3.737   0.465  10.308  0.0717 -0.4334  1.7985
   65CHL1    C5 7224   3.614   0.540  10.140 -0.0862 -0.3429  0.1173
   65CHL1    C6 7225   3.683   0.472  10.043  0.4930 -0.7697 -0.0525
   65CHL1    H6 7226   3.774   0.418  10.074  0.6802 -0.1704  0.4582
   65CHL1    C7 7227   3.642   0.484   9.894 -0.5555 -0.1898 -0.4458
   65CHL1   H7A 7228   3.737   0.491   9.836 -0.5398  1.0199 -0.2971
   65CHL1   H7B 7229   3.596   0.387   9.868 -0.0834 -1.0818  1.9355
   65CHL1    C8 7230   3.550   0.599   9.852  0.7356 -0.2358 -0.7122
   65CHL1    H8 7231   3.603   0.697   9.855 -1.3811  0.9797 -1.5759
   65CHL1   C14 7232   3.488   0.576   9.711  0.2416 -0.6941 -0.5694
   65CHL1   H14 7233   3.429   0.483   9.721  0.8404 -1.0687 -0.5012
   65CHL1   C15 7234   3.569   0.537   9.588  0.3091  0.4461 -0.4403
   65CHL1  H15A 7235   3.657   0.604   9.584 -1.4148  2.6878 -2.7383
   65CHL1  H15B 7236   3.597   0.430   9.590 -1.2814  0.0136 -0.4409
   65CHL1   C16 7237   3.474   0.569   9.472  0.1312  0.5427  0.6750
   65CHL1  H16A 7238   3.525   0.653   9.419  4.4061 -1.1967  1.8880
   65CHL1  H16B 7239   3.447   0.478   9.414 -1.0930  1.6753 -0.5711
   65CHL1   C17 7240   3.347   0.631   9.532  0.2362 -0.3009  0.9367
   65CHL1   H17 7241   3.281   0.544   9.548 -1.2052  0.1758 -2.0465
   65CHL1   C13 7242   3.388   0.686   9.668 -0.3119 -0.2911  0.2538
   65CHL1   C18 7243   3.466   0.818   9.660 -0.1224 -0.1831  0.3826
   65CHL1  H18A 7244   3.565   0.797   9.615 -0.1189 -1.5692  1.0020
   65CHL1  H18B 7245   3.406   0.890   9.601 -0.7812 -0.9244  0.1355
   65CHL1  H18C 7246   3.502   0.854   9.759  2.2908 -0.5813 -0.3236
   65CHL1   C12 7247   3.275   0.695   9.774  0.4426  0.8380  0.5583
   65CHL1  H12A 7248   3.210   0.783   9.750  1.5966  1.0867 -1.8691
   65CHL1  H12B 7249   3.208   0.606   9.771  0.9217  0.4520  1.2769
   65CHL1   C11 7250   3.331   0.703   9.916  0.3668  0.1777  0.3942
   65CHL1  H11A 7251   3.359   0.811   9.923 -0.2873  0.4127 -0.5862
   65CHL1  H11B 7252   3.248   0.682   9.987 -1.6811  2.4839 -1.1994
   65CHL1    C9 7253   3.441   0.604   9.960  0.1153 -1.2443 -0.2881
   65CHL1    H9 7254   3.383   0.510   9.949 -0.1330 -1.1053 -0.1884
   65CHL1   C10 7255   3.486   0.619  10.114  0.4021 -0.1750 -0.4767
   65CHL1   C19 7256   3.497   0.771  10.145 -0.7805  0.3149 -0.0083
   65CHL1  H19A 7257   3.536   0.797  10.246 -0.3560  1.4096 -0.4477
   65CHL1  H19B 7258   3.565   0.816  10.069 -1.9809  0.0836 -1.2406
   65CHL1  H19C 7259   3.402   0.826  10.128  0.3939  3.6870  3.5359
   65CHL1    C1 7260   3.371   0.569  10.201 -0.3066  0.1544  0.2566
   65CHL1   H1A 7261   3.281   0.632  10.188  0.3782  0.8804 -1.1200
   65CHL1   H1B 7262   3.340   0.466  10.173  0.2554 -0.0896  0.5334
   65CHL1    C2 7263   3.407   0.559  10.347 -0.1193  0.3042  0.0488
   65CHL1   H2A 7264   3.331   0.514  10.415  0.1523 -0.6575 -0.2770
   65CHL1   H2B 7265   3.417   0.661  10.389 -2.0937  0.7119 -0.4039
   65CHL1   C20 7266   3.283   0.725   9.431 -0.1372  0.7796  0.6314
   65CHL1   H20 7267   3.349   0.813   9.412  2.7055 -1.1790  1.1926
   65CHL1   C21 7268   3.141   0.780   9.481  0.4926  0.0232  0.1215
   65CHL1  H21A 7269   3.158   0.874   9.538  2.2848 -0.3860  0.3055
   65CHL1  H21B 7270   3.092   0.701   9.542  0.8085 -0.4280 -0.2027
   65CHL1  H21C 7271   3.070   0.799   9.397 -0.2883  2.4904  1.3031
   65CHL1   C22 7272   3.253   0.658   9.293  0.1380 -0.9611 -0.8115
   65CHL1  H22A 7273   3.207   0.736   9.228 -0.2004 -0.6315 -0.1812
   65CHL1  H22B 7274   3.350   0.634   9.244  0.0219 -3.6639  0.2047
   65CHL1   C23 7275   3.159   0.539   9.290 -0.5917 -0.1997  0.2400
   65CHL1  H23A 7276   3.198   0.452   9.348  1.8775  0.3181 -0.5880
   65CHL1  H23B 7277   3.058   0.570   9.322 -0.9269  0.2219 -1.2179
   65CHL1   C24 7278   3.141   0.491   9.141  0.7306  0.0043 -0.3658
   65CHL1  H24A 7279   3.125   0.580   9.075 -0.4357 -0.1629 -0.3300
   65CHL1  H24B 7280   3.235   0.445   9.105  0.5683 -1.2479  0.7739
   65CHL1   C25 7281   3.023   0.392   9.123 -0.0581  0.9619  0.9806
   65CHL1   H25 7282   2.935   0.448   9.159  0.5110 -0.3252  4.5517
   65CHL1   C26 7283   3.012   0.356   8.975 -0.0956  0.1071 -0.2999
   65CHL1  H26A 7284   2.934   0.277   8.965 -1.1458  1.3059 -1.9134
   65CHL1  H26B 7285   2.988   0.446   8.915  1.2741  0.7491  0.0996
   65CHL1  H26C 7286   3.095   0.305   8.922 -1.3904 -2.8603  0.3992
   65CHL1   C27 7287   3.041   0.268   9.207  0.3599 -0.0633  0.7406
   65CHL1  H27A 7288   3.125   0.207   9.168 -1.7474 -1.9600 -1.0360
   65CHL1  H27B 7289   3.067   0.287   9.313 -0.0718  1.9692  0.5042
   65CHL1  H27C 7290   2.950   0.203   9.207 -0.8698  1.6118  1.9401
   66CHL1    C3 7291   1.214   5.720  10.535  0.1424 -0.5120  0.0551
   66CHL1    H3 7292   1.221   5.830  10.547  1.9987 -0.6848  0.6249
   66CHL1    O3 7293   1.212   5.681  10.665 -0.6910  0.1360 -0.3496
   66CHL1   H3' 7294   1.215   5.585  10.670 -0.2731  0.1755  0.2887
   66CHL1    C4 7295   1.074   5.673  10.482 -0.3002 -0.3050 -0.2022
   66CHL1   H4A 7296   1.090   5.563  10.487 -0.6241 -0.4304 -1.8002
   66CHL1   H4B 7297   0.988   5.696  10.550 -0.8388 -2.4741 -0.1043
   66CHL1    C5 7298   1.069   5.717  10.337  0.1541 -0.6754  0.2948
   66CHL1    C6 7299   0.963   5.789  10.292  0.0828 -1.1937  0.0568
   66CHL1    H6 7300   0.887   5.820  10.366  0.8101 -0.3173  0.4411
   66CHL1    C7 7301   0.937   5.824  10.152 -0.2429 -0.9616  1.3267
   66CHL1   H7A 7302   0.832   5.799  10.125 -0.2598 -0.1408  0.6366
   66CHL1   H7B 7303   0.937   5.933  10.134 -2.8504 -1.3195 -1.1329
   66CHL1    C8 7304   1.030   5.749  10.060  0.3294  0.1608  0.1798
   66CHL1    H8 7305   0.986   5.649  10.041  0.6828 -0.2221  1.3335
   66CHL1   C14 7306   1.032   5.810   9.922  0.2764 -0.6091 -0.7819
   66CHL1   H14 7307   1.081   5.909   9.933 -1.0683 -0.0452  0.3343
   66CHL1   C15 7308   0.899   5.832   9.844  0.8379  0.0795 -0.8545
   66CHL1  H15A 7309   0.841   5.738   9.833  1.0379  0.0519 -1.6601
   66CHL1  H15B 7310   0.829   5.907   9.889  2.3459  0.6070  0.6707
   66CHL1   C16 7311   0.946   5.879   9.703  0.7388 -0.7283  0.1893
   66CHL1  H16A 7312   0.881   5.834   9.624  1.0827 -0.3204 -0.3345
   66CHL1  H16B 7313   0.950   5.990   9.706  1.3258 -0.5178 -4.1850
   66CHL1   C17 7314   1.092   5.822   9.693 -0.2808  0.2021 -0.6011
   66CHL1   H17 7315   1.151   5.916   9.696  0.4201 -0.2720  1.1030
   66CHL1   C13 7316   1.120   5.744   9.822  0.5892 -0.0507  0.4917
   66CHL1   C18 7317   1.084   5.594   9.801  0.1870  0.3894 -0.2018
   66CHL1  H18A 7318   1.082   5.530   9.892 -2.7282 -1.3688 -1.4071
   66CHL1  H18B 7319   0.985   5.575   9.754 -0.2168  0.3032  0.6738
   66CHL1  H18C 7320   1.163   5.534   9.751  0.4302 -0.0501  0.6999
   66CHL1   C12 7321   1.264   5.760   9.866  0.7233 -0.2108  0.8419
   66CHL1  H12A 7322   1.325   5.697   9.798  2.4746  1.9512  0.3512
   66CHL1  H12B 7323   1.297   5.865   9.854  0.6653 -0.1366  1.3259
   66CHL1   C11 7324   1.285   5.704  10.005  0.9397 -0.2004  0.8506
   66CHL1  H11A 7325   1.293   5.594   9.996  1.0134 -0.2585  1.5608
   66CHL1  H11B 7326   1.386   5.740  10.036  2.0239 -2.2121 -0.1781
   66CHL1    C9 7327   1.175   5.750  10.109  0.3870  0.3903 -0.4933
   66CHL1    H9 7328   1.221   5.850  10.126  1.3596 -0.4909  2.2576
   66CHL1   C10 7329   1.182   5.676  10.246 -0.6080  0.1304  0.0622
   66CHL1   C19 7330   1.164   5.521  10.215 -0.6349  0.4422  0.1962
   66CHL1  H19A 7331   1.141   5.465  10.308  0.4839  1.4097  1.0732
   66CHL1  H19B 7332   1.082   5.494  10.146  2.2524  0.4263 -3.3608
   66CHL1  H19C 7333   1.261   5.479  10.183 -0.2965  1.6030 -0.3251
   66CHL1    C1 7334   1.327   5.690  10.309 -0.6852  0.5704 -0.3656
   66CHL1   H1A 7335   1.397   5.633  10.244 -1.3811  0.0142 -0.6307
   66CHL1   H1B 7336   1.359   5.796  10.304  3.6827 -0.7131 -2.6808
   66CHL1    C2 7337   1.324   5.655  10.461  1.0213  0.1826  0.0959
   66CHL1   H2A 7338   1.424   5.673  10.507  1.9625 -3.0479 -0.5751
   66CHL1   H2B 7339   1.309   5.548  10.485 -0.8800  0.2360 -0.8221
   66CHL1   C20 7340   1.118   5.768   9.551  0.2988  0.4557 -0.2277
   66CHL1   H20 7341   1.056   5.678   9.533  0.7027  0.0616  0.3329
   66CHL1   C21 7342   1.265   5.717   9.535 -0.1110  0.1656 -0.1288
   66CHL1  H21A 7343   1.267   5.666   9.437 -1.9062  0.8345 -0.5184
   66CHL1  H21B 7344   1.284   5.634   9.607 -3.5901 -1.5569 -1.1332
   66CHL1  H21C 7345   1.351   5.787   9.547  2.4014 -2.6906 -1.0125
   66CHL1   C22 7346   1.093   5.885   9.444 -0.4304 -0.0494  0.1180
   66CHL1  H22A 7347   0.991   5.928   9.441  0.3630  1.9167  0.4384
   66CHL1  H22B 7348   1.172   5.957   9.474 -1.4450  0.2888  2.0557
   66CHL1   C23 7349   1.126   5.843   9.298  0.5950 -0.4815 -0.5979
   66CHL1  H23A 7350   1.230   5.814   9.269 -0.5196 -2.6864 -2.5568
   66CHL1  H23B 7351   1.082   5.741   9.302  4.2251 -2.1373 -0.4527
   66CHL1   C24 7352   1.071   5.928   9.179 -0.3609  0.4196 -0.1035
   66CHL1  H24A 7353   0.960   5.918   9.176 -0.3820  0.5177  0.3406
   66CHL1  H24B 7354   1.089   6.036   9.197 -1.2101  0.4654  0.5390
   66CHL1   C25 7355   1.124   5.882   9.036 -0.0313  0.0608 -0.1980
   66CHL1   H25 7356   1.231   5.854   9.048 -0.5618 -2.3763 -0.9545
   66CHL1   C26 7357   1.044   5.753   8.994  0.1243  0.2375  0.3166
   66CHL1  H26A 7358   1.050   5.676   9.073 -2.1346  0.5438  0.8264
   66CHL1  H26B 7359   0.937   5.781   8.988  0.8173  2.8213 -0.3980
   66CHL1  H26C 7360   1.071   5.723   8.890  2.0549 -1.4645  1.2769
   66CHL1   C27 7361   1.125   6.001   8.940 -0.4471 -0.5605  0.6737
   66CHL1  H27A 7362   1.022   6.039   8.920  0.3771  0.5991 -1.5483
   66CHL1  H27B 7363   1.181   6.090   8.975 -1.7888 -0.7166  3.3013
   66CHL1  H27C 7364   1.165   5.968   8.842  2.1947  0.3846  1.3996
   67CHL1    C3 7365   5.799   6.291  10.216 -0.2166 -0.3826  0.0080
   67CHL1    H3 7366   5.878   6.214  10.205 -1.5211 -1.7154 -0.1708
   67CHL1    O3 7367   5.803   6.331  10.353  0.5838 -0.1036 -0.4937
   67CHL1   H3' 7368   5.866   6.403  10.354  1.7473 -1.0735 -1.4264
   67CHL1    C4 7369   5.830   6.412  10.122  0.7258 -0.6652 -0.1246
   67CHL1   H4A 7370   5.771   6.503  10.146 -0.3579 -0.6249 -2.7651
   67CHL1   H4B 7371   5.934   6.445  10.140  1.0204 -2.0843  0.7838
   67CHL1    C5 7372   5.822   6.386   9.976 -0.5215 -0.0295 -0.0807
   67CHL1    C6 7373   5.915   6.410   9.888  0.8286  0.4572  0.5210
   67CHL1    H6 7374   6.009   6.456   9.921  1.4605  0.7873 -1.6919
   67CHL1    C7 7375   5.918   6.383   9.740  0.0003  0.1695  0.2383
   67CHL1   H7A 7376   5.958   6.475   9.692 -2.1405  0.5446 -0.9311
   67CHL1   H7B 7377   5.987   6.301   9.712 -0.4778 -0.2824  0.3691
   67CHL1    C8 7378   5.777   6.363   9.695 -0.1496  0.5094  0.5082
   67CHL1    H8 7379   5.736   6.466   9.699  1.4954  1.1300  1.6754
   67CHL1   C14 7380   5.775   6.303   9.557  0.0404  0.1906 -0.3066
   67CHL1   H14 7381   5.823   6.203   9.566 -0.3504  0.0196 -0.1057
   67CHL1   C15 7382   5.859   6.385   9.451 -0.2174  0.2673 -0.1134
   67CHL1  H15A 7383   5.853   6.496   9.452  0.6361  0.3446 -1.1950
   67CHL1  H15B 7384   5.968   6.363   9.441 -0.0255  1.2278 -0.2514
   67CHL1   C16 7385   5.802   6.330   9.315  0.0394  0.7810  0.0655
   67CHL1  H16A 7386   5.761   6.416   9.259 -1.0543  0.5779  0.5309
   67CHL1  H16B 7387   5.883   6.276   9.261  0.0306  0.4910  0.3377
   67CHL1   C17 7388   5.688   6.230   9.351 -0.5820  0.1829 -0.1468
   67CHL1   H17 7389   5.731   6.129   9.367  0.7724  0.8194  0.2375
   67CHL1   C13 7390   5.638   6.282   9.490 -0.1844 -0.0262 -0.0374
   67CHL1   C18 7391   5.550   6.412   9.477 -0.4194 -0.2283  0.4369
   67CHL1  H18A 7392   5.451   6.391   9.432  0.5513 -0.4198 -1.6413
   67CHL1  H18B 7393   5.530   6.454   9.579 -2.1720 -0.6967  0.3092
   67CHL1  H18C 7394   5.598   6.489   9.413 -0.0181 -0.6218  0.2693
   67CHL1   C12 7395   5.573   6.177   9.577  0.1047  0.2141  0.3276
   67CHL1  H12A 7396   5.467   6.169   9.544 -0.2554  1.7109  1.0755
   67CHL1  H12B 7397   5.620   6.076   9.581 -1.1496 -0.3613  0.9773
   67CHL1   C11 7398   5.557   6.230   9.722  0.1568 -0.5813 -0.4110
   67CHL1  H11A 7399   5.492   6.320   9.721  1.0946  0.0977 -0.7619
   67CHL1  H11B 7400   5.496   6.165   9.789  0.1550  0.9079  1.0810
   67CHL1    C9 7401   5.693   6.269   9.785  0.1682  1.0837  0.1431
   67CHL1    H9 7402   5.753   6.176   9.791 -0.0703  0.8408 -1.1165
   67CHL1   C10 7403   5.689   6.312   9.935 -0.1179 -0.1597  0.8211
   67CHL1   C19 7404   5.564   6.407   9.948  0.4646 -0.2037 -0.5938
   67CHL1  H19A 7405   5.464   6.360   9.957  0.3923  0.0348 -0.0812
   67CHL1  H19B 7406   5.576   6.466  10.042  1.6525 -0.8324 -0.3421
   67CHL1  H19C 7407   5.563   6.474   9.860 -1.1723  1.6880  0.7945
   67CHL1    C1 7408   5.671   6.189  10.027  0.3864 -0.1795  0.0148
   67CHL1   H1A 7409   5.577   6.135  10.004  0.3767 -0.2828  0.2908
   67CHL1   H1B 7410   5.752   6.115  10.009 -0.0475 -1.0709  1.6182
   67CHL1    C2 7411   5.674   6.219  10.174 -0.4423  0.2132  0.6179
   67CHL1   H2A 7412   5.667   6.127  10.236  1.4094  0.2809  0.9466
   67CHL1   H2B 7413   5.577   6.267  10.202 -1.9892 -0.5101 -3.2309
   67CHL1   C20 7414   5.587   6.210   9.235 -0.1517  0.0689  0.4111
   67CHL1   H20 7415   5.522   6.300   9.227  2.2222  1.6846 -1.1753
   67CHL1   C21 7416   5.487   6.097   9.275 -0.6967  0.1574  0.0706
   67CHL1  H21A 7417   5.528   6.001   9.313  0.8687  1.3428  1.4452
   67CHL1  H21B 7418   5.425   6.081   9.184  0.0445 -0.3764 -0.3522
   67CHL1  H21C 7419   5.411   6.138   9.344 -1.6373 -0.9748 -0.2808
   67CHL1   C22 7420   5.652   6.197   9.091 -0.1189 -0.4227 -0.5457
   67CHL1  H22A 7421   5.571   6.216   9.018  1.4570  0.5661 -2.0731
   67CHL1  H22B 7422   5.718   6.286   9.076 -0.8644  0.1545 -0.4407
   67CHL1   C23 7423   5.730   6.068   9.062 -0.2173 -0.4447 -0.4107
   67CHL1  H23A 7424   5.788   6.040   9.153  0.3131 -0.7865 -0.8555
   67CHL1  H23B 7425   5.647   5.993   9.066 -2.3799  1.9331  0.2919
   67CHL1   C24 7426   5.805   6.072   8.933  0.3066  0.4838  0.9795
   67CHL1  H24A 7427   5.725   6.089   8.857  1.3948 -0.3779 -0.3847
   67CHL1  H24B 7428   5.877   6.155   8.948  0.4588  0.3991  0.7174
   67CHL1   C25 7429   5.870   5.941   8.904  0.1650 -0.7254  0.3184
   67CHL1   H25 7430   5.798   5.857   8.910  1.5887 -1.9126  1.0595
   67CHL1   C26 7431   5.922   5.943   8.760  0.0527  0.1583 -0.4628
   67CHL1  H26A 7432   5.840   5.955   8.685 -0.3889 -0.5759 -0.1073
   67CHL1  H26B 7433   5.997   6.024   8.755  0.7137 -0.3035  1.5283
   67CHL1  H26C 7434   5.957   5.839   8.743 -0.0733 -0.0713  0.6391
   67CHL1   C27 7435   5.979   5.906   9.009  0.7789 -0.3968  0.3974
   67CHL1  H27A 7436   5.937   5.880   9.109 -1.6489  1.3418 -0.1489
   67CHL1  H27B 7437   6.042   5.824   8.967  1.7872  1.6091 -2.1457
   67CHL1  H27C 7438   6.047   5.994   9.012 -0.1648  0.3347  0.4108
   68CHL1    C3 7439   3.417   0.068  10.240 -0.6334  0.5955 -0.2393
   68CHL1    H3 7440   3.506   0.028  10.188  0.0794  1.5088  0.2778
   68CHL1    O3 7441   3.464   0.116  10.369  0.0275 -0.1014  0.4078
   68CHL1   H3' 7442   3.560   0.110  10.369  0.0803  0.7271  1.4567
   68CHL1    C4 7443   3.332   0.184  10.180 -1.2236  0.3808 -0.9805
   68CHL1   H4A 7444   3.257   0.214  10.256 -0.2807  0.8543 -0.2287
   68CHL1   H4B 7445   3.413   0.259  10.172 -1.1993  0.7202  1.7728
   68CHL1    C5 7446   3.259   0.146  10.049  0.0996  0.2813  0.4020
   68CHL1    C6 7447   3.281   0.215   9.941  0.0921  0.1130  0.4799
   68CHL1    H6 7448   3.353   0.298   9.944  1.0126 -0.7235  2.8209
   68CHL1    C7 7449   3.222   0.169   9.807  0.5504  0.5223  0.8157
   68CHL1   H7A 7450   3.181   0.259   9.757 -1.1915 -0.3659  0.6292
   68CHL1   H7B 7451   3.298   0.118   9.744  0.4200 -2.4051  2.9130
   68CHL1    C8 7452   3.105   0.069   9.819  0.5775 -0.7727 -0.6539
   68CHL1    H8 7453   3.017   0.125   9.858  0.2573 -0.6482 -1.5339
   68CHL1   C14 7454   3.065   0.006   9.684 -1.0012 -0.0207 -0.4645
   68CHL1   H14 7455   3.144  -0.065   9.652  0.1751 -1.1313  4.4509
   68CHL1   C15 7456   3.044   0.096   9.557 -0.2444  0.2272 -0.5126
   68CHL1  H15A 7457   2.984   0.185   9.585 -0.5740 -0.8355  2.3259
   68CHL1  H15B 7458   3.137   0.135   9.511 -1.6096 -1.5122 -5.0523
   68CHL1   C16 7459   2.958   0.018   9.459  0.0215  0.1018  0.4646
   68CHL1  H16A 7460   2.867   0.072   9.426  0.4865 -0.0102 -1.0614
   68CHL1  H16B 7461   3.020  -0.001   9.368  0.0370  1.1301  0.2535
   68CHL1   C17 7462   2.907  -0.107   9.542 -0.0107 -0.5695 -0.4037
   68CHL1   H17 7463   2.979  -0.182   9.501 -2.3003 -2.9237 -0.2101
   68CHL1   C13 7464   2.939  -0.078   9.691 -0.5314 -0.1326  0.4823
   68CHL1   C18 7465   2.817   0.001   9.744  0.1041 -0.0088 -0.3897
   68CHL1  H18A 7466   2.815   0.041   9.847 -1.3694  0.1282 -0.4667
   68CHL1  H18B 7467   2.797   0.087   9.676  0.2046  0.3506  0.0352
   68CHL1  H18C 7468   2.731  -0.069   9.748 -0.0999  0.2499 -0.2300
   68CHL1   C12 7469   2.979  -0.195   9.777  0.0489  0.0435 -0.1260
   68CHL1  H12A 7470   2.899  -0.273   9.779  0.8099 -0.7227  1.3296
   68CHL1  H12B 7471   3.061  -0.254   9.730 -0.0613  0.1266 -0.4254
   68CHL1   C11 7472   3.015  -0.148   9.923  0.5469 -0.0915 -0.0924
   68CHL1  H11A 7473   2.930  -0.097   9.974  1.4174  0.2107  1.0756
   68CHL1  H11B 7474   3.047  -0.239   9.978 -0.8183 -0.4479  0.1452
   68CHL1    C9 7475   3.131  -0.039   9.925 -0.2627 -0.1472  0.0420
   68CHL1    H9 7476   3.214  -0.099   9.882 -0.1916  0.5355 -0.7882
   68CHL1   C10 7477   3.179   0.017  10.058 -0.2423  0.6078 -0.0822
   68CHL1   C19 7478   3.047   0.051  10.129  0.2827  0.0873  0.2240
   68CHL1  H19A 7479   3.068   0.113  10.219 -0.8064 -0.1901  0.6809
   68CHL1  H19B 7480   2.980   0.112  10.065 -2.2444 -0.4464  2.2609
   68CHL1  H19C 7481   2.994  -0.041  10.162  0.5947 -0.6026 -1.1420
   68CHL1    C1 7482   3.259  -0.099  10.129 -0.3333  0.2569 -0.5108
   68CHL1   H1A 7483   3.197  -0.189  10.141 -0.6063  0.7219  1.7995
   68CHL1   H1B 7484   3.344  -0.129  10.063  0.0311  0.6162 -0.2087
   68CHL1    C2 7485   3.322  -0.055  10.259  0.3650 -0.1365 -0.2414
   68CHL1   H2A 7486   3.369  -0.142  10.310  1.0712 -0.1254 -0.8654
   68CHL1   H2B 7487   3.250  -0.009  10.330  0.6053 -0.8113  0.4475
   68CHL1   C20 7488   2.768  -0.147   9.501 -0.1109  0.7674 -0.0854
   68CHL1   H20 7489   2.698  -0.064   9.527 -1.9856 -0.2189 -1.8101
   68CHL1   C21 7490   2.732  -0.281   9.576  0.1765  0.9236 -0.3118
   68CHL1  H21A 7491   2.640  -0.326   9.533 -0.8450  3.7886 -1.2713
   68CHL1  H21B 7492   2.706  -0.266   9.684 -2.6300 -2.4166 -0.4237
   68CHL1  H21C 7493   2.815  -0.354   9.580 -1.2557 -0.7037  0.8136
   68CHL1   C22 7494   2.766  -0.177   9.351  0.1204  0.5257  0.1950
   68CHL1  H22A 7495   2.807  -0.101   9.281  0.0842 -0.1122 -0.5307
   68CHL1  H22B 7496   2.826  -0.269   9.335  3.4030  2.3192  1.8822
   68CHL1   C23 7497   2.622  -0.191   9.304 -0.2658  0.1855 -0.3390
   68CHL1  H23A 7498   2.587  -0.297   9.310 -1.4584  0.5268 -0.9679
   68CHL1  H23B 7499   2.545  -0.144   9.369 -0.1818  0.5940 -0.5312
   68CHL1   C24 7500   2.595  -0.145   9.167  0.6634  0.6461 -0.1526
   68CHL1  H24A 7501   2.662  -0.059   9.145 -1.5036  2.1539 -1.0763
   68CHL1  H24B 7502   2.610  -0.227   9.094 -0.8909 -0.8756  1.1721
   68CHL1   C25 7503   2.454  -0.086   9.145 -0.1459 -0.2904 -0.2961
   68CHL1   H25 7504   2.442   0.001   9.213  2.4353  1.0900 -1.5401
   68CHL1   C26 7505   2.436  -0.033   9.001  0.0197 -0.2191 -0.4561
   68CHL1  H26A 7506   2.468   0.073   8.991  0.1609 -0.1213  0.8555
   68CHL1  H26B 7507   2.499  -0.094   8.933 -0.4408  1.7765 -2.7426
   68CHL1  H26C 7508   2.329  -0.035   8.972 -0.2095 -1.3246  0.4372
   68CHL1   C27 7509   2.344  -0.190   9.171  0.4133  0.4981 -0.5314
   68CHL1  H27A 7510   2.353  -0.276   9.101  1.7905 -1.5231  2.0539
   68CHL1  H27B 7511   2.344  -0.234   9.273  0.0581  3.4491  0.7879
   68CHL1  H27C 7512   2.246  -0.142   9.152 -1.1534 -1.4192  2.4450
   69CHL1    C3 7513   1.300   4.606   6.839 -0.0770  0.8453 -0.2192
   69CHL1    H3 7514   1.407   4.631   6.856 -0.4211  0.9767  1.9496
   69CHL1    O3 7515   1.279   4.593   6.700 -0.0326 -0.0407 -0.2069
   69CHL1   H3' 7516   1.353   4.545   6.662 -2.6922 -2.9223 -2.0059
   69CHL1    C4 7517   1.278   4.472   6.915 -0.1366 -0.0808  0.4655
   69CHL1   H4A 7518   1.172   4.443   6.898  0.7828 -2.5605 -1.1747
   69CHL1   H4B 7519   1.345   4.401   6.863 -1.2861  1.1903 -2.8456
   69CHL1    C5 7520   1.301   4.489   7.067  0.4526  0.0999  0.3162
   69CHL1    C6 7521   1.399   4.427   7.137  0.4454 -0.3616  0.6973
   69CHL1    H6 7522   1.463   4.358   7.079 -2.2252 -0.7628 -1.8722
   69CHL1    C7 7523   1.413   4.432   7.289 -0.6637 -0.3673  1.0423
   69CHL1   H7A 7524   1.447   4.339   7.338  1.6299 -1.1026 -1.8229
   69CHL1   H7B 7525   1.501   4.499   7.303  0.6950 -2.0730  0.8033
   69CHL1    C8 7526   1.294   4.498   7.353 -0.7577  0.1323 -0.4615
   69CHL1    H8 7527   1.201   4.437   7.346 -0.5121 -0.2883 -0.0974
   69CHL1   C14 7528   1.329   4.530   7.503  0.2338  0.8164  1.3527
   69CHL1   H14 7529   1.417   4.597   7.491  1.1109 -0.8476 -1.9197
   69CHL1   C15 7530   1.395   4.424   7.592  0.2679  0.1892  0.3071
   69CHL1  H15A 7531   1.327   4.337   7.600 -1.6563  1.6032 -0.2813
   69CHL1  H15B 7532   1.498   4.397   7.561  0.7569  1.0888  1.1392
   69CHL1   C16 7533   1.384   4.491   7.728  0.2427 -0.4224 -0.2640
   69CHL1  H16A 7534   1.337   4.417   7.796  0.6109 -0.6597 -0.2692
   69CHL1  H16B 7535   1.480   4.526   7.772 -0.0091  0.4835 -0.4119
   69CHL1   C17 7536   1.300   4.617   7.708  0.0604  0.0501  0.4992
   69CHL1   H17 7537   1.380   4.694   7.695  0.3994 -0.4284 -0.2561
   69CHL1   C13 7538   1.223   4.608   7.577 -0.5425 -0.3477 -0.2876
   69CHL1   C18 7539   1.097   4.520   7.598  0.5713 -0.5813  0.3470
   69CHL1  H18A 7540   1.017   4.561   7.663  2.7000 -0.3562  2.9030
   69CHL1  H18B 7541   1.061   4.486   7.499 -2.0731 -0.7760  1.3228
   69CHL1  H18C 7542   1.123   4.428   7.655 -0.4711 -0.2232  1.4444
   69CHL1   C12 7543   1.190   4.742   7.509 -0.5858  0.4944 -0.2463
   69CHL1  H12A 7544   1.102   4.786   7.561 -1.1993 -0.6883 -0.2650
   69CHL1  H12B 7545   1.284   4.801   7.514  0.7966 -1.7157  0.9752
   69CHL1   C11 7546   1.160   4.721   7.357  0.0884  0.3680 -0.4701
   69CHL1  H11A 7547   1.052   4.695   7.358 -0.1524  1.3538 -0.0390
   69CHL1  H11B 7548   1.155   4.821   7.309  2.1330  1.6360  1.7842
   69CHL1    C9 7549   1.255   4.627   7.277 -0.1911 -0.4890  0.0518
   69CHL1    H9 7550   1.348   4.687   7.264 -0.7618  0.2955 -0.4438
   69CHL1   C10 7551   1.209   4.599   7.134 -0.0436  0.3755 -0.1493
   69CHL1   C19 7552   1.064   4.547   7.137  0.6475  1.0853 -0.4919
   69CHL1  H19A 7553   1.006   4.636   7.169 -1.7795 -0.6087 -0.0858
   69CHL1  H19B 7554   1.024   4.518   7.037 -0.1175  0.4383 -0.0022
   69CHL1  H19C 7555   1.045   4.455   7.196 -0.6208  1.6546 -0.0009
   69CHL1    C1 7556   1.237   4.726   7.051  0.3905 -0.3113  0.4704
   69CHL1   H1A 7557   1.178   4.815   7.083  1.6859  1.2507 -1.3772
   69CHL1   H1B 7558   1.338   4.772   7.049  0.4060 -0.3678 -0.1731
   69CHL1    C2 7559   1.205   4.706   6.896  0.3307  0.2939 -0.3600
   69CHL1   H2A 7560   1.217   4.807   6.852 -0.7171  0.8488  0.6386
   69CHL1   H2B 7561   1.095   4.690   6.892  0.5434 -1.5070  0.1771
   69CHL1   C20 7562   1.228   4.647   7.842  0.4898  0.4750 -0.5398
   69CHL1   H20 7563   1.160   4.561   7.862  0.7475  0.8169  1.9495
   69CHL1   C21 7564   1.155   4.775   7.826  0.5606  0.3943 -0.1576
   69CHL1  H21A 7565   1.210   4.843   7.758 -0.8627  1.4123 -0.3252
   69CHL1  H21B 7566   1.131   4.814   7.928 -0.5383  1.2685 -0.7328
   69CHL1  H21C 7567   1.057   4.752   7.778  0.3926 -0.4744  0.5912
   69CHL1   C22 7568   1.337   4.653   7.951 -0.7872  0.3265  0.0101
   69CHL1  H22A 7569   1.398   4.560   7.949  1.3526  1.7108 -0.8152
   69CHL1  H22B 7570   1.409   4.734   7.927 -0.2211 -1.3011 -4.2951
   69CHL1   C23 7571   1.290   4.672   8.096 -0.2417 -0.3320 -0.5007
   69CHL1  H23A 7572   1.212   4.751   8.108  0.7061  0.3627  1.3798
   69CHL1  H23B 7573   1.256   4.572   8.130  0.0395 -0.6540 -1.1739
   69CHL1   C24 7574   1.409   4.719   8.187 -0.3175 -0.1199 -0.1987
   69CHL1  H24A 7575   1.507   4.671   8.164  0.7421  1.0197  1.7868
   69CHL1  H24B 7576   1.430   4.825   8.163 -0.7876  0.0763  0.2551
   69CHL1   C25 7577   1.388   4.714   8.339  0.1279  0.1115  0.0390
   69CHL1   H25 7578   1.360   4.610   8.366  0.1248  0.6425  2.1943
   69CHL1   C26 7579   1.514   4.764   8.410 -0.5503 -0.1609  0.1628
   69CHL1  H26A 7580   1.505   4.741   8.518 -1.5419  1.4760  0.4528
   69CHL1  H26B 7581   1.609   4.724   8.368 -0.9421 -1.7849  0.8189
   69CHL1  H26C 7582   1.536   4.873   8.399 -0.7190  0.1567  2.6512
   69CHL1   C27 7583   1.271   4.795   8.399  0.0244 -0.1413  0.2603
   69CHL1  H27A 7584   1.269   4.781   8.509 -1.7416  0.9302  0.3784
   69CHL1  H27B 7585   1.279   4.905   8.389 -1.7557  0.1449  1.6396
   69CHL1  H27C 7586   1.173   4.761   8.359  0.9088  0.0842 -2.2220
   70CHL1    C3 7587   0.637   1.096   6.990  0.3008  0.1687  0.0962
   70CHL1    H3 7588   0.536   1.056   7.011 -0.1583  0.6379 -1.1494
   70CHL1    O3 7589   0.660   1.101   6.848  0.6467 -0.9919  0.2070
   70CHL1   H3' 7590   0.754   1.121   6.842  0.2490  1.0552  0.4530
   70CHL1    C4 7591   0.633   1.244   7.050 -0.3131 -0.5252  0.3133
   70CHL1   H4A 7592   0.717   1.312   7.022  0.4433 -0.8488  1.7424
   70CHL1   H4B 7593   0.540   1.281   7.001  1.4288  2.8054 -0.6328
   70CHL1    C5 7594   0.620   1.244   7.201 -0.3591  0.2339  0.2429
   70CHL1    C6 7595   0.514   1.298   7.263  0.3020 -0.4841  0.0101
   70CHL1    H6 7596   0.432   1.339   7.203 -0.3177  0.8954  1.7463
   70CHL1    C7 7597   0.504   1.297   7.412  0.4421  0.6192 -0.3038
   70CHL1   H7A 7598   0.468   1.389   7.463  2.8971  2.2452 -1.3850
   70CHL1   H7B 7599   0.443   1.209   7.441  0.9198 -0.1490 -1.6074
   70CHL1    C8 7600   0.644   1.282   7.479 -0.0793 -0.0878 -0.3279
   70CHL1    H8 7601   0.696   1.378   7.462 -1.0866  0.9634  2.2786
   70CHL1   C14 7602   0.624   1.255   7.632  0.1013  0.0045 -0.2441
   70CHL1   H14 7603   0.552   1.172   7.647  0.2046 -0.0288  0.0641
   70CHL1   C15 7604   0.558   1.369   7.704  0.7506 -0.2256  0.0372
   70CHL1  H15A 7605   0.609   1.463   7.675  2.7777 -0.3923  2.8668
   70CHL1  H15B 7606   0.447   1.366   7.691  0.4413 -0.9202  2.4311
   70CHL1   C16 7607   0.592   1.338   7.854  0.6113 -0.5337 -0.1268
   70CHL1  H16A 7608   0.649   1.426   7.890  0.5773  0.8674 -3.3737
   70CHL1  H16B 7609   0.498   1.327   7.911  0.0253  0.9851 -0.7840
   70CHL1   C17 7610   0.681   1.209   7.859  0.4689 -0.1750 -0.5834
   70CHL1   H17 7611   0.615   1.120   7.867 -1.6390  1.5966  2.5374
   70CHL1   C13 7612   0.744   1.208   7.717 -0.0592  0.1502 -0.6961
   70CHL1   C18 7613   0.845   1.326   7.705  0.6159  0.8934 -0.2962
   70CHL1  H18A 7614   0.806   1.429   7.718 -1.3371  0.0223  1.0585
   70CHL1  H18B 7615   0.934   1.314   7.770  0.7376  1.1844 -0.4084
   70CHL1  H18C 7616   0.901   1.332   7.609 -1.2037  0.1340 -1.4481
   70CHL1   C12 7617   0.803   1.084   7.652  0.3884 -0.5371 -0.0105
   70CHL1  H12A 7618   0.900   1.056   7.697  0.3665  0.8530  0.9141
   70CHL1  H12B 7619   0.725   1.005   7.657  0.0182 -0.2468 -0.9599
   70CHL1   C11 7620   0.828   1.104   7.497  0.0866  0.1238 -0.2092
   70CHL1  H11A 7621   0.913   1.176   7.495  0.1947  0.1308  2.5543
   70CHL1  H11B 7622   0.865   1.007   7.459  0.1182 -0.7711  2.0223
   70CHL1    C9 7623   0.703   1.155   7.418  1.3242  0.3400  0.3757
   70CHL1    H9 7624   0.624   1.078   7.433  0.0234  1.2426 -1.5236
   70CHL1   C10 7625   0.733   1.164   7.271 -0.4615 -0.1513 -0.1427
   70CHL1   C19 7626   0.870   1.228   7.243  0.5431  0.5556  0.2472
   70CHL1  H19A 7627   0.909   1.216   7.140  0.3044 -2.1560  0.4195
   70CHL1  H19B 7628   0.860   1.335   7.271 -2.4686  0.4563 -0.2696
   70CHL1  H19C 7629   0.958   1.186   7.297  0.1109  1.6649  1.8506
   70CHL1    C1 7630   0.732   1.022   7.206 -0.2968  0.6949 -0.4469
   70CHL1   H1A 7631   0.800   0.957   7.265 -0.2258  0.9790 -0.2134
   70CHL1   H1B 7632   0.634   0.973   7.220  0.7820 -1.3471  0.1347
   70CHL1    C2 7633   0.752   1.020   7.053 -0.6966 -0.3084  0.0937
   70CHL1   H2A 7634   0.763   0.915   7.020 -0.8568 -0.1226 -0.5612
   70CHL1   H2B 7635   0.849   1.070   7.031 -0.7570 -0.9271 -1.6244
   70CHL1   C20 7636   0.773   1.199   7.978  0.5898  0.4479 -0.4280
   70CHL1   H20 7637   0.866   1.258   7.966  2.4852 -1.7863  2.5563
   70CHL1   C21 7638   0.805   1.053   8.003  0.4898  0.7432  0.3299
   70CHL1  H21A 7639   0.869   1.015   7.920 -3.0977 -1.6426 -1.4816
   70CHL1  H21B 7640   0.718   0.985   8.011  1.7733 -1.2685 -1.9561
   70CHL1  H21C 7641   0.856   1.037   8.100 -0.1969 -1.5011  0.3372
   70CHL1   C22 7642   0.696   1.248   8.102  0.0514  0.0140  0.1639
   70CHL1  H22A 7643   0.676   1.357   8.090 -1.2933  0.0410  2.2627
   70CHL1  H22B 7644   0.602   1.188   8.108 -0.8274  1.1570 -1.6900
   70CHL1   C23 7645   0.776   1.251   8.234  1.0304 -0.3544 -0.0051
   70CHL1  H23A 7646   0.765   1.152   8.283  1.1200 -1.1294 -1.5223
   70CHL1  H23B 7647   0.887   1.250   8.226  1.0079 -1.1953 -0.2148
   70CHL1   C24 7648   0.743   1.366   8.326  0.5401 -1.0934 -0.3594
   70CHL1  H24A 7649   0.821   1.374   8.404  1.5498  0.5332 -1.5070
   70CHL1  H24B 7650   0.746   1.462   8.270 -0.5293 -1.4506 -1.0579
   70CHL1   C25 7651   0.608   1.344   8.393  0.1550 -0.1061 -0.0136
   70CHL1   H25 7652   0.545   1.294   8.317 -0.4753 -1.6097  1.4557
   70CHL1   C26 7653   0.610   1.247   8.511  0.2857 -0.1428  0.2229
   70CHL1  H26A 7654   0.676   1.292   8.588  0.0942 -1.6111  1.2803
   70CHL1  H26B 7655   0.507   1.231   8.550 -0.8382  0.1607 -2.4897
   70CHL1  H26C 7656   0.659   1.155   8.472  1.7166  0.5892  0.2850
   70CHL1   C27 7657   0.546   1.480   8.431  0.1629 -0.3240 -0.3982
   70CHL1  H27A 7658   0.579   1.524   8.528  1.9383 -2.3357 -0.0483
   70CHL1  H27B 7659   0.556   1.556   8.350 -0.6903 -0.9167 -1.0627
   70CHL1  H27C 7660   0.438   1.464   8.452  0.2917  0.0388  0.5667
   71CHL1    C3 7661   6.673   3.840   6.757 -0.2005  0.6712 -0.0111
   71CHL1    H3 7662   6.562   3.846   6.769 -0.1478  2.6385 -0.4637
   71CHL1    O3 7663   6.704   3.810   6.621 -0.2152 -0.1335 -0.0510
   71CHL1   H3' 7664   6.709   3.714   6.622 -1.0758 -0.1752  0.2769
   71CHL1    C4 7665   6.733   3.969   6.810  0.2224 -0.6996 -0.1294
   71CHL1   H4A 7666   6.842   3.965   6.786  0.4766  1.8980  0.4612
   71CHL1   H4B 7667   6.687   4.057   6.760  2.4002 -0.7544 -2.3448
   71CHL1    C5 7668   6.711   3.980   6.958 -0.1048 -0.2907  0.0135
   71CHL1    C6 7669   6.636   4.079   7.004 -0.3261 -0.3747 -0.0864
   71CHL1    H6 7670   6.595   4.151   6.931 -0.7775 -1.7184 -1.1682
   71CHL1    C7 7671   6.622   4.102   7.153  0.3747 -0.2325 -0.9883
   71CHL1   H7A 7672   6.625   4.210   7.180 -1.0940 -0.7888  1.6211
   71CHL1   H7B 7673   6.520   4.077   7.189 -0.3972 -0.2981 -3.1273
   71CHL1    C8 7674   6.728   4.028   7.239 -0.0071 -0.1251 -0.2432
   71CHL1    H8 7675   6.833   4.063   7.228 -0.0255  0.4046  1.1645
   71CHL1   C14 7676   6.679   4.047   7.384  0.2653  0.3956 -0.2443
   71CHL1   H14 7677   6.571   4.021   7.387  0.4842 -0.5806 -0.6640
   71CHL1   C15 7678   6.674   4.183   7.453 -0.0186 -0.5729  0.7400
   71CHL1  H15A 7679   6.765   4.246   7.446  0.0886 -0.7185  0.8102
   71CHL1  H15B 7680   6.588   4.246   7.421  0.7791  0.0709 -0.1758
   71CHL1   C16 7681   6.669   4.158   7.602 -0.0563  0.3972 -0.4086
   71CHL1  H16A 7682   6.731   4.227   7.663 -0.5512  0.5527 -0.0740
   71CHL1  H16B 7683   6.566   4.158   7.644  0.0919 -0.8240 -0.0099
   71CHL1   C17 7684   6.702   4.011   7.615 -0.9911 -0.6296 -0.5305
   71CHL1   H17 7685   6.612   3.946   7.621 -2.1812  1.0986  0.8817
   71CHL1   C13 7686   6.762   3.963   7.482  0.1126  0.4135  0.0544
   71CHL1   C18 7687   6.915   4.006   7.475 -0.1494  0.2289  0.2933
   71CHL1  H18A 7688   6.950   3.982   7.372 -1.0946  1.7032 -0.3872
   71CHL1  H18B 7689   6.929   4.110   7.509 -1.0811  0.2204  0.7139
   71CHL1  H18C 7690   6.974   3.935   7.538  1.1902  0.3510 -0.7964
   71CHL1   C12 7691   6.755   3.816   7.443  0.0567  0.3669 -0.1293
   71CHL1  H12A 7692   6.823   3.758   7.509  1.8487  1.5589 -0.9034
   71CHL1  H12B 7693   6.649   3.793   7.469  0.0194 -0.7151 -1.2283
   71CHL1   C11 7694   6.783   3.783   7.300 -0.3850 -0.0570  0.1191
   71CHL1  H11A 7695   6.891   3.808   7.298  0.1645 -2.2902  0.0133
   71CHL1  H11B 7696   6.778   3.674   7.278 -0.8580 -0.0748  0.3122
   71CHL1    C9 7697   6.717   3.881   7.196  0.8400  0.2957 -0.1080
   71CHL1    H9 7698   6.611   3.850   7.211  0.6546 -0.2001 -2.2782
   71CHL1   C10 7699   6.759   3.865   7.047  0.0248  0.1175 -0.1536
   71CHL1   C19 7700   6.912   3.866   7.040 -0.0893 -0.2654 -0.0998
   71CHL1  H19A 7701   6.944   3.876   6.934 -0.0724 -1.6705 -0.2358
   71CHL1  H19B 7702   6.948   3.945   7.109 -0.5384  1.5446 -1.8926
   71CHL1  H19C 7703   6.954   3.768   7.072  1.6711  0.6690  0.5180
   71CHL1    C1 7704   6.693   3.738   6.982 -0.0830  0.1984 -0.4545
   71CHL1   H1A 7705   6.743   3.658   7.040  0.9508  2.3031  1.6364
   71CHL1   H1B 7706   6.584   3.742   7.000  0.0992 -1.5929  1.1428
   71CHL1    C2 7707   6.721   3.721   6.833 -0.5163  0.0051  0.2584
   71CHL1   H2A 7708   6.674   3.628   6.796  0.0769  0.6033 -2.0747
   71CHL1   H2B 7709   6.829   3.720   6.810 -0.1798  0.9760  1.6862
   71CHL1   C20 7710   6.779   3.987   7.752 -0.6163 -0.2368  0.5320
   71CHL1   H20 7711   6.864   4.059   7.753 -2.5480  2.0868 -0.1315
   71CHL1   C21 7712   6.824   3.837   7.772  0.0286 -0.3060 -0.7124
   71CHL1  H21A 7713   6.738   3.771   7.749 -0.8715  0.8461 -0.6716
   71CHL1  H21B 7714   6.870   3.817   7.871 -0.5584 -0.6007 -0.4963
   71CHL1  H21C 7715   6.909   3.801   7.710  0.6553 -1.9815  1.0707
   71CHL1   C22 7716   6.692   4.035   7.876  0.2214  0.3667  0.3231
   71CHL1  H22A 7717   6.743   4.008   7.971 -0.3515 -0.4454  0.4031
   71CHL1  H22B 7718   6.677   4.144   7.860 -2.4686 -0.1000 -0.5795
   71CHL1   C23 7719   6.549   3.972   7.887  0.1931 -0.3005 -0.0418
   71CHL1  H23A 7720   6.491   3.975   7.792 -1.2128  1.1812  0.8506
   71CHL1  H23B 7721   6.559   3.862   7.904 -1.1008 -0.0269  2.8156
   71CHL1   C24 7722   6.456   4.029   7.992  0.0935  0.7061 -0.4255
   71CHL1  H24A 7723   6.451   4.140   7.984  1.2082  0.6608 -1.9884
   71CHL1  H24B 7724   6.355   3.984   7.979  0.5398 -0.3797 -0.1890
   71CHL1   C25 7725   6.502   3.999   8.138 -0.1147  0.0404  0.5031
   71CHL1   H25 7726   6.602   4.045   8.155 -0.1153 -1.1780  4.2426
   71CHL1   C26 7727   6.407   4.067   8.234  0.0103  0.0758  0.2487
   71CHL1  H26A 7728   6.307   4.021   8.242 -0.1668  0.5311  0.7239
   71CHL1  H26B 7729   6.451   4.081   8.336 -1.9796  3.7956  0.7055
   71CHL1  H26C 7730   6.375   4.168   8.199  0.1115  0.2091  0.5330
   71CHL1   C27 7731   6.521   3.849   8.154 -0.1775 -0.0911  0.1851
   71CHL1  H27A 7732   6.597   3.805   8.086 -0.3145  2.0264 -1.3760
   71CHL1  H27B 7733   6.554   3.818   8.255 -1.0839 -2.4180 -0.1944
   71CHL1  H27C 7734   6.424   3.800   8.128 -2.3786  3.7854  0.6706
   72CHL1    C3 7735   0.844   1.641   7.096  0.3465  0.1109 -0.5501
   72CHL1    H3 7736   0.783   1.549   7.108  0.0210  0.5557  1.4410
   72CHL1    O3 7737   0.898   1.632   6.967  0.1315  0.2632  0.0921
   72CHL1   H3' 7738   0.988   1.666   6.965  0.6437 -1.0675 -1.0936
   72CHL1    C4 7739   0.765   1.767   7.118 -0.0280 -0.7544  0.7814
   72CHL1   H4A 7740   0.825   1.859   7.099  0.4072 -1.0870  0.5399
   72CHL1   H4B 7741   0.685   1.781   7.043 -0.5564 -3.3988  0.8166
   72CHL1    C5 7742   0.718   1.778   7.267  0.7626  0.5425 -0.4975
   72CHL1    C6 7743   0.585   1.793   7.287  0.2454 -0.5461 -0.4480
   72CHL1    H6 7744   0.520   1.820   7.203 -0.1790  1.7801  0.5674
   72CHL1    C7 7745   0.527   1.793   7.422  0.4793  0.5139 -0.2391
   72CHL1   H7A 7746   0.448   1.872   7.423 -0.1393 -0.0623 -1.9883
   72CHL1   H7B 7747   0.478   1.696   7.445  1.4972 -0.3864 -1.7593
   72CHL1    C8 7748   0.630   1.825   7.533 -0.3515 -0.2344  0.3716
   72CHL1    H8 7749   0.674   1.927   7.534  0.0037 -0.3898  0.8536
   72CHL1   C14 7750   0.560   1.822   7.668  0.4870  0.8148 -0.1717
   72CHL1   H14 7751   0.510   1.724   7.671  0.3584  0.8624 -0.7945
   72CHL1   C15 7752   0.445   1.917   7.701 -0.5317  0.3482  0.1627
   72CHL1  H15A 7753   0.492   2.018   7.705  0.8072 -0.1003 -2.9930
   72CHL1  H15B 7754   0.358   1.922   7.632 -1.1029 -2.7631  0.5724
   72CHL1   C16 7755   0.417   1.887   7.850  0.0072  0.2179  0.1756
   72CHL1  H16A 7756   0.398   1.988   7.892 -0.2960  0.0146  0.5276
   72CHL1  H16B 7757   0.333   1.814   7.848 -0.5753  0.8993 -0.4834
   72CHL1   C17 7758   0.549   1.814   7.908  0.1436 -0.8877  0.1586
   72CHL1   H17 7759   0.530   1.706   7.919 -0.1279 -0.9878 -1.1908
   72CHL1   C13 7760   0.652   1.821   7.789  0.1448 -0.6450 -0.5191
   72CHL1   C18 7761   0.734   1.955   7.800  0.2291  0.3122  0.1849
   72CHL1  H18A 7762   0.790   1.981   7.707 -0.0380  0.5442  0.0861
   72CHL1  H18B 7763   0.664   2.036   7.830 -0.4004 -0.3196  0.4292
   72CHL1  H18C 7764   0.812   1.943   7.878  0.3058 -2.3176 -0.2341
   72CHL1   C12 7765   0.755   1.703   7.773  0.8378  0.1171 -1.3428
   72CHL1  H12A 7766   0.821   1.699   7.862  1.3848 -0.7990 -1.7821
   72CHL1  H12B 7767   0.705   1.604   7.770  2.1345 -0.5899  0.0667
   72CHL1   C11 7768   0.837   1.702   7.640 -0.5257  0.1101 -0.1248
   72CHL1  H11A 7769   0.918   1.779   7.636 -2.6907  2.3537 -2.9923
   72CHL1  H11B 7770   0.881   1.600   7.631 -1.5153 -0.3374  0.0545
   72CHL1    C9 7771   0.748   1.723   7.519  0.3634  0.5026 -0.1031
   72CHL1    H9 7772   0.699   1.624   7.505  2.8027 -0.6752 -0.5096
   72CHL1   C10 7773   0.819   1.758   7.384 -0.3080 -1.0469  0.6640
   72CHL1   C19 7774   0.912   1.883   7.377  0.1166  0.0061 -0.7235
   72CHL1  H19A 7775   1.003   1.868   7.439  0.2254 -2.5534 -1.4745
   72CHL1  H19B 7776   0.941   1.903   7.272  2.3139  0.4055 -0.0551
   72CHL1  H19C 7777   0.856   1.971   7.416  0.2375 -0.5006  0.6180
   72CHL1    C1 7778   0.908   1.633   7.347  0.2169  0.1337 -0.0762
   72CHL1   H1A 7779   0.990   1.623   7.421 -0.3980 -3.1350  0.2484
   72CHL1   H1B 7780   0.846   1.543   7.367 -0.0367  0.3397  0.0716
   72CHL1    C2 7781   0.962   1.632   7.202 -0.5949 -0.0712  0.1495
   72CHL1   H2A 7782   1.023   1.539   7.194 -0.3350  0.0143  1.0758
   72CHL1   H2B 7783   1.034   1.712   7.173  0.9050  0.4941  5.0617
   72CHL1   C20 7784   0.579   1.871   8.050  0.3097 -0.0937  0.6615
   72CHL1   H20 7785   0.607   1.978   8.041 -3.4884  0.7520 -2.7619
   72CHL1   C21 7786   0.695   1.797   8.102  0.7767  0.5558 -0.6921
   72CHL1  H21A 7787   0.673   1.690   8.121 -0.9493  0.8712 -0.8313
   72CHL1  H21B 7788   0.718   1.838   8.202 -3.2409  1.0364  0.1192
   72CHL1  H21C 7789   0.778   1.786   8.029 -0.7888 -1.8291 -2.1906
   72CHL1   C22 7790   0.457   1.864   8.148  0.6126 -0.5073  0.4656
   72CHL1  H22A 7791   0.370   1.921   8.112 -2.0946 -4.9754 -0.4382
   72CHL1  H22B 7792   0.427   1.758   8.168  1.4809 -1.2768 -2.1202
   72CHL1   C23 7793   0.491   1.906   8.288  0.1595 -0.2148 -0.0850
   72CHL1  H23A 7794   0.569   1.842   8.335  0.1845 -0.5900 -0.6351
   72CHL1  H23B 7795   0.530   2.009   8.275 -1.1146  0.2846 -0.0825
   72CHL1   C24 7796   0.379   1.910   8.393 -0.1389  0.3484  0.0862
   72CHL1  H24A 7797   0.295   1.980   8.371  0.0263  0.8405  0.9852
   72CHL1  H24B 7798   0.332   1.810   8.393 -1.0882  0.7772  0.9630
   72CHL1   C25 7799   0.433   1.937   8.536 -0.5087  0.0200 -0.7258
   72CHL1   H25 7800   0.513   2.014   8.530 -1.1179  0.7185 -0.0196
   72CHL1   C26 7801   0.327   1.989   8.631 -0.3922 -0.0880  0.6717
   72CHL1  H26A 7802   0.241   1.919   8.632 -1.9029  1.6688 -2.0989
   72CHL1  H26B 7803   0.367   2.015   8.732  0.2830  0.2657  0.3163
   72CHL1  H26C 7804   0.284   2.081   8.585 -0.5351 -0.3205  0.3382
   72CHL1   C27 7805   0.509   1.819   8.605 -0.2536 -0.1382  0.2317
   72CHL1  H27A 7806   0.597   1.866   8.654  0.0874  1.2380 -1.6676
   72CHL1  H27B 7807   0.441   1.764   8.674  1.8996 -1.0168  1.7255
   72CHL1  H27C 7808   0.563   1.761   8.528  1.4339  1.0078  0.5272
   73CHL1    C3 7809   0.873   5.127   6.890  0.6039  0.7751  0.5024
   73CHL1    H3 7810   0.912   5.231   6.897  0.8307  0.7729 -0.7402
   73CHL1    O3 7811   0.855   5.085   6.754  0.1414 -0.3227 -0.3279
   73CHL1   H3' 7812   0.764   5.106   6.736  0.3802  0.7855 -0.2837
   73CHL1    C4 7813   0.964   5.033   6.966  0.0684 -0.3326  0.7543
   73CHL1   H4A 7814   0.916   4.934   6.948 -0.5148  0.2538 -1.0557
   73CHL1   H4B 7815   1.060   5.043   6.911 -0.0277 -0.5058  0.5566
   73CHL1    C5 7816   0.981   5.075   7.111  0.5128  0.2621  0.4015
   73CHL1    C6 7817   1.100   5.098   7.162  0.0365 -0.5992 -0.7778
   73CHL1    H6 7818   1.189   5.069   7.105  0.6350 -1.5911  0.6234
   73CHL1    C7 7819   1.131   5.116   7.316 -0.1467  0.2656  0.5819
   73CHL1   H7A 7820   1.207   5.044   7.355 -1.7341 -3.0168 -2.0914
   73CHL1   H7B 7821   1.164   5.221   7.322  0.1963  0.2737 -1.1815
   73CHL1    C8 7822   1.009   5.105   7.405 -0.4107 -0.3064  0.4866
   73CHL1    H8 7823   0.990   4.997   7.424  1.1955 -0.5503  0.8384
   73CHL1   C14 7824   1.030   5.181   7.533 -0.6612  0.0637  0.4929
   73CHL1   H14 7825   1.030   5.286   7.496  1.2355  0.3009  1.0907
   73CHL1   C15 7826   1.164   5.166   7.618 -0.5552 -0.7365  0.5736
   73CHL1  H15A 7827   1.205   5.063   7.607  2.0882  0.5488 -2.8517
   73CHL1  H15B 7828   1.234   5.246   7.588 -0.5460 -0.7338  0.6017
   73CHL1   C16 7829   1.129   5.196   7.755 -0.6178  0.3747  0.5387
   73CHL1  H16A 7830   1.139   5.110   7.825  1.3140 -0.5258 -0.7931
   73CHL1  H16B 7831   1.190   5.277   7.800  0.0195  0.4689 -0.4617
   73CHL1   C17 7832   0.979   5.237   7.756 -0.0152  0.5886  0.6568
   73CHL1   H17 7833   0.970   5.345   7.731  2.0734  0.2409 -1.8519
   73CHL1   C13 7834   0.913   5.164   7.635 -0.9049 -0.2325 -0.3486
   73CHL1   C18 7835   0.896   5.016   7.663  0.0760 -0.2536  0.0656
   73CHL1  H18A 7836   0.989   4.969   7.701  0.7392  0.4112 -0.7393
   73CHL1  H18B 7837   0.818   5.010   7.742  2.6558 -0.4090  2.6703
   73CHL1  H18C 7838   0.871   4.966   7.566 -2.7602  2.1580 -0.5322
   73CHL1   C12 7839   0.785   5.233   7.574 -0.0664 -0.1153 -0.3029
   73CHL1  H12A 7840   0.695   5.207   7.634 -1.3594 -1.6406 -2.8190
   73CHL1  H12B 7841   0.799   5.344   7.574 -2.1453  0.1799  1.2040
   73CHL1   C11 7842   0.759   5.175   7.427 -0.2218 -1.0578 -0.2778
   73CHL1  H11A 7843   0.715   5.078   7.460 -1.2012 -0.3324  0.5948
   73CHL1  H11B 7844   0.675   5.234   7.383  1.0032  0.9454  0.0397
   73CHL1    C9 7845   0.883   5.161   7.333  0.0771 -0.1841 -0.1311
   73CHL1    H9 7846   0.918   5.259   7.294  1.6818 -0.9987 -0.7663
   73CHL1   C10 7847   0.855   5.090   7.192 -0.0446 -0.3974 -0.5204
   73CHL1   C19 7848   0.800   4.949   7.230  0.8018 -0.1551 -0.6835
   73CHL1  H19A 7849   0.707   4.962   7.290  0.1486  1.3188 -1.9890
   73CHL1  H19B 7850   0.775   4.895   7.135 -1.6535  0.3923 -0.3737
   73CHL1  H19C 7851   0.874   4.880   7.276 -0.3504 -1.6838 -1.0614
   73CHL1    C1 7852   0.758   5.171   7.101  0.6708 -0.2674  1.1199
   73CHL1   H1A 7853   0.662   5.173   7.158  2.1250 -0.2657  3.6562
   73CHL1   H1B 7854   0.799   5.274   7.107  2.3816 -0.8752  0.0860
   73CHL1    C2 7855   0.734   5.133   6.954  0.2756 -0.1110 -0.2243
   73CHL1   H2A 7856   0.682   5.217   6.903 -0.3978  0.3631  1.1972
   73CHL1   H2B 7857   0.660   5.050   6.952  0.0020  0.1154  0.3782
   73CHL1   C20 7858   0.910   5.215   7.892 -0.1297 -0.0335  0.5451
   73CHL1   H20 7859   0.903   5.106   7.915 -1.8603  0.2508  1.4388
   73CHL1   C21 7860   0.774   5.278   7.885  0.6424  0.3502  0.1878
   73CHL1  H21A 7861   0.705   5.204   7.839 -0.7809  1.3036  0.7215
   73CHL1  H21B 7862   0.766   5.377   7.837 -0.4619 -0.8946 -2.2792
   73CHL1  H21C 7863   0.733   5.287   7.988  0.7153  1.8847  0.0894
   73CHL1   C22 7864   0.987   5.292   8.008 -0.5890  1.2169 -0.3035
   73CHL1  H22A 7865   1.097   5.280   7.999 -0.5189  1.7169 -0.1359
   73CHL1  H22B 7866   0.960   5.399   7.993 -0.9141  0.9027 -1.9797
   73CHL1   C23 7867   0.963   5.248   8.151  0.0243 -0.0879  0.6990
   73CHL1  H23A 7868   1.031   5.305   8.216 -0.6394  1.1598  0.3102
   73CHL1  H23B 7869   0.860   5.271   8.187 -0.8297 -0.0539 -1.6233
   73CHL1   C24 7870   0.983   5.101   8.182  0.2888  0.5010 -0.3991
   73CHL1  H24A 7871   0.902   5.044   8.131 -0.7762 -0.8923  2.7507
   73CHL1  H24B 7872   1.075   5.073   8.127 -0.2448  0.5029 -1.3134
   73CHL1   C25 7873   0.973   5.065   8.335  0.4528 -0.1522  0.3423
   73CHL1   H25 7874   0.981   4.955   8.349  2.3473 -0.2023 -0.9518
   73CHL1   C26 7875   1.080   5.131   8.422  0.4310 -0.1511 -1.1804
   73CHL1  H26A 7876   1.184   5.117   8.387  0.7911 -1.1364  0.2319
   73CHL1  H26B 7877   1.047   5.237   8.422 -0.8112 -0.5020  0.2453
   73CHL1  H26C 7878   1.084   5.108   8.531  0.6106  1.5745 -0.8140
   73CHL1   C27 7879   0.837   5.096   8.393  0.5892 -0.2716  0.5744
   73CHL1  H27A 7880   0.828   5.206   8.404  4.2432  0.2428 -0.7498
   73CHL1  H27B 7881   0.756   5.051   8.331  0.2657  1.0731  0.0093
   73CHL1  H27C 7882   0.842   5.047   8.492 -0.7095 -0.8336  0.3799
   74CHL1    C3 7883   5.630   4.058   6.909  0.4939 -0.2828  0.3724
   74CHL1    H3 7884   5.690   4.148   6.935  2.9238 -1.6863 -0.2569
   74CHL1    O3 7885   5.641   4.027   6.770  0.1323 -0.0527  1.0769
   74CHL1   H3' 7886   5.726   4.061   6.744  0.1298 -1.2585 -0.6114
   74CHL1    C4 7887   5.694   3.945   6.989  0.4229 -0.4744 -0.2155
   74CHL1   H4A 7888   5.660   3.852   6.938  0.3065 -0.2664 -0.5169
   74CHL1   H4B 7889   5.804   3.954   6.977  0.6438 -0.3163  1.7567
   74CHL1    C5 7890   5.662   3.927   7.135  0.4932  0.7272  0.0737
   74CHL1    C6 7891   5.761   3.930   7.232  0.3077  0.0796  0.6053
   74CHL1    H6 7892   5.865   3.952   7.206  0.5333 -0.9304  0.6552
   74CHL1    C7 7893   5.726   3.921   7.372  0.9626 -0.5345  0.7946
   74CHL1   H7A 7894   5.786   3.839   7.417  0.3058 -0.7823  1.2164
   74CHL1   H7B 7895   5.748   4.024   7.409 -2.0623  1.7708 -3.3899
   74CHL1    C8 7896   5.580   3.894   7.409  0.8794  0.0806 -0.1381
   74CHL1    H8 7897   5.560   3.788   7.382 -0.0293  0.4532 -0.9509
   74CHL1   C14 7898   5.563   3.933   7.553  0.2157  0.1683  0.4523
   74CHL1   H14 7899   5.592   4.040   7.542  0.0448  0.0811 -0.9371
   74CHL1   C15 7900   5.652   3.871   7.658  0.0064  0.1108 -0.1391
   74CHL1  H15A 7901   5.666   3.761   7.656 -0.5048 -0.0193  2.1892
   74CHL1  H15B 7902   5.757   3.905   7.647  0.3736 -1.3968 -1.4447
   74CHL1   C16 7903   5.585   3.899   7.799 -0.0951 -0.2797 -0.3882
   74CHL1  H16A 7904   5.597   3.808   7.862 -0.8074  0.0164  0.1781
   74CHL1  H16B 7905   5.623   3.984   7.860 -0.9348 -1.8247  2.3645
   74CHL1   C17 7906   5.443   3.943   7.757 -0.0390  0.6302 -1.0583
   74CHL1   H17 7907   5.430   4.054   7.756 -0.2919  0.6023 -0.8362
   74CHL1   C13 7908   5.420   3.908   7.604 -0.0987  0.0228  0.1802
   74CHL1   C18 7909   5.380   3.759   7.590 -0.1066  0.0614 -0.3679
   74CHL1  H18A 7910   5.436   3.677   7.639 -0.9356  0.1225  0.7201
   74CHL1  H18B 7911   5.275   3.752   7.626  0.1419 -0.6882  0.2325
   74CHL1  H18C 7912   5.366   3.727   7.484 -1.9804  0.7993 -0.3690
   74CHL1   C12 7913   5.328   3.996   7.526 -0.4020  0.0820  0.6687
   74CHL1  H12A 7914   5.222   4.011   7.555 -0.6738  1.1479 -0.8113
   74CHL1  H12B 7915   5.368   4.100   7.530 -0.7293  0.2326  0.1317
   74CHL1   C11 7916   5.335   3.969   7.374 -0.0870  0.1732  0.4408
   74CHL1  H11A 7917   5.293   3.867   7.361 -2.0017  1.0951 -0.9241
   74CHL1  H11B 7918   5.273   4.043   7.319 -0.1394 -1.0518 -1.1873
   74CHL1    C9 7919   5.486   3.967   7.324  0.0241 -0.0862  0.2452
   74CHL1    H9 7920   5.513   4.074   7.332 -0.3511 -0.1486  2.8470
   74CHL1   C10 7921   5.516   3.940   7.167 -0.4098 -0.0331  0.4406
   74CHL1   C19 7922   5.454   3.802   7.130  0.4472 -0.5474 -0.6649
   74CHL1  H19A 7923   5.503   3.722   7.188 -0.5985  0.3148  1.4683
   74CHL1  H19B 7924   5.345   3.809   7.149  0.9004  1.8542  1.3285
   74CHL1  H19C 7925   5.475   3.788   7.021  0.1142 -1.5624 -0.5970
   74CHL1    C1 7926   5.453   4.064   7.087 -0.3514  0.5201 -0.4514
   74CHL1   H1A 7927   5.347   4.088   7.110 -0.8215  1.0179 -3.0041
   74CHL1   H1B 7928   5.504   4.152   7.130  3.1507 -1.1161 -1.1056
   74CHL1    C2 7929   5.482   4.069   6.938  0.2786  0.5606 -0.0824
   74CHL1   H2A 7930   5.441   4.156   6.882  1.7804  1.9993  1.0150
   74CHL1   H2B 7931   5.426   3.985   6.892 -0.4757  0.4874  0.9633
   74CHL1   C20 7932   5.338   3.889   7.856 -0.6571 -0.0957 -0.0307
   74CHL1   H20 7933   5.328   3.778   7.851 -3.7782  0.0989  1.1011
   74CHL1   C21 7934   5.197   3.940   7.824 -0.3488 -0.5451 -0.4157
   74CHL1  H21A 7935   5.164   3.925   7.719 -0.7015 -1.4656 -0.1730
   74CHL1  H21B 7936   5.202   4.051   7.833 -0.8121 -0.4333 -1.4438
   74CHL1  H21C 7937   5.115   3.902   7.889  0.4272 -0.4332  0.6409
   74CHL1   C22 7938   5.368   3.925   8.002 -0.0973  0.7782 -0.9190
   74CHL1  H22A 7939   5.470   3.900   8.040  0.5556  3.4091 -0.8460
   74CHL1  H22B 7940   5.343   4.030   8.025 -3.0480 -0.1280  0.1480
   74CHL1   C23 7941   5.280   3.848   8.108  0.4573 -0.0410 -0.4858
   74CHL1  H23A 7942   5.297   3.900   8.205  0.1973 -1.9235  0.5889
   74CHL1  H23B 7943   5.172   3.849   8.082  0.3697 -1.5570 -0.1752
   74CHL1   C24 7944   5.328   3.698   8.124  0.0909 -1.1103 -0.2499
   74CHL1  H24A 7945   5.270   3.625   8.064 -1.1156 -1.5392  1.3849
   74CHL1  H24B 7946   5.430   3.686   8.084  0.4871  0.9062  0.0879
   74CHL1   C25 7947   5.318   3.655   8.272  0.4302 -0.0804 -0.3968
   74CHL1   H25 7948   5.369   3.738   8.326 -0.2417  1.6549 -2.3569
   74CHL1   C26 7949   5.170   3.630   8.310 -0.0201  0.0777 -0.0859
   74CHL1  H26A 7950   5.154   3.622   8.420  1.5117 -0.7417  0.0783
   74CHL1  H26B 7951   5.092   3.704   8.280  1.2395  0.4192 -2.6344
   74CHL1  H26C 7952   5.140   3.529   8.276 -1.0711  0.3931 -0.1143
   74CHL1   C27 7953   5.413   3.538   8.303  0.0578  0.1487 -0.6806
   74CHL1  H27A 7954   5.410   3.491   8.404  1.0471  0.5994 -0.4381
   74CHL1  H27B 7955   5.391   3.463   8.224  0.2111 -0.0802 -0.5056
   74CHL1  H27C 7956   5.517   3.574   8.287 -0.0015  1.7630  2.1282
   75CHL1    C3 7957   2.872   5.014   6.767 -0.1789 -1.0662 -0.1372
   75CHL1    H3 7958   2.895   5.123   6.767  0.5508 -1.1971  1.6323
   75CHL1    O3 7959   2.813   4.971   6.646  0.1930 -0.1095 -0.6404
   75CHL1   H3' 7960   2.718   4.969   6.658 -0.3646 -0.5588 -4.4156
   75CHL1    C4 7961   3.005   4.937   6.783  0.6964 -0.1164 -0.0674
   75CHL1   H4A 7962   2.972   4.831   6.780 -1.4677  0.5633 -1.8270
   75CHL1   H4B 7963   3.066   4.958   6.693 -0.7325  0.2160 -0.9839
   75CHL1    C5 7964   3.060   4.970   6.922 -0.7709 -0.1471  0.3816
   75CHL1    C6 7965   3.181   5.042   6.929  0.8950 -0.4774 -0.1094
   75CHL1    H6 7966   3.243   5.069   6.843 -1.0911 -0.8099 -1.6842
   75CHL1    C7 7967   3.251   5.062   7.064  0.8298 -0.6215 -0.0991
   75CHL1   H7A 7968   3.354   5.022   7.052  0.8717 -0.1409 -1.4374
   75CHL1   H7B 7969   3.252   5.170   7.091 -1.2629 -0.9146  1.2122
   75CHL1    C8 7970   3.180   4.995   7.186 -0.2299 -0.3322 -1.0125
   75CHL1    H8 7971   3.197   4.885   7.182 -0.6251 -0.4224 -0.3297
   75CHL1   C14 7972   3.223   5.049   7.321  0.6291 -0.2162 -0.6765
   75CHL1   H14 7973   3.196   5.157   7.316  2.3892  0.2710  0.2526
   75CHL1   C15 7974   3.373   5.054   7.351 -0.4652  0.2196 -0.0826
   75CHL1  H15A 7975   3.427   4.958   7.332 -0.2082 -0.1539  2.2960
   75CHL1  H15B 7976   3.429   5.134   7.299  0.5683  1.2145  2.4663
   75CHL1   C16 7977   3.385   5.073   7.506 -0.2709  0.9174  0.1622
   75CHL1  H16A 7978   3.450   4.997   7.555 -1.1330  0.5991  0.8377
   75CHL1  H16B 7979   3.416   5.177   7.528  0.8323  0.6304  0.0242
   75CHL1   C17 7980   3.236   5.061   7.558  0.4974  0.5612  0.0539
   75CHL1   H17 7981   3.181   5.157   7.571 -0.4016  0.0017  0.4625
   75CHL1   C13 7982   3.151   4.989   7.442 -0.4067 -0.6866 -0.1354
   75CHL1   C18 7983   3.181   4.834   7.453  0.5447  0.2903 -0.9157
   75CHL1  H18A 7984   3.138   4.765   7.378 -0.2923 -3.8139  3.1239
   75CHL1  H18B 7985   3.292   4.829   7.450  0.4851 -0.2916 -3.1192
   75CHL1  H18C 7986   3.152   4.784   7.548  0.0422  0.5336 -0.9419
   75CHL1   C12 7987   3.003   5.011   7.429  0.5967  0.2351 -0.6938
   75CHL1  H12A 7988   2.938   4.972   7.510  0.4996  1.4826 -0.1534
   75CHL1  H12B 7989   2.990   5.121   7.416  0.2544  0.6186  2.5482
   75CHL1   C11 7990   2.947   4.952   7.296  0.2784 -0.0248  1.2758
   75CHL1  H11A 7991   2.954   4.842   7.309 -0.3960 -0.2942 -0.5827
   75CHL1  H11B 7992   2.842   4.987   7.300 -0.5261 -2.2742  0.5071
   75CHL1    C9 7993   3.027   5.008   7.171  0.1460  0.2193  0.2714
   75CHL1    H9 7994   3.003   5.117   7.168 -1.2274 -0.0038  2.2286
   75CHL1   C10 7995   2.974   4.937   7.041  0.2181 -0.0473  0.0720
   75CHL1   C19 7996   2.972   4.783   7.055  0.3622 -0.0465  0.2469
   75CHL1  H19A 7997   2.914   4.748   7.143  2.7295 -1.5234  1.2803
   75CHL1  H19B 7998   2.929   4.733   6.966 -1.5652  0.6715  0.7517
   75CHL1  H19C 7999   3.075   4.742   7.069  0.2396 -0.4470 -0.0278
   75CHL1    C1 8000   2.829   4.988   7.017  0.3467  0.4325 -0.0276
   75CHL1   H1A 8001   2.768   4.946   7.101 -1.6553  2.7562 -0.2541
   75CHL1   H1B 8002   2.843   5.098   7.030 -0.7771  0.3461  2.3118
   75CHL1    C2 8003   2.771   4.974   6.877 -0.6572 -0.0331 -0.0258
   75CHL1   H2A 8004   2.671   5.020   6.863 -0.8641 -0.3564  0.3966
   75CHL1   H2B 8005   2.762   4.864   6.867  2.9771 -0.4759  0.9835
   75CHL1   C20 8006   3.232   4.986   7.696 -0.0187  0.8232 -0.0995
   75CHL1   H20 8007   3.283   4.887   7.696  0.1538  0.9118  0.0231
   75CHL1   C21 8008   3.084   4.959   7.744  0.3000 -0.5232  1.0359
   75CHL1  H21A 8009   3.084   4.902   7.839 -0.6739  0.3619  1.5836
   75CHL1  H21B 8010   3.032   4.886   7.678  1.3167 -1.4404  1.2425
   75CHL1  H21C 8011   3.026   5.054   7.750  0.3078 -0.4079 -0.5713
   75CHL1   C22 8012   3.311   5.071   7.813  0.0699 -0.2016  1.7869
   75CHL1  H22A 8013   3.407   5.117   7.782  0.3380 -0.2297  2.5786
   75CHL1  H22B 8014   3.248   5.156   7.846 -0.4416 -0.2552  0.9712
   75CHL1   C23 8015   3.341   4.981   7.936 -0.5980 -0.3860 -1.2817
   75CHL1  H23A 8016   3.244   4.944   7.976  0.1490 -1.1551 -0.1562
   75CHL1  H23B 8017   3.405   4.896   7.903 -0.8907 -0.6994 -1.0532
   75CHL1   C24 8018   3.405   5.070   8.051 -0.5787  0.0403 -0.5651
   75CHL1  H24A 8019   3.497   5.120   8.016  0.0289  1.3700  2.7046
   75CHL1  H24B 8020   3.336   5.156   8.069  2.0867  2.1970 -0.3390
   75CHL1   C25 8021   3.445   4.994   8.186  0.0658 -0.5631  0.8656
   75CHL1   H25 8022   3.382   4.904   8.198 -0.8651 -0.0207  0.1529
   75CHL1   C26 8023   3.592   4.946   8.171 -0.6626 -0.0858  0.5468
   75CHL1  H26A 8024   3.638   4.895   8.258 -2.3129 -1.3514  0.6978
   75CHL1  H26B 8025   3.606   4.874   8.088  0.0325  0.3420  0.2879
   75CHL1  H26C 8026   3.667   5.026   8.152  0.2433 -1.0090  0.2550
   75CHL1   C27 8027   3.414   5.081   8.318 -0.0107  0.1046  1.3539
   75CHL1  H27A 8028   3.452   5.041   8.415 -1.6899 -1.1693  1.4990
   75CHL1  H27B 8029   3.461   5.182   8.308  1.1213 -0.6055 -0.7827
   75CHL1  H27C 8030   3.304   5.098   8.324  0.1210  0.7038  2.3103
   76CHL1    C3 8031   6.742   0.703   7.258 -0.4138  0.0410 -0.3425
   76CHL1    H3 8032   6.853   0.703   7.255 -0.4105 -0.1293 -0.2504
   76CHL1    O3 8033   6.701   0.691   7.126 -0.2892 -0.3460 -0.1154
   76CHL1   H3' 8034   6.737   0.605   7.106  1.6742  0.6582 -1.0969
   76CHL1    C4 8035   6.689   0.580   7.345  0.3284  0.0190 -0.3731
   76CHL1   H4A 8036   6.578   0.574   7.341  0.4446 -2.8485  0.0853
   76CHL1   H4B 8037   6.720   0.485   7.296  3.8209  0.7789  0.2131
   76CHL1    C5 8038   6.741   0.591   7.480  0.0497 -0.0363 -0.3156
   76CHL1    C6 8039   6.815   0.495   7.523 -0.3724  0.2856  0.1412
   76CHL1    H6 8040   6.855   0.418   7.456 -0.4976 -0.2056  0.6330
   76CHL1    C7 8041   6.863   0.491   7.660  0.0427 -0.5124  0.2098
   76CHL1   H7A 8042   6.851   0.386   7.695  1.7628 -0.8207 -0.1137
   76CHL1   H7B 8043   6.971   0.515   7.667  0.0703 -0.3905 -0.5792
   76CHL1    C8 8044   6.782   0.588   7.757 -0.2281 -0.1175  0.0433
   76CHL1    H8 8045   6.679   0.549   7.764 -0.7179  0.9316 -1.2387
   76CHL1   C14 8046   6.835   0.591   7.899 -0.3330 -0.5139  0.3614
   76CHL1   H14 8047   6.938   0.631   7.883 -1.6854  3.0916  0.2376
   76CHL1   C15 8048   6.867   0.473   7.983  0.8623 -0.0912 -0.1508
   76CHL1  H15A 8049   6.784   0.400   7.978  0.3026  0.5573 -0.3201
   76CHL1  H15B 8050   6.955   0.418   7.943  1.8231 -0.7538  2.7345
   76CHL1   C16 8051   6.880   0.521   8.129  0.1615 -0.1722  0.1479
   76CHL1  H16A 8052   6.796   0.470   8.180  0.0959  1.8016  2.0794
   76CHL1  H16B 8053   6.977   0.498   8.178 -0.2279 -0.3547  0.8347
   76CHL1   C17 8054   6.860   0.672   8.113 -0.3798  0.1225 -0.2565
   76CHL1   H17 8055   6.960   0.717   8.096 -0.9524  1.3256 -0.5261
   76CHL1   C13 8056   6.773   0.700   7.983  0.6855  0.3841  0.2453
   76CHL1   C18 8057   6.626   0.661   8.013 -0.0376  0.6103  0.0526
   76CHL1  H18A 8058   6.571   0.639   7.919 -0.1384  1.7754 -0.1701
   76CHL1  H18B 8059   6.629   0.566   8.070  0.3333  0.2709 -0.5292
   76CHL1  H18C 8060   6.566   0.735   8.071 -1.5287 -1.3051  1.0143
   76CHL1   C12 8061   6.790   0.834   7.913  0.7727 -0.1415  0.4512
   76CHL1  H12A 8062   6.742   0.912   7.975  0.2151  0.9034 -1.2374
   76CHL1  H12B 8063   6.896   0.862   7.894  0.9927 -0.8397  0.6375
   76CHL1   C11 8064   6.716   0.836   7.778  1.0271 -0.1929 -0.0770
   76CHL1  H11A 8065   6.607   0.826   7.800  0.5391  0.9795 -1.8550
   76CHL1  H11B 8066   6.734   0.934   7.728 -2.0984  0.3247 -0.3132
   76CHL1    C9 8067   6.777   0.727   7.688 -0.0799 -0.1030  0.4120
   76CHL1    H9 8068   6.879   0.766   7.669 -0.7625  0.1513 -3.0498
   76CHL1   C10 8069   6.708   0.723   7.554 -0.0938  0.1845 -0.1236
   76CHL1   C19 8070   6.550   0.739   7.571  0.0837 -0.1465  0.4414
   76CHL1  H19A 8071   6.496   0.721   7.476  0.2577  2.1605 -0.1309
   76CHL1  H19B 8072   6.515   0.666   7.648 -0.8301 -0.0613  0.1091
   76CHL1  H19C 8073   6.528   0.842   7.606  1.1882  0.7147 -1.3463
   76CHL1    C1 8074   6.755   0.840   7.458 -0.0118  0.3504  0.5952
   76CHL1   H1A 8075   6.731   0.934   7.512 -0.5800  0.1780  0.6449
   76CHL1   H1B 8076   6.864   0.860   7.457 -0.1812  1.2012 -0.2575
   76CHL1    C2 8077   6.698   0.835   7.319 -0.2595 -0.5319 -0.8693
   76CHL1   H2A 8078   6.725   0.928   7.265 -2.4805  0.9594  0.4844
   76CHL1   H2B 8079   6.587   0.849   7.314 -0.1330  0.3951 -1.4122
   76CHL1   C20 8080   6.793   0.730   8.242  0.6248 -0.2506 -0.0056
   76CHL1   H20 8081   6.686   0.700   8.253  0.3607  0.7487  0.2174
   76CHL1   C21 8082   6.776   0.892   8.244  0.6645  0.1498 -0.0248
   76CHL1  H21A 8083   6.876   0.924   8.209  0.3515  0.8501 -0.2741
   76CHL1  H21B 8084   6.748   0.929   8.345 -0.7415  0.4587 -0.5218
   76CHL1  H21C 8085   6.688   0.919   8.183  0.3728  0.2689  0.4456
   76CHL1   C22 8086   6.866   0.685   8.375 -0.2890  0.1208  0.6383
   76CHL1  H22A 8087   6.822   0.744   8.458  2.0121  0.9050  1.3479
   76CHL1  H22B 8088   6.857   0.576   8.393  3.3393 -0.3785 -0.1934
   76CHL1   C23 8089   7.014   0.720   8.382 -0.0669 -0.0540  0.0844
   76CHL1  H23A 8090   7.061   0.660   8.301  0.0038  1.0937 -0.7386
   76CHL1  H23B 8091   7.021   0.826   8.349  2.9783  0.3095  1.7871
   76CHL1   C24 8092   7.084   0.706   8.517 -0.4646  0.8274 -0.1434
   76CHL1  H24A 8093   7.043   0.613   8.564  0.3352  0.4313 -0.2355
   76CHL1  H24B 8094   7.191   0.693   8.493 -0.7340  0.1209 -0.9653
   76CHL1   C25 8095   7.055   0.824   8.614  0.1491  0.7621  0.0018
   76CHL1   H25 8096   6.944   0.821   8.626  0.1074  0.3130 -0.4783
   76CHL1   C26 8097   7.127   0.795   8.753  0.4240 -0.7083 -0.3318
   76CHL1  H26A 8098   7.120   0.689   8.788  1.6770 -1.5184 -2.4068
   76CHL1  H26B 8099   7.236   0.806   8.732  0.2999  0.6515 -0.2717
   76CHL1  H26C 8100   7.105   0.873   8.828  1.1124 -0.7432 -0.0942
   76CHL1   C27 8101   7.105   0.955   8.565  0.4023 -0.2754  0.0226
   76CHL1  H27A 8102   7.095   1.028   8.648  1.1956 -2.7946  2.4392
   76CHL1  H27B 8103   7.209   0.948   8.526  0.2905  0.7708 -0.4708
   76CHL1  H27C 8104   7.043   0.996   8.483  0.9400  1.8670  0.6448
   77CHL1    C3 8105   0.382   5.519   6.714  0.3201 -0.8883 -0.1855
   77CHL1    H3 8106   0.356   5.626   6.727 -0.4142 -1.3851  2.7452
   77CHL1    O3 8107   0.398   5.482   6.580 -0.3069 -0.3029  0.5756
   77CHL1   H3' 8108   0.476   5.427   6.574 -0.6755 -0.5964 -2.3068
   77CHL1    C4 8109   0.503   5.485   6.792  0.7814 -0.5789 -0.5826
   77CHL1   H4A 8110   0.526   5.378   6.772 -0.8888 -0.6113 -2.4285
   77CHL1   H4B 8111   0.588   5.545   6.752  0.9071 -1.0431 -1.0125
   77CHL1    C5 8112   0.488   5.501   6.940  0.2553  0.6708 -0.0430
   77CHL1    C6 8113   0.572   5.576   7.015  0.5337  0.0708  0.0861
   77CHL1    H6 8114   0.656   5.629   6.968 -0.4672  0.7697 -0.9270
   77CHL1    C7 8115   0.560   5.587   7.167 -0.2052 -0.4803  0.4400
   77CHL1   H7A 8116   0.657   5.574   7.221  0.9308 -1.8460 -1.8318
   77CHL1   H7B 8117   0.524   5.689   7.192  1.8723  0.9878 -2.2088
   77CHL1    C8 8118   0.470   5.477   7.233 -0.4690 -0.4796  0.2402
   77CHL1    H8 8119   0.520   5.377   7.234 -2.4139 -1.4990  2.0360
   77CHL1   C14 8120   0.445   5.522   7.370  0.0468  0.8017 -0.4880
   77CHL1   H14 8121   0.386   5.616   7.365 -0.8764  0.3238  1.2983
   77CHL1   C15 8122   0.566   5.556   7.464 -0.7170 -0.6056  0.4411
   77CHL1  H15A 8123   0.648   5.483   7.446 -0.7599 -0.4401 -0.4540
   77CHL1  H15B 8124   0.606   5.658   7.445  0.0467 -1.0890 -0.5732
   77CHL1   C16 8125   0.507   5.540   7.600 -0.8467 -0.5851 -0.2349
   77CHL1  H16A 8126   0.571   5.463   7.649 -2.7772 -1.5689  0.8425
   77CHL1  H16B 8127   0.504   5.634   7.659  0.5201 -0.4409 -0.3939
   77CHL1   C17 8128   0.356   5.501   7.584 -0.1586  0.8332 -0.2618
   77CHL1   H17 8129   0.295   5.593   7.569  0.2266  1.1461  0.0663
   77CHL1   C13 8130   0.347   5.429   7.448  0.0556  0.0820 -0.0133
   77CHL1   C18 8131   0.406   5.287   7.454  0.4587  0.4156 -0.8485
   77CHL1  H18A 8132   0.331   5.223   7.505  2.1151 -1.0662 -0.2080
   77CHL1  H18B 8133   0.416   5.240   7.354  0.3693  0.5390 -0.9152
   77CHL1  H18C 8134   0.504   5.273   7.503 -0.3903 -1.3391  0.4033
   77CHL1   C12 8135   0.209   5.431   7.380  0.2321  0.2096  0.1132
   77CHL1  H12A 8136   0.147   5.355   7.432  1.2123 -0.1394  0.7938
   77CHL1  H12B 8137   0.169   5.534   7.391 -0.5247  0.2157 -2.3355
   77CHL1   C11 8138   0.223   5.390   7.229  0.5128 -0.3695 -0.1698
   77CHL1  H11A 8139   0.239   5.280   7.230  0.2219 -0.4119  0.4548
   77CHL1  H11B 8140   0.123   5.401   7.182  1.2009 -3.4928 -2.4620
   77CHL1    C9 8141   0.342   5.469   7.155 -0.3289  0.5917  0.6860
   77CHL1    H9 8142   0.306   5.573   7.143 -1.8673 -0.2970 -3.6815
   77CHL1   C10 8143   0.368   5.428   7.005  0.0484  0.3798  0.0859
   77CHL1   C19 8144   0.379   5.274   7.003 -0.0149  1.0273 -0.1784
   77CHL1  H19A 8145   0.291   5.210   7.027  0.0262  1.3270  0.8026
   77CHL1  H19B 8146   0.413   5.246   6.901  0.0288  1.4666 -0.2845
   77CHL1  H19C 8147   0.464   5.243   7.067 -0.3472 -2.2290 -1.2202
   77CHL1    C1 8148   0.243   5.460   6.918 -0.0444 -0.1688 -0.4943
   77CHL1   H1A 8149   0.160   5.391   6.944  1.2953 -1.8106 -0.5070
   77CHL1   H1B 8150   0.213   5.567   6.931  0.4992  0.0395 -0.9153
   77CHL1    C2 8151   0.254   5.444   6.764  0.6880 -0.4550  0.2244
   77CHL1   H2A 8152   0.166   5.495   6.719 -0.5322 -2.6458  0.0865
   77CHL1   H2B 8153   0.254   5.337   6.735  0.2014 -0.1580 -0.9009
   77CHL1   C20 8154   0.297   5.432   7.705 -0.3708 -0.3814  0.0084
   77CHL1   H20 8155   0.211   5.378   7.660 -0.9202  1.6342 -1.4424
   77CHL1   C21 8156   0.222   5.533   7.796 -0.2152  0.6346 -0.2723
   77CHL1  H21A 8157   0.159   5.470   7.862  0.5950  1.1426  0.9945
   77CHL1  H21B 8158   0.150   5.600   7.744 -0.4631  1.3257  0.9458
   77CHL1  H21C 8159   0.295   5.588   7.859 -0.8681  0.6914  0.4410
   77CHL1   C22 8160   0.398   5.339   7.783 -0.3069 -0.0263  0.3942
   77CHL1  H22A 8161   0.436   5.261   7.713 -0.1471 -1.0624  1.6350
   77CHL1  H22B 8162   0.479   5.404   7.821  0.9340 -2.5689  2.1963
   77CHL1   C23 8163   0.333   5.272   7.908  0.0939  0.6983 -0.5853
   77CHL1  H23A 8164   0.294   5.342   7.985 -3.3278  0.1150 -1.6850
   77CHL1  H23B 8165   0.249   5.207   7.873  2.0202 -2.4675  0.5013
   77CHL1   C24 8166   0.436   5.182   7.979  0.2337  0.1930 -0.6847
   77CHL1  H24A 8167   0.494   5.138   7.895 -1.0483  0.3799 -1.6841
   77CHL1  H24B 8168   0.504   5.256   8.029  0.7603 -1.1825  0.6719
   77CHL1   C25 8169   0.386   5.069   8.077  0.1084  0.7361 -0.1317
   77CHL1   H25 8170   0.304   5.112   8.139 -1.0965  1.5163 -2.2148
   77CHL1   C26 8171   0.329   4.943   8.014 -0.5540 -0.2464  0.5823
   77CHL1  H26A 8172   0.305   4.859   8.082 -1.1150  0.5206  1.3394
   77CHL1  H26B 8173   0.233   4.967   7.962 -0.4265 -0.3047  0.3207
   77CHL1  H26C 8174   0.403   4.908   7.939 -0.8584  0.2956  0.0146
   77CHL1   C27 8175   0.510   5.034   8.155  0.0126 -0.4172 -0.7204
   77CHL1  H27A 8176   0.482   4.997   8.256  0.9050  1.9852  0.4497
   77CHL1  H27B 8177   0.579   4.963   8.105  0.2975 -1.6132  1.2980
   77CHL1  H27C 8178   0.571   5.124   8.178  0.5223 -1.0792  0.5890
   78CHL1    C3 8179   2.719   0.267   6.735 -0.0553 -0.7049 -0.0259
   78CHL1    H3 8180   2.799   0.344   6.739 -0.5784 -0.2230  3.1882
   78CHL1    O3 8181   2.654   0.274   6.608  0.4822  0.1072 -0.6881
   78CHL1   H3' 8182   2.597   0.351   6.605 -0.7601 -0.7750  0.1269
   78CHL1    C4 8183   2.769   0.122   6.761 -0.1015 -0.7046  0.0520
   78CHL1   H4A 8184   2.687   0.048   6.746 -2.1270  1.4733  0.0310
   78CHL1   H4B 8185   2.844   0.094   6.684 -0.0031  1.7392 -0.8021
   78CHL1    C5 8186   2.824   0.110   6.896  0.1145  0.1792  0.2660
   78CHL1    C6 8187   2.953   0.079   6.925  0.0042 -0.3381 -0.6041
   78CHL1    H6 8188   3.020   0.053   6.842  0.7678 -1.8731  0.4776
   78CHL1    C7 8189   3.019   0.075   7.059  0.2820 -0.0630  0.1090
   78CHL1   H7A 8190   3.082  -0.016   7.062 -1.5208 -1.4270 -1.8529
   78CHL1   H7B 8191   3.077   0.169   7.068  0.7512 -0.2534 -0.8210
   78CHL1    C8 8192   2.917   0.066   7.176  0.1935 -0.0594 -0.3586
   78CHL1    H8 8193   2.873  -0.036   7.176 -1.7619  0.7548 -0.5107
   78CHL1   C14 8194   2.980   0.104   7.311 -0.0706 -0.6208  0.5410
   78CHL1   H14 8195   3.003   0.213   7.304 -0.7717 -0.2921  3.0626
   78CHL1   C15 8196   3.108   0.029   7.348 -0.7625 -0.4204 -0.5911
   78CHL1  H15A 8197   3.099  -0.080   7.328 -0.8989  0.0116 -3.0787
   78CHL1  H15B 8198   3.195   0.071   7.293 -0.9988 -0.8904 -1.3312
   78CHL1   C16 8199   3.129   0.060   7.497  0.2847 -0.2454  0.1477
   78CHL1  H16A 8200   3.142  -0.033   7.557 -0.1062 -0.5484 -0.2338
   78CHL1  H16B 8201   3.209   0.133   7.522 -0.4564  0.2164  1.2184
   78CHL1   C17 8202   2.985   0.118   7.543  0.2409  0.5895  0.1758
   78CHL1   H17 8203   2.989   0.228   7.554  1.4666  0.3711  2.2466
   78CHL1   C13 8204   2.890   0.095   7.427 -0.6398 -0.1748  0.0161
   78CHL1   C18 8205   2.825  -0.044   7.431 -0.2352  0.5678  0.1389
   78CHL1  H18A 8206   2.745  -0.054   7.354 -0.6195 -1.3499  0.7630
   78CHL1  H18B 8207   2.894  -0.129   7.413 -0.4638  0.2882  0.5679
   78CHL1  H18C 8208   2.782  -0.061   7.532  0.9904  0.5823  0.6735
   78CHL1   C12 8209   2.779   0.198   7.407 -0.4169 -0.6329  0.5312
   78CHL1  H12A 8210   2.699   0.193   7.485  0.0488 -0.3188  1.0341
   78CHL1  H12B 8211   2.814   0.303   7.411  0.7433 -1.0386  1.3237
   78CHL1   C11 8212   2.706   0.188   7.270  0.8164  0.4541 -0.2496
   78CHL1  H11A 8213   2.639   0.100   7.277  3.2412 -1.2419  2.4659
   78CHL1  H11B 8214   2.639   0.275   7.249 -0.5465 -0.7993 -1.2069
   78CHL1    C9 8215   2.801   0.169   7.147 -0.7746  0.4246 -0.7762
   78CHL1    H9 8216   2.842   0.271   7.135 -0.3005  0.0769 -2.2417
   78CHL1   C10 8217   2.731   0.153   7.010 -0.0925  0.0788  0.0080
   78CHL1   C19 8218   2.629   0.035   7.017 -0.4958 -0.4597  0.1896
   78CHL1  H19A 8219   2.567   0.052   7.107  1.9353  2.7056  1.3413
   78CHL1  H19B 8220   2.556   0.033   6.933 -1.1787 -0.5450  0.7820
   78CHL1  H19C 8221   2.684  -0.061   7.029  1.5047  0.6134 -0.1355
   78CHL1    C1 8222   2.648   0.285   6.987  0.0243  0.4797 -0.2108
   78CHL1   H1A 8223   2.545   0.286   7.029  0.1761 -0.8390  0.2120
   78CHL1   H1B 8224   2.701   0.374   7.027 -2.5935  0.1211  4.4568
   78CHL1    C2 8225   2.605   0.302   6.836  0.9764 -0.0719 -0.6849
   78CHL1   H2A 8226   2.576   0.408   6.815 -0.6830 -0.5502 -0.8810
   78CHL1   H2B 8227   2.517   0.236   6.823  1.1377 -0.4015 -0.1156
   78CHL1   C20 8228   2.945   0.076   7.684  0.2492  0.2326  0.0521
   78CHL1   H20 8229   2.920  -0.032   7.691 -0.7287  0.5211  1.1535
   78CHL1   C21 8230   2.811   0.140   7.727 -0.1650 -0.5951  0.1074
   78CHL1  H21A 8231   2.787   0.241   7.687 -1.2051 -1.3531 -1.2461
   78CHL1  H21B 8232   2.801   0.145   7.838  1.2823 -1.6392  0.2970
   78CHL1  H21C 8233   2.723   0.080   7.693  0.1549 -1.1446  0.2390
   78CHL1   C22 8234   3.061   0.114   7.780  1.2058  0.1008  0.8027
   78CHL1  H22A 8235   3.158   0.068   7.752  0.1745 -0.7418 -1.4695
   78CHL1  H22B 8236   3.080   0.223   7.769 -1.7137  0.4892 -1.2175
   78CHL1   C23 8237   3.036   0.066   7.928  0.2968  0.7587 -0.2317
   78CHL1  H23A 8238   2.938   0.111   7.957 -0.3484 -0.1489 -0.9707
   78CHL1  H23B 8239   3.025  -0.045   7.929 -0.9198  0.8655  1.8796
   78CHL1   C24 8240   3.148   0.111   8.015 -0.5502 -0.2690  0.4745
   78CHL1  H24A 8241   3.244   0.084   7.966  0.1850  2.7478  0.1615
   78CHL1  H24B 8242   3.148   0.222   8.026 -1.2240 -0.0046 -1.7616
   78CHL1   C25 8243   3.157   0.059   8.166 -0.6192 -0.7115  0.6334
   78CHL1   H25 8244   3.189  -0.047   8.159 -0.4486 -0.6889  1.0447
   78CHL1   C26 8245   3.272   0.135   8.234 -0.1886 -0.0700  0.0011
   78CHL1  H26A 8246   3.367   0.127   8.177  0.2139 -0.1000  0.6729
   78CHL1  H26B 8247   3.244   0.242   8.235  0.7674  0.1850  0.2398
   78CHL1  H26C 8248   3.281   0.091   8.336 -0.7397 -1.4825 -0.5453
   78CHL1   C27 8249   3.018   0.080   8.241 -0.3748 -0.0345 -0.2707
   78CHL1  H27A 8250   3.045   0.066   8.348 -4.4519  1.8990  1.1347
   78CHL1  H27B 8251   2.968   0.176   8.216 -0.1411  0.1577 -0.0211
   78CHL1  H27C 8252   2.949   0.001   8.206 -0.9505  0.4168 -0.1767
   79CHL1    C3 8253   0.696   6.457   7.291 -0.1631 -0.5751 -0.3500
   79CHL1    H3 8254   0.587   6.435   7.292 -0.2472 -0.1150  1.5880
   79CHL1    O3 8255   0.736   6.458   7.162 -0.1240 -0.1553  0.1439
   79CHL1   H3' 8256   0.650   6.473   7.123  0.6566 -1.1421 -2.0507
   79CHL1    C4 8257   0.729   6.591   7.356 -0.1044  0.0794 -0.2676
   79CHL1   H4A 8258   0.839   6.608   7.357  0.0598 -0.9613  0.1311
   79CHL1   H4B 8259   0.685   6.667   7.288 -2.0443 -0.5826  0.2282
   79CHL1    C5 8260   0.668   6.596   7.497  0.1026  0.0138  0.0787
   79CHL1    C6 8261   0.586   6.696   7.533  0.0837  0.6664  0.2740
   79CHL1    H6 8262   0.560   6.769   7.455  0.3424  0.0508 -0.3940
   79CHL1    C7 8263   0.531   6.709   7.674 -0.3575 -1.0672 -0.0818
   79CHL1   H7A 8264   0.538   6.816   7.700  2.7867 -0.6989 -2.1751
   79CHL1   H7B 8265   0.428   6.665   7.675 -0.6202 -0.5361 -2.1238
   79CHL1    C8 8266   0.615   6.628   7.771 -0.3171  0.9563 -0.5363
   79CHL1    H8 8267   0.717   6.670   7.777  0.2357 -0.0813 -2.4853
   79CHL1   C14 8268   0.558   6.641   7.915 -0.4849  0.0771 -1.2168
   79CHL1   H14 8269   0.450   6.614   7.912 -1.0842  2.2774 -1.0365
   79CHL1   C15 8270   0.545   6.778   7.976  0.5171  0.0941 -0.4396
   79CHL1  H15A 8271   0.625   6.844   7.935  1.0685  0.0210  0.5194
   79CHL1  H15B 8272   0.449   6.824   7.942  0.1420  1.3670  2.2687
   79CHL1   C16 8273   0.557   6.753   8.124 -0.2557 -0.7155  0.1249
   79CHL1  H16A 8274   0.653   6.793   8.165 -0.0727  2.6016 -3.3545
   79CHL1  H16B 8275   0.474   6.801   8.180  0.4354  1.5951 -0.8062
   79CHL1   C17 8276   0.554   6.596   8.147 -0.5763 -0.8849  0.2168
   79CHL1   H17 8277   0.444   6.580   8.149 -1.0397  2.0838  1.0825
   79CHL1   C13 8278   0.628   6.553   8.025 -0.7381  0.3098  0.6466
   79CHL1   C18 8279   0.776   6.583   8.042 -0.1959  0.5879 -0.4143
   79CHL1  H18A 8280   0.789   6.692   8.058  0.1516  0.2888  1.5436
   79CHL1  H18B 8281   0.812   6.527   8.132 -0.2299  1.0350 -0.1226
   79CHL1  H18C 8282   0.835   6.548   7.955 -0.5956  0.0589 -0.4769
   79CHL1   C12 8283   0.615   6.404   7.981  0.6159 -0.6856  0.4470
   79CHL1  H12A 8284   0.669   6.339   8.054  2.6159  2.6936  2.0954
   79CHL1  H12B 8285   0.506   6.384   7.974  0.2669  1.3847 -0.3329
   79CHL1   C11 8286   0.680   6.384   7.840  0.0854  0.7924  0.0865
   79CHL1  H11A 8287   0.791   6.387   7.849 -0.0285 -1.4326  2.7380
   79CHL1  H11B 8288   0.657   6.277   7.824 -2.6541  1.4241 -0.5215
   79CHL1    C9 8289   0.627   6.482   7.724  0.8103  0.5171 -0.4647
   79CHL1    H9 8290   0.519   6.457   7.717  1.2499 -1.4204 -0.4882
   79CHL1   C10 8291   0.711   6.479   7.589 -0.6452 -0.0720 -0.4358
   79CHL1   C19 8292   0.856   6.509   7.631 -0.1769 -0.1967 -0.3569
   79CHL1  H19A 8293   0.866   6.613   7.670 -1.2623 -0.0463 -0.4504
   79CHL1  H19B 8294   0.904   6.445   7.708 -2.2385 -0.9186  0.3626
   79CHL1  H19C 8295   0.913   6.490   7.538 -0.7726  1.3630 -1.0770
   79CHL1    C1 8296   0.704   6.344   7.520 -0.2675 -0.0353  0.4140
   79CHL1   H1A 8297   0.753   6.268   7.585  1.3916  0.5393 -0.1361
   79CHL1   H1B 8298   0.598   6.310   7.518 -0.1627 -0.6347  3.1094
   79CHL1    C2 8299   0.757   6.341   7.372  0.6372  0.5822  0.0215
   79CHL1   H2A 8300   0.712   6.243   7.346 -1.1883  0.8583  2.0172
   79CHL1   H2B 8301   0.868   6.340   7.364  0.7165 -0.4718  1.1998
   79CHL1   C20 8302   0.605   6.556   8.283 -0.2624 -0.8439  0.4304
   79CHL1   H20 8303   0.716   6.566   8.287 -0.3254  0.2755 -0.3049
   79CHL1   C21 8304   0.574   6.409   8.302 -0.1804 -0.2944 -0.1912
   79CHL1  H21A 8305   0.585   6.388   8.411  0.4644 -2.5233 -0.6653
   79CHL1  H21B 8306   0.651   6.349   8.249 -0.3462  1.2854 -2.2608
   79CHL1  H21C 8307   0.469   6.390   8.270 -0.9315  1.9959  0.8153
   79CHL1   C22 8308   0.550   6.643   8.396  0.2439 -0.0407  0.3836
   79CHL1  H22A 8309   0.570   6.752   8.394  0.3269 -0.0395  1.0602
   79CHL1  H22B 8310   0.442   6.618   8.400  0.1119  0.6981  1.4030
   79CHL1   C23 8311   0.620   6.613   8.526 -0.4172 -0.7507  0.7327
   79CHL1  H23A 8312   0.600   6.505   8.546 -3.5604 -0.7715 -2.1949
   79CHL1  H23B 8313   0.728   6.621   8.502 -0.7360  0.9341 -0.1790
   79CHL1   C24 8314   0.580   6.698   8.653 -0.7949  0.1725 -0.2608
   79CHL1  H24A 8315   0.603   6.806   8.641 -0.3447  0.3588  1.9686
   79CHL1  H24B 8316   0.471   6.681   8.669 -0.5246  0.5600  2.3097
   79CHL1   C25 8317   0.662   6.642   8.774 -0.2116  0.2424  0.3287
   79CHL1   H25 8318   0.631   6.536   8.786 -2.5024  0.8799  0.2063
   79CHL1   C26 8319   0.816   6.655   8.759 -0.2810 -0.2885 -0.6080
   79CHL1  H26A 8320   0.852   6.752   8.719 -1.5879  0.2107 -0.5860
   79CHL1  H26B 8321   0.860   6.645   8.860  0.8552 -1.2067 -1.1815
   79CHL1  H26C 8322   0.861   6.587   8.683  0.4897 -1.3118  0.7329
   79CHL1   C27 8323   0.615   6.707   8.903 -0.5242  1.1199  0.0235
   79CHL1  H27A 8324   0.513   6.672   8.927 -0.1549 -1.5686 -2.0965
   79CHL1  H27B 8325   0.687   6.676   8.982 -0.2607 -1.2321 -1.1215
   79CHL1  H27C 8326   0.617   6.818   8.893 -1.3272  1.2891  1.6219
   80CHL1    C3 8327   6.069   4.438   7.132  0.0057  0.3386 -0.3425
   80CHL1    H3 8328   5.997   4.376   7.189 -0.8603  0.5394 -1.2131
   80CHL1    O3 8329   6.036   4.436   6.997 -0.3013  0.5567  0.3849
   80CHL1   H3' 8330   6.053   4.521   6.956  2.0980 -0.1534 -0.2031
   80CHL1    C4 8331   6.060   4.590   7.184  0.4645 -0.1196  0.6171
   80CHL1   H4A 8332   6.116   4.651   7.111 -2.6768  4.4968  1.8139
   80CHL1   H4B 8333   5.956   4.629   7.181  0.7654  0.6567  0.2388
   80CHL1    C5 8334   6.106   4.605   7.328  0.4835 -0.1927  0.6164
   80CHL1    C6 8335   6.023   4.669   7.417 -0.0080  0.0571  0.1930
   80CHL1    H6 8336   5.932   4.723   7.390  0.8227  1.5195  0.2452
   80CHL1    C7 8337   6.061   4.685   7.563 -0.4070 -0.2269 -0.0341
   80CHL1   H7A 8338   6.059   4.792   7.594 -0.8639  0.3785 -2.0823
   80CHL1   H7B 8339   5.993   4.632   7.633 -2.6465  0.5174 -1.5909
   80CHL1    C8 8340   6.205   4.630   7.596  0.3132 -0.2895 -0.7241
   80CHL1    H8 8341   6.278   4.709   7.569  0.1833  0.9274  2.3292
   80CHL1   C14 8342   6.215   4.601   7.742  0.7798 -0.6714  0.6298
   80CHL1   H14 8343   6.146   4.517   7.764 -0.5361  0.2050 -0.0943
   80CHL1   C15 8344   6.165   4.714   7.842  0.3178  0.1092  0.7586
   80CHL1  H15A 8345   6.187   4.809   7.788  0.9748  0.5810  1.8471
   80CHL1  H15B 8346   6.057   4.708   7.865 -0.4846 -0.8373 -2.8271
   80CHL1   C16 8347   6.247   4.696   7.964 -0.4701  0.1415 -0.4520
   80CHL1  H16A 8348   6.319   4.780   7.964 -2.1233  1.6302 -2.8518
   80CHL1  H16B 8349   6.198   4.701   8.063  1.4770 -1.9921  0.6569
   80CHL1   C17 8350   6.319   4.564   7.939  0.8213  1.0916 -0.8402
   80CHL1   H17 8351   6.256   4.474   7.958  0.3380  1.2329 -1.7282
   80CHL1   C13 8352   6.348   4.557   7.790 -0.1315  0.3463 -0.6456
   80CHL1   C18 8353   6.457   4.652   7.760 -0.4812 -0.1103 -0.3845
   80CHL1  H18A 8354   6.550   4.630   7.816 -0.6840 -0.4429 -0.1750
   80CHL1  H18B 8355   6.484   4.642   7.652 -1.1949 -1.5199 -0.4507
   80CHL1  H18C 8356   6.423   4.755   7.781  1.8978  0.5326  0.3211
   80CHL1   C12 8357   6.376   4.418   7.730 -0.6419 -0.2520 -0.1187
   80CHL1  H12A 8358   6.482   4.404   7.760 -0.4944  2.8120  0.9437
   80CHL1  H12B 8359   6.311   4.338   7.771 -0.0745 -0.5038  0.2954
   80CHL1   C11 8360   6.373   4.424   7.576  0.4120  0.2108  0.2054
   80CHL1  H11A 8361   6.455   4.486   7.533  0.0630  0.6739  0.2031
   80CHL1  H11B 8362   6.378   4.319   7.540 -0.2656  0.8212 -1.7606
   80CHL1    C9 8363   6.236   4.497   7.524 -0.2033 -0.3575 -0.7142
   80CHL1    H9 8364   6.152   4.427   7.544  0.9286 -1.2935  0.9377
   80CHL1   C10 8365   6.232   4.523   7.368 -0.0168  0.3272  0.1727
   80CHL1   C19 8366   6.350   4.608   7.314  0.0161 -0.6798 -0.0566
   80CHL1  H19A 8367   6.445   4.552   7.330  1.0461  0.5242 -1.7844
   80CHL1  H19B 8368   6.352   4.627   7.204 -2.1285 -0.2014 -0.0436
   80CHL1  H19C 8369   6.356   4.700   7.375  0.0426 -1.4761  1.1622
   80CHL1    C1 8370   6.232   4.381   7.306 -0.3502  0.2628 -0.2358
   80CHL1   H1A 8371   6.325   4.326   7.331 -0.8915 -0.1493  0.9136
   80CHL1   H1B 8372   6.154   4.323   7.361 -0.0455 -0.2809 -0.3805
   80CHL1    C2 8373   6.205   4.380   7.154  0.5845  0.1638 -0.8781
   80CHL1   H2A 8374   6.205   4.275   7.118  0.1424 -0.7012  1.5315
   80CHL1   H2B 8375   6.287   4.435   7.102  2.3797 -1.1576  0.4788
   80CHL1   C20 8376   6.439   4.532   8.038 -1.0708 -0.0452 -0.0079
   80CHL1   H20 8377   6.501   4.457   7.983 -0.5312 -2.0500  3.2215
   80CHL1   C21 8378   6.377   4.463   8.161  0.2700 -0.2262 -0.3503
   80CHL1  H21A 8379   6.344   4.540   8.234 -2.5221 -1.5135 -0.1708
   80CHL1  H21B 8380   6.445   4.397   8.217 -0.9123 -1.1226  0.0533
   80CHL1  H21C 8381   6.288   4.404   8.132  0.5225 -1.0241  0.4913
   80CHL1   C22 8382   6.518   4.653   8.105 -0.1241 -0.0073 -0.5906
   80CHL1  H22A 8383   6.560   4.715   8.023  0.4153 -0.8262 -0.9384
   80CHL1  H22B 8384   6.449   4.720   8.160 -0.8595  0.9797 -2.6409
   80CHL1   C23 8385   6.639   4.610   8.192 -0.3555 -0.3288  0.4921
   80CHL1  H23A 8386   6.605   4.560   8.286 -0.8510 -0.3336  0.3115
   80CHL1  H23B 8387   6.702   4.536   8.138 -0.1104 -0.6550  1.2109
   80CHL1   C24 8388   6.727   4.731   8.225  0.5533 -0.2296 -0.3528
   80CHL1  H24A 8389   6.792   4.763   8.141 -0.5431 -0.2038 -1.1992
   80CHL1  H24B 8390   6.664   4.817   8.258  1.0944 -1.0284  3.0049
   80CHL1   C25 8391   6.821   4.699   8.336  0.4173 -0.3192  0.3608
   80CHL1   H25 8392   6.858   4.595   8.322 -1.0807 -0.5140 -2.6990
   80CHL1   C26 8393   6.934   4.801   8.337 -0.3969 -0.2001  0.0088
   80CHL1  H26A 8394   6.975   4.799   8.441 -1.7979 -1.9275  0.5620
   80CHL1  H26B 8395   7.007   4.762   8.263  1.3965  0.5224  1.3675
   80CHL1  H26C 8396   6.906   4.902   8.301 -1.9059 -1.1430 -1.5488
   80CHL1   C27 8397   6.747   4.714   8.472  0.9622  0.2248  0.5029
   80CHL1  H27A 8398   6.663   4.646   8.498  0.8715 -0.0143 -0.4141
   80CHL1  H27B 8399   6.821   4.713   8.555 -1.0805  0.5873  2.3533
   80CHL1  H27C 8400   6.710   4.818   8.482 -0.5076 -0.3164  0.7526
   81CHL1    C3 8401   3.692   4.139   6.746 -0.2162 -0.9678  0.8135
   81CHL1    H3 8402   3.766   4.062   6.777  0.7201 -0.2809  0.3192
   81CHL1    O3 8403   3.738   4.196   6.627 -0.2516 -0.0573 -0.1901
   81CHL1   H3' 8404   3.671   4.250   6.583  1.4844  1.0549 -1.5774
   81CHL1    C4 8405   3.555   4.075   6.721  0.0470 -0.5942  0.0259
   81CHL1   H4A 8406   3.484   4.154   6.688  0.3818 -0.4078 -0.2423
   81CHL1   H4B 8407   3.573   4.007   6.635  2.7162  0.7435 -0.5050
   81CHL1    C5 8408   3.502   4.015   6.853 -0.0733  0.5790 -0.0057
   81CHL1    C6 8409   3.473   3.883   6.865  0.4055  1.1167  0.2642
   81CHL1    H6 8410   3.491   3.817   6.779 -0.6187  1.5805 -0.3146
   81CHL1    C7 8411   3.416   3.833   6.994  0.1112 -0.0588 -0.1139
   81CHL1   H7A 8412   3.332   3.764   6.972  0.3690  0.0461 -1.5087
   81CHL1   H7B 8413   3.497   3.765   7.030  0.7961  0.3627 -0.8299
   81CHL1    C8 8414   3.374   3.933   7.101 -0.4090  0.4251 -0.2906
   81CHL1    H8 8415   3.282   3.988   7.076 -1.7794 -0.2807  3.0207
   81CHL1   C14 8416   3.368   3.868   7.241 -0.2652  0.0416  0.1084
   81CHL1   H14 8417   3.473   3.834   7.255 -0.4657  0.0111  1.5990
   81CHL1   C15 8418   3.289   3.737   7.264 -0.3398 -0.6312 -0.4760
   81CHL1  H15A 8419   3.202   3.732   7.195 -1.1369 -2.1700  0.6106
   81CHL1  H15B 8420   3.358   3.651   7.246  0.3613 -0.6588  2.1904
   81CHL1   C16 8421   3.248   3.745   7.411 -0.5281  0.1521 -0.5142
   81CHL1  H16A 8422   3.138   3.753   7.401 -0.1108  3.9437 -3.3469
   81CHL1  H16B 8423   3.278   3.648   7.458 -1.0471  0.4344  0.4095
   81CHL1   C17 8424   3.325   3.858   7.471 -0.1570 -0.0750 -0.0494
   81CHL1   H17 8425   3.434   3.842   7.488 -0.3382 -0.8603  0.3771
   81CHL1   C13 8426   3.337   3.962   7.359 -0.0122  0.6078  0.5139
   81CHL1   C18 8427   3.197   4.022   7.336 -0.2524 -0.2875  0.0567
   81CHL1  H18A 8428   3.108   3.955   7.336 -1.8688  1.7712  2.0212
   81CHL1  H18B 8429   3.177   4.094   7.419 -1.6676  0.0350 -0.5532
   81CHL1  H18C 8430   3.191   4.088   7.247 -0.9037  0.2325  0.4770
   81CHL1   C12 8431   3.444   4.068   7.360 -0.6654 -1.2651 -0.9398
   81CHL1  H12A 8432   3.423   4.142   7.440 -0.1035 -3.4577  1.2751
   81CHL1  H12B 8433   3.541   4.020   7.384 -0.6355 -0.1473  1.3181
   81CHL1   C11 8434   3.460   4.139   7.223 -0.5881 -0.3582  0.5294
   81CHL1  H11A 8435   3.367   4.198   7.206 -0.2835  0.7031  2.5058
   81CHL1  H11B 8436   3.544   4.211   7.228 -0.6250 -0.1558 -1.2480
   81CHL1    C9 8437   3.481   4.038   7.104  0.1067  0.1710 -0.0450
   81CHL1    H9 8438   3.577   3.985   7.122  0.0129 -0.0723 -0.2702
   81CHL1   C10 8439   3.496   4.116   6.969  0.6710  0.1351 -0.2934
   81CHL1   C19 8440   3.376   4.218   6.936  0.3932 -0.5553  0.5981
   81CHL1  H19A 8441   3.398   4.279   6.846 -1.8445  1.2324  1.1925
   81CHL1  H19B 8442   3.285   4.156   6.923  0.1564  0.0524 -0.7413
   81CHL1  H19C 8443   3.378   4.287   7.024 -2.0468  1.0720 -0.5669
   81CHL1    C1 8444   3.633   4.205   6.978 -0.2385  0.2116 -0.0803
   81CHL1   H1A 8445   3.613   4.291   7.045  1.2629  0.1874  0.4001
   81CHL1   H1B 8446   3.704   4.147   7.041  2.6135  1.7251 -1.8076
   81CHL1    C2 8447   3.690   4.254   6.843  1.4091 -0.4104 -0.0179
   81CHL1   H2A 8448   3.798   4.277   6.856  1.2834 -0.5780  1.3300
   81CHL1   H2B 8449   3.633   4.344   6.813  1.9833 -0.0767 -0.0991
   81CHL1   C20 8450   3.275   3.911   7.605 -0.6662  0.4582  0.1456
   81CHL1   H20 8451   3.319   4.012   7.620 -1.9090  0.9019  0.9333
   81CHL1   C21 8452   3.339   3.822   7.717 -0.5934 -0.0345  0.2638
   81CHL1  H21A 8453   3.311   3.873   7.811 -2.5043  2.3045 -1.5092
   81CHL1  H21B 8454   3.450   3.834   7.718 -0.5747 -0.1725  0.0255
   81CHL1  H21C 8455   3.313   3.715   7.732  0.8012 -0.0136  2.9976
   81CHL1   C22 8456   3.122   3.919   7.625 -0.3163  0.3347 -0.2546
   81CHL1  H22A 8457   3.077   3.966   7.535  1.0957 -1.0268 -1.7161
   81CHL1  H22B 8458   3.077   3.818   7.637 -1.2552  0.8097  0.3065
   81CHL1   C23 8459   3.079   4.005   7.743 -0.3349  0.4319 -0.0698
   81CHL1  H23A 8460   3.142   3.977   7.829  1.6066 -1.3642 -2.0263
   81CHL1  H23B 8461   3.104   4.111   7.718  1.0164  0.0911 -0.2097
   81CHL1   C24 8462   2.935   4.010   7.770  0.3504  0.6528 -0.1759
   81CHL1  H24A 8463   2.894   4.054   7.677 -1.2383  2.4708  1.3363
   81CHL1  H24B 8464   2.904   3.907   7.799 -0.9247  1.1558  0.2828
   81CHL1   C25 8465   2.877   4.096   7.888 -0.5061  0.4919  0.5511
   81CHL1   H25 8466   2.876   4.202   7.854  0.1282  0.6085  0.9002
   81CHL1   C26 8467   2.727   4.068   7.912  0.4013 -0.3148 -0.8204
   81CHL1  H26A 8468   2.713   3.959   7.920  1.0493 -0.3192  0.2644
   81CHL1  H26B 8469   2.698   4.113   8.009  0.0045 -2.4812  0.0756
   81CHL1  H26C 8470   2.665   4.102   7.826  2.2514 -0.9775 -2.4807
   81CHL1   C27 8471   2.954   4.097   8.023  0.0672  0.1366  0.1288
   81CHL1  H27A 8472   3.058   4.127   7.999 -0.7022  0.9946 -2.2279
   81CHL1  H27B 8473   2.904   4.164   8.097 -0.8582 -1.3327  0.8555
   81CHL1  H27C 8474   2.948   3.995   8.066 -1.2865 -0.0342 -0.4434
   82CHL1    C3 8475   5.134   4.927   7.073 -0.5776  0.3427  0.7909
   82CHL1    H3 8476   5.044   4.863   7.060 -0.0612 -0.5925  1.8216
   82CHL1    O3 8477   5.188   4.940   6.941 -0.5625  0.7105  0.0532
   82CHL1   H3' 8478   5.142   5.010   6.893  1.3691  0.3863 -2.3716
   82CHL1    C4 8479   5.099   5.066   7.117 -0.2426 -0.2380  0.1737
   82CHL1   H4A 8480   5.184   5.136   7.099 -0.1884 -0.2915  0.2229
   82CHL1   H4B 8481   5.018   5.097   7.048  0.2578  0.6239 -0.0436
   82CHL1    C5 8482   5.051   5.071   7.259  1.1817 -0.7350  0.7371
   82CHL1    C6 8483   4.928   5.117   7.288  0.3615 -0.0581  1.2361
   82CHL1    H6 8484   4.870   5.156   7.203  1.1427  1.6030  1.4497
   82CHL1    C7 8485   4.869   5.128   7.423 -0.5896 -0.5168  0.0569
   82CHL1   H7A 8486   4.818   5.225   7.441 -0.5792 -0.9614  2.7140
   82CHL1   H7B 8487   4.787   5.053   7.417 -2.0516  1.0329  0.1636
   82CHL1    C8 8488   4.974   5.102   7.533 -0.2148  0.8825  0.1192
   82CHL1    H8 8489   5.037   5.192   7.546  0.0408  0.3672  2.7527
   82CHL1   C14 8490   4.917   5.075   7.677 -0.3183  0.7532  0.3133
   82CHL1   H14 8491   4.857   4.985   7.654 -0.5148  0.5945  1.4648
   82CHL1   C15 8492   4.820   5.176   7.731  0.2242  0.1289  0.0130
   82CHL1  H15A 8493   4.859   5.279   7.720  1.8405 -0.4448  0.1026
   82CHL1  H15B 8494   4.722   5.174   7.679 -0.0196  1.2902  0.4148
   82CHL1   C16 8495   4.796   5.142   7.878 -0.1062  0.2405  0.0546
   82CHL1  H16A 8496   4.815   5.232   7.939  0.7700 -0.1879  0.4301
   82CHL1  H16B 8497   4.694   5.107   7.902  0.2918 -0.5787  0.6189
   82CHL1   C17 8498   4.907   5.037   7.912 -0.4089 -0.5083  0.0727
   82CHL1   H17 8499   4.862   4.936   7.917  0.5681 -1.0563 -1.5655
   82CHL1   C13 8500   5.008   5.039   7.795 -0.1061  0.5911 -0.5117
   82CHL1   C18 8501   5.113   5.152   7.812  0.7191  0.1149  0.4874
   82CHL1  H18A 8502   5.152   5.170   7.710 -0.5221 -0.5434 -0.1060
   82CHL1  H18B 8503   5.068   5.248   7.848 -0.5848  1.5852 -4.7283
   82CHL1  H18C 8504   5.198   5.122   7.877  0.2921 -2.6527 -0.1857
   82CHL1   C12 8505   5.077   4.912   7.747  0.4207  0.1440  0.2764
   82CHL1  H12A 8506   5.152   4.888   7.826  2.4000  1.2135 -1.2356
   82CHL1  H12B 8507   5.004   4.828   7.739  0.0620  0.2117  2.5152
   82CHL1   C11 8508   5.150   4.932   7.609  0.1799 -0.6393 -0.4149
   82CHL1  H11A 8509   5.226   5.009   7.633  0.8581 -1.2609 -0.5385
   82CHL1  H11B 8510   5.217   4.845   7.588 -1.5284 -2.1004  0.1099
   82CHL1    C9 8511   5.062   4.978   7.497  0.0234  0.5808 -0.9027
   82CHL1    H9 8512   4.991   4.895   7.477  0.8461 -0.7118  1.3394
   82CHL1   C10 8513   5.142   5.005   7.361 -0.2029  0.7686 -0.1336
   82CHL1   C19 8514   5.265   5.102   7.380 -0.6516  0.0353 -0.2708
   82CHL1  H19A 8515   5.233   5.184   7.447 -0.3264 -0.9531  1.0995
   82CHL1  H19B 8516   5.341   5.041   7.433 -1.7967 -1.2942 -0.1211
   82CHL1  H19C 8517   5.299   5.140   7.281 -0.5283 -0.9836 -0.6291
   82CHL1    C1 8518   5.196   4.869   7.313 -0.0018 -0.5300  0.2493
   82CHL1   H1A 8519   5.282   4.841   7.379 -0.7099  1.5980  2.1381
   82CHL1   H1B 8520   5.118   4.790   7.310  0.2128 -0.7651  0.7246
   82CHL1    C2 8521   5.240   4.867   7.163 -0.4857 -0.6254  0.1022
   82CHL1   H2A 8522   5.266   4.763   7.135  1.3576  0.0082 -0.6255
   82CHL1   H2B 8523   5.334   4.923   7.142 -0.6411 -0.3196  0.2050
   82CHL1   C20 8524   4.948   5.055   8.050  0.3971 -0.3744 -0.3680
   82CHL1   H20 8525   5.007   5.149   8.058 -0.8664  0.5842 -2.1109
   82CHL1   C21 8526   5.060   4.952   8.082  0.4628 -0.4484 -0.1837
   82CHL1  H21A 8527   5.022   4.848   8.072  0.8712 -0.4571 -1.8643
   82CHL1  H21B 8528   5.090   4.954   8.189  0.3086 -1.5319 -0.1115
   82CHL1  H21C 8529   5.157   4.968   8.029  0.8087 -0.4965  0.4274
   82CHL1   C22 8530   4.841   5.061   8.164  0.3113  0.0439  0.0642
   82CHL1  H22A 8531   4.897   5.063   8.260  2.1141 -0.3667 -0.9630
   82CHL1  H22B 8532   4.791   5.160   8.157  0.7384  0.4006  1.7908
   82CHL1   C23 8533   4.744   4.942   8.167 -0.2433  0.5552  0.2248
   82CHL1  H23A 8534   4.678   4.944   8.077 -1.9647 -0.3780  1.4260
   82CHL1  H23B 8535   4.803   4.850   8.146  1.9158  1.9376  0.0819
   82CHL1   C24 8536   4.659   4.922   8.291 -0.1685 -0.3193  0.1401
   82CHL1  H24A 8537   4.722   4.898   8.379  0.7776  0.8879 -0.1949
   82CHL1  H24B 8538   4.593   5.010   8.310 -0.5874 -0.1837 -1.7955
   82CHL1   C25 8539   4.563   4.801   8.272  0.0809  0.6781 -0.6396
   82CHL1   H25 8540   4.527   4.793   8.167  0.7374 -2.6703 -0.6898
   82CHL1   C26 8541   4.630   4.672   8.297 -0.0599  0.9864 -0.1626
   82CHL1  H26A 8542   4.571   4.589   8.253  0.7660 -0.1059  0.7787
   82CHL1  H26B 8543   4.729   4.660   8.248 -0.5850  0.3746 -1.1011
   82CHL1  H26C 8544   4.633   4.648   8.405 -0.1313  0.4828 -0.2701
   82CHL1   C27 8545   4.446   4.818   8.372  0.6239 -0.0506  0.1738
   82CHL1  H27A 8546   4.485   4.838   8.474  0.0338 -1.7152  0.7443
   82CHL1  H27B 8547   4.386   4.903   8.331  0.1376  0.0936  1.1750
   82CHL1  H27C 8548   4.378   4.731   8.367  0.6847 -0.1067  0.3412
   83CHL1    C3 8549   1.151   6.006   6.946 -0.3187 -0.0943 -0.1805
   83CHL1    H3 8550   1.188   5.902   6.931  0.0637  0.0290 -0.1022
   83CHL1    O3 8551   1.160   6.050   6.815  0.3295 -0.1879  0.2974
   83CHL1   H3' 8552   1.097   6.122   6.811  2.3000  1.4915 -2.3352
   83CHL1    C4 8553   1.008   6.010   6.996 -0.1141 -0.0149 -0.1106
   83CHL1   H4A 8554   0.970   6.114   7.005 -0.2427 -0.0316 -0.4334
   83CHL1   H4B 8555   0.948   5.961   6.916  0.0832 -0.8203  0.2296
   83CHL1    C5 8556   0.995   5.943   7.130  0.1279 -0.3914 -0.3014
   83CHL1    C6 8557   0.905   5.850   7.161 -0.1123  0.7088  0.1867
   83CHL1    H6 8558   0.833   5.819   7.084  1.3076  0.9554 -1.2839
   83CHL1    C7 8559   0.907   5.789   7.297  0.2495  0.5151 -0.1432
   83CHL1   H7A 8560   0.802   5.778   7.334  0.0796  2.0617 -0.1342
   83CHL1   H7B 8561   0.944   5.685   7.299  1.9643  1.1377  1.0889
   83CHL1    C8 8562   0.980   5.875   7.405  0.3771  0.4371 -0.2529
   83CHL1    H8 8563   0.909   5.956   7.431  0.3047  0.8777 -1.7640
   83CHL1   C14 8564   0.994   5.792   7.534  0.6646  0.8351 -0.1865
   83CHL1   H14 8565   1.053   5.707   7.494 -1.5767 -0.5623 -0.5787
   83CHL1   C15 8566   0.866   5.735   7.587  0.2508  0.4491 -0.3777
   83CHL1  H15A 8567   0.781   5.805   7.574 -0.9768 -0.4523  2.3166
   83CHL1  H15B 8568   0.843   5.640   7.533  2.9925 -0.5930  0.1878
   83CHL1   C16 8569   0.904   5.703   7.733 -0.5921  0.0118  0.5874
   83CHL1  H16A 8570   0.835   5.766   7.794 -0.1294  2.8658 -1.7556
   83CHL1  H16B 8571   0.890   5.597   7.762 -2.7948  0.3047  0.6906
   83CHL1   C17 8572   1.048   5.763   7.763  0.4078 -0.5961  0.4014
   83CHL1   H17 8573   1.120   5.680   7.750 -0.1478 -1.5637  3.1542
   83CHL1   C13 8574   1.064   5.865   7.650  0.7533 -0.2303  0.3311
   83CHL1   C18 8575   0.977   5.987   7.686 -0.1412 -0.9969  0.0020
   83CHL1  H18A 8576   0.923   6.041   7.606 -0.6031  0.6549  1.3925
   83CHL1  H18B 8577   0.900   5.982   7.767 -0.8102 -0.4433 -0.5958
   83CHL1  H18C 8578   1.046   6.072   7.706 -3.1260  1.5473 -0.1210
   83CHL1   C12 8579   1.203   5.900   7.603 -0.2806  0.5193  0.1661
   83CHL1  H12A 8580   1.260   5.954   7.682 -0.7391  1.9491 -0.4599
   83CHL1  H12B 8581   1.249   5.799   7.596  0.7026  1.0851 -2.2614
   83CHL1   C11 8582   1.206   5.982   7.473  0.0561 -0.3220 -0.3827
   83CHL1  H11A 8583   1.167   6.083   7.498 -1.3509 -1.3161  1.4756
   83CHL1  H11B 8584   1.310   5.998   7.436 -0.1678 -1.2777 -1.4556
   83CHL1    C9 8585   1.117   5.918   7.360  0.0464  0.0274 -0.3513
   83CHL1    H9 8586   1.162   5.819   7.336  0.2635 -0.5159  2.1650
   83CHL1   C10 8587   1.108   6.000   7.224  0.0381  0.1458 -0.2934
   83CHL1   C19 8588   1.062   6.141   7.281 -0.4736 -0.7408 -0.5272
   83CHL1  H19A 8589   1.149   6.190   7.332 -2.6524  1.1797  1.4698
   83CHL1  H19B 8590   1.039   6.211   7.198  2.7263 -0.9398 -1.6669
   83CHL1  H19C 8591   0.978   6.137   7.354 -0.2449  0.2050 -0.2023
   83CHL1    C1 8592   1.250   6.011   7.168 -0.8904 -0.4832  0.8029
   83CHL1   H1A 8593   1.321   6.061   7.237 -0.3122 -0.2414  0.0387
   83CHL1   H1B 8594   1.287   5.908   7.153  3.1942  0.9670  0.4022
   83CHL1    C2 8595   1.248   6.089   7.035 -0.2640 -0.0047  0.3772
   83CHL1   H2A 8596   1.347   6.103   6.986 -1.0139  2.3512 -0.5382
   83CHL1   H2B 8597   1.204   6.190   7.052 -0.8006  0.0871 -1.4852
   83CHL1   C20 8598   1.067   5.808   7.906  0.0762 -0.0015  0.9893
   83CHL1   H20 8599   0.990   5.881   7.940 -0.1741 -0.1393  0.7244
   83CHL1   C21 8600   1.206   5.872   7.930  1.1630 -0.2331 -1.3613
   83CHL1  H21A 8601   1.281   5.798   7.894 -0.1854 -2.6676  0.6826
   83CHL1  H21B 8602   1.222   5.890   8.038 -0.1086 -2.6575 -0.7378
   83CHL1  H21C 8603   1.220   5.968   7.876  2.7526  0.4808  0.2701
   83CHL1   C22 8604   1.047   5.682   7.998  0.0517 -0.4889 -0.7740
   83CHL1  H22A 8605   0.941   5.649   7.985 -0.5929  0.0794  2.6676
   83CHL1  H22B 8606   1.119   5.602   7.971  2.0225  1.1948 -0.5781
   83CHL1   C23 8607   1.044   5.713   8.151  0.0341  0.5175 -0.2270
   83CHL1  H23A 8608   1.130   5.776   8.185 -0.6753 -0.4113  3.5464
   83CHL1  H23B 8609   0.955   5.778   8.166 -1.2754 -1.0389 -1.1499
   83CHL1   C24 8610   1.053   5.600   8.244 -0.3629 -0.0480 -0.4049
   83CHL1  H24A 8611   0.967   5.532   8.227 -0.8690  0.4009  0.2997
   83CHL1  H24B 8612   1.141   5.536   8.220  0.5546  0.0638  2.4966
   83CHL1   C25 8613   1.054   5.635   8.394  0.1292  0.0628  0.6742
   83CHL1   H25 8614   1.127   5.719   8.407  1.4752 -0.9181 -0.4026
   83CHL1   C26 8615   0.917   5.697   8.437 -0.5869 -0.5167 -0.2900
   83CHL1  H26A 8616   0.842   5.616   8.431  1.5163 -2.5533  0.1458
   83CHL1  H26B 8617   0.924   5.733   8.542 -1.0685  1.1197 -0.8005
   83CHL1  H26C 8618   0.889   5.791   8.386 -1.3479  0.4171  1.7869
   83CHL1   C27 8619   1.094   5.525   8.495 -0.0096 -0.3350  0.1718
   83CHL1  H27A 8620   1.198   5.487   8.481  1.0679  2.5594  0.0061
   83CHL1  H27B 8621   1.083   5.557   8.601 -1.9407  0.8460 -0.3676
   83CHL1  H27C 8622   1.028   5.440   8.466  0.7657 -0.7468 -0.4112
   84CHL1    C3 8623   3.024   2.441   6.908  0.1686  0.6294  0.1516
   84CHL1    H3 8624   3.119   2.496   6.928  0.8485 -0.2557 -0.5962
   84CHL1    O3 8625   3.007   2.421   6.770 -0.6410  0.2499  1.3447
   84CHL1   H3' 8626   2.918   2.388   6.775 -1.1194  1.6074  1.9154
   84CHL1    C4 8627   3.019   2.311   6.988  0.1476  0.1490 -0.7732
   84CHL1   H4A 8628   2.919   2.264   6.973 -1.5147  2.1405  3.3137
   84CHL1   H4B 8629   3.097   2.254   6.933  0.7204  1.4386 -1.3079
   84CHL1    C5 8630   3.040   2.317   7.133 -0.5838 -0.5624 -0.0456
   84CHL1    C6 8631   3.137   2.246   7.183 -0.2196  0.2561 -0.4129
   84CHL1    H6 8632   3.202   2.183   7.121  2.9656 -0.5595  3.6006
   84CHL1    C7 8633   3.164   2.259   7.330 -0.0727  0.1793  0.6694
   84CHL1   H7A 8634   3.181   2.160   7.377 -3.2174  0.3096  2.2628
   84CHL1   H7B 8635   3.252   2.325   7.344  0.8964 -0.8633 -0.5480
   84CHL1    C8 8636   3.050   2.324   7.418 -0.3704  0.6823 -0.4486
   84CHL1    H8 8637   2.973   2.243   7.420  1.5832 -1.2690 -2.5022
   84CHL1   C14 8638   3.095   2.362   7.556  0.1790 -0.4093  0.3788
   84CHL1   H14 8639   3.179   2.432   7.539 -0.1391 -0.2388 -0.5451
   84CHL1   C15 8640   3.167   2.256   7.639 -0.1716 -0.1551 -0.0116
   84CHL1  H15A 8641   3.114   2.158   7.641 -1.1003  0.2992 -1.3679
   84CHL1  H15B 8642   3.270   2.249   7.599 -0.5457  0.7837 -1.1734
   84CHL1   C16 8643   3.180   2.326   7.775  0.3724  0.4937  0.1169
   84CHL1  H16A 8644   3.153   2.271   7.868 -1.0982  0.7371 -0.1627
   84CHL1  H16B 8645   3.283   2.367   7.780  0.6686 -0.3194  0.9882
   84CHL1   C17 8646   3.075   2.450   7.781  0.0416  0.3757  0.1162
   84CHL1   H17 8647   3.133   2.542   7.757  0.6758 -0.6155 -2.2654
   84CHL1   C13 8648   2.995   2.438   7.647  0.6264  0.1228 -0.4413
   84CHL1   C18 8649   2.878   2.339   7.677 -0.5470 -0.2768 -0.3233
   84CHL1  H18A 8650   2.799   2.365   7.751 -0.0242 -0.9969  0.5041
   84CHL1  H18B 8651   2.822   2.306   7.586 -0.7520  0.0026 -0.2985
   84CHL1  H18C 8652   2.915   2.244   7.721  0.8558 -0.3735 -1.6721
   84CHL1   C12 8653   2.940   2.566   7.576 -0.7469  0.8132  0.3293
   84CHL1  H12A 8654   2.868   2.610   7.649 -0.6464  1.4436  0.0542
   84CHL1  H12B 8655   3.023   2.637   7.558  1.4482 -1.4632  1.1677
   84CHL1   C11 8656   2.883   2.525   7.435  0.4050  0.6355  0.4973
   84CHL1  H11A 8657   2.794   2.459   7.446  0.8890 -0.1106 -0.0226
   84CHL1  H11B 8658   2.851   2.619   7.384 -0.0189  1.0868  1.5651
   84CHL1    C9 8659   2.995   2.453   7.348 -0.3000 -0.2054  0.1137
   84CHL1    H9 8660   3.084   2.519   7.340  0.3903 -0.9502  1.6029
   84CHL1   C10 8661   2.949   2.415   7.207 -0.0299 -0.1597 -0.4147
   84CHL1   C19 8662   2.819   2.341   7.210  0.7351 -0.4955  0.2977
   84CHL1  H19A 8663   2.740   2.408   7.248 -0.1255 -1.6899  0.6236
   84CHL1  H19B 8664   2.773   2.320   7.111  0.1823 -1.7385  0.8104
   84CHL1  H19C 8665   2.824   2.242   7.260  0.2067 -1.8211 -2.1549
   84CHL1    C1 8666   2.931   2.542   7.116  0.1313 -0.3753 -0.5513
   84CHL1   H1A 8667   2.850   2.604   7.159 -1.4467 -1.4515 -1.8801
   84CHL1   H1B 8668   3.027   2.595   7.131 -0.8496  0.5730  2.6644
   84CHL1    C2 8669   2.915   2.528   6.966  0.2512  0.8295 -0.0058
   84CHL1   H2A 8670   2.887   2.620   6.910  1.0910  0.6744 -0.6826
   84CHL1   H2B 8671   2.822   2.468   6.953  0.3851  0.7009 -0.3688
   84CHL1   C20 8672   3.012   2.490   7.917  0.3010  0.1533 -0.8890
   84CHL1   H20 8673   2.923   2.551   7.892 -0.0819  1.1064  2.6137
   84CHL1   C21 8674   3.117   2.583   7.991 -0.0302  0.0011  0.0196
   84CHL1  H21A 8675   3.166   2.663   7.930  0.8932  0.8083  1.7979
   84CHL1  H21B 8676   3.195   2.515   8.031  0.2001  1.8507  2.8426
   84CHL1  H21C 8677   3.063   2.637   8.072 -2.7195 -0.6498 -1.2687
   84CHL1   C22 8678   2.955   2.387   8.010 -0.1719 -0.1502  1.0942
   84CHL1  H22A 8679   2.895   2.315   7.950 -1.1537  0.8383  0.8707
   84CHL1  H22B 8680   3.029   2.320   8.058  0.1044 -0.3199  0.4306
   84CHL1   C23 8681   2.865   2.439   8.126 -0.1952 -0.1684 -0.0602
   84CHL1  H23A 8682   2.914   2.503   8.203  3.0203 -1.3539 -1.0382
   84CHL1  H23B 8683   2.790   2.500   8.071 -1.6168 -0.2266  1.7467
   84CHL1   C24 8684   2.780   2.336   8.198 -0.0018  0.6607 -0.5879
   84CHL1  H24A 8685   2.720   2.392   8.274 -2.3882 -2.6013  0.0377
   84CHL1  H24B 8686   2.710   2.288   8.126  2.9584 -3.0240 -1.1581
   84CHL1   C25 8687   2.851   2.220   8.276  0.9975  0.6552  0.0967
   84CHL1   H25 8688   2.920   2.179   8.199  0.9475 -0.4527  0.6359
   84CHL1   C26 8689   2.937   2.269   8.396 -0.1798  0.3735 -0.1527
   84CHL1  H26A 8690   3.023   2.330   8.360  0.7309 -0.5835  0.3726
   84CHL1  H26B 8691   2.878   2.330   8.468 -0.3710 -1.5084  1.3240
   84CHL1  H26C 8692   2.970   2.178   8.451  0.1078 -0.1819 -1.2239
   84CHL1   C27 8693   2.748   2.107   8.311 -0.0478  0.0829  0.0362
   84CHL1  H27A 8694   2.710   2.055   8.221  1.1321  0.8710 -0.9211
   84CHL1  H27B 8695   2.804   2.024   8.360  0.2715  0.3716  0.1633
   84CHL1  H27C 8696   2.665   2.140   8.377 -0.3525 -2.0863  0.7865
   85CHL1    C3 8697   2.682   6.126   6.830  0.0938 -0.0672 -0.7745
   85CHL1    H3 8698   2.775   6.186   6.842  1.8373 -2.5960 -1.1956
   85CHL1    O3 8699   2.651   6.126   6.693  0.0992  0.4080  0.3243
   85CHL1   H3' 8700   2.699   6.053   6.653  1.5526  1.0640  0.8359
   85CHL1    C4 8701   2.700   5.981   6.886 -0.7765 -0.1721  0.3145
   85CHL1   H4A 8702   2.602   5.942   6.851 -1.0176  1.8974 -1.4814
   85CHL1   H4B 8703   2.785   5.934   6.832 -0.2129  2.2644 -1.0382
   85CHL1    C5 8704   2.707   5.972   7.039 -0.1804 -0.1805  0.3564
   85CHL1    C6 8705   2.800   5.900   7.106  0.7347 -0.2259 -0.2356
   85CHL1    H6 8706   2.876   5.852   7.043 -0.2180 -2.6250  0.3769
   85CHL1    C7 8707   2.818   5.872   7.250 -0.2366 -1.0251  0.0607
   85CHL1   H7A 8708   2.830   5.765   7.280 -1.0432 -0.9283  0.7385
   85CHL1   H7B 8709   2.908   5.925   7.288 -1.3339  1.9146 -1.2882
   85CHL1    C8 8710   2.697   5.932   7.329 -0.8221 -0.5141 -0.2958
   85CHL1    H8 8711   2.623   5.850   7.317 -2.3186  1.2549 -4.1636
   85CHL1   C14 8712   2.735   5.940   7.479 -0.2544  0.5304  0.4565
   85CHL1   H14 8713   2.819   6.013   7.478 -1.3175  1.7893 -2.1820
   85CHL1   C15 8714   2.791   5.816   7.556  0.1158 -0.2137 -0.0478
   85CHL1  H15A 8715   2.727   5.726   7.557  1.0060 -0.8487 -0.0941
   85CHL1  H15B 8716   2.898   5.793   7.537 -1.2040 -4.7508 -2.4762
   85CHL1   C16 8717   2.782   5.869   7.703  0.4571 -0.4470  0.4612
   85CHL1  H16A 8718   2.733   5.804   7.779  0.0151  0.2834  0.8075
   85CHL1  H16B 8719   2.887   5.884   7.738 -0.4903  0.7469  2.8532
   85CHL1   C17 8720   2.701   6.003   7.701 -0.6913  1.2118  0.1515
   85CHL1   H17 8721   2.775   6.084   7.685 -0.8872  1.4428  0.4085
   85CHL1   C13 8722   2.628   6.004   7.568 -0.0012  0.4852 -0.0544
   85CHL1   C18 8723   2.511   5.901   7.582 -0.0882  0.4411  0.5263
   85CHL1  H18A 8724   2.525   5.802   7.631 -0.9170 -1.1163 -2.2424
   85CHL1  H18B 8725   2.421   5.945   7.630  0.2549 -0.4747  2.0207
   85CHL1  H18C 8726   2.486   5.859   7.482 -2.2018  3.3589 -0.2256
   85CHL1   C12 8727   2.574   6.140   7.512  0.2098 -0.0695  0.4473
   85CHL1  H12A 8728   2.483   6.169   7.569  0.4293  1.1662  0.1847
   85CHL1  H12B 8729   2.651   6.220   7.519  0.7862 -0.6483  0.8079
   85CHL1   C11 8730   2.528   6.127   7.361  0.2426 -0.1269  0.3171
   85CHL1  H11A 8731   2.427   6.081   7.364 -0.5222  1.4363 -0.4965
   85CHL1  H11B 8732   2.511   6.233   7.332  0.7666  0.0665  0.7076
   85CHL1    C9 8733   2.642   6.058   7.270 -0.2173 -0.6903 -0.9214
   85CHL1    H9 8734   2.729   6.126   7.278 -1.7961  1.2236  0.4937
   85CHL1   C10 8735   2.607   6.049   7.123  0.3336 -0.6686 -0.2470
   85CHL1   C19 8736   2.475   5.973   7.111 -0.0238  0.3292 -0.4041
   85CHL1  H19A 8737   2.445   5.939   7.009 -0.7461 -0.4711  0.0664
   85CHL1  H19B 8738   2.463   5.883   7.174 -1.6896  0.3980 -0.5772
   85CHL1  H19C 8739   2.398   6.050   7.135  0.1631  0.9020 -1.6056
   85CHL1    C1 8740   2.588   6.190   7.061  0.2714 -0.5635  0.3436
   85CHL1   H1A 8741   2.501   6.239   7.109  0.2941 -0.7509  0.5736
   85CHL1   H1B 8742   2.681   6.249   7.072  0.2978 -0.5431  0.0142
   85CHL1    C2 8743   2.564   6.191   6.909 -0.4531 -0.6316 -0.1625
   85CHL1   H2A 8744   2.560   6.293   6.866 -0.1880 -0.1825  0.8519
   85CHL1   H2B 8745   2.475   6.137   6.871 -0.4214 -0.8149  0.0210
   85CHL1   C20 8746   2.626   6.035   7.829  0.4423  0.8403  0.0967
   85CHL1   H20 8747   2.556   5.950   7.838 -0.3049  1.4084 -0.2660
   85CHL1   C21 8748   2.537   6.158   7.822  0.2162 -0.3944 -0.2376
   85CHL1  H21A 8749   2.596   6.245   7.785 -0.8309  0.7185  0.6796
   85CHL1  H21B 8750   2.501   6.202   7.917  1.0104 -2.4930  1.0565
   85CHL1  H21C 8751   2.443   6.144   7.765  0.4138  2.1111 -1.2590
   85CHL1   C22 8752   2.723   6.045   7.948 -0.5141  0.3259  0.1943
   85CHL1  H22A 8753   2.784   5.952   7.947  3.1107  2.6078 -2.6022
   85CHL1  H22B 8754   2.791   6.132   7.939  0.3880 -0.5517 -1.7219
   85CHL1   C23 8755   2.652   6.049   8.079 -0.7130 -0.4798  0.2422
   85CHL1  H23A 8756   2.610   6.151   8.091  0.1913  0.1087 -1.4654
   85CHL1  H23B 8757   2.560   5.987   8.092 -1.6892  0.3329 -2.4232
   85CHL1   C24 8758   2.744   6.011   8.188 -0.1949  0.1554  0.1492
   85CHL1  H24A 8759   2.758   5.901   8.195  0.8932  0.3788  2.1040
   85CHL1  H24B 8760   2.846   6.054   8.182 -0.1453  0.2307  1.3476
   85CHL1   C25 8761   2.680   6.062   8.320  0.6218 -0.2382 -0.5097
   85CHL1   H25 8762   2.668   6.171   8.307  2.4140 -0.1265 -1.4320
   85CHL1   C26 8763   2.532   6.016   8.346 -0.0067 -0.2077  0.2243
   85CHL1  H26A 8764   2.511   5.907   8.337  1.0755 -0.4775  0.8333
   85CHL1  H26B 8765   2.504   6.063   8.443  0.3386 -1.4127  0.9207
   85CHL1  H26C 8766   2.452   6.069   8.289  0.9713  0.2429 -0.7354
   85CHL1   C27 8767   2.779   6.044   8.431 -0.4380 -0.2907 -0.5072
   85CHL1  H27A 8768   2.809   5.937   8.440 -2.8375 -0.9168  0.3740
   85CHL1  H27B 8769   2.873   6.103   8.424  0.7287 -2.0556 -0.0333
   85CHL1  H27C 8770   2.728   6.079   8.524  0.9851  2.5784 -0.7444
   86CHL1    C3 8771   4.702   3.296   7.037 -0.7269 -0.2805 -0.5569
   86CHL1    H3 8772   4.656   3.196   7.046  0.5943 -0.7148  1.9324
   86CHL1    O3 8773   4.773   3.301   6.912  0.1297 -0.0505  0.0195
   86CHL1   H3' 8774   4.788   3.395   6.899 -2.4747  0.5370  0.9296
   86CHL1    C4 8775   4.611   3.422   7.047  0.6203 -0.0329  0.3097
   86CHL1   H4A 8776   4.669   3.515   7.031  3.2598 -1.9105 -1.5364
   86CHL1   H4B 8777   4.535   3.411   6.966 -0.5596  3.0070  0.9435
   86CHL1    C5 8778   4.538   3.421   7.182 -0.0713  0.0253 -0.2431
   86CHL1    C6 8779   4.402   3.422   7.193 -0.7883 -0.3111  0.2684
   86CHL1    H6 8780   4.344   3.423   7.100 -1.9944 -0.2140  1.0059
   86CHL1    C7 8781   4.324   3.423   7.325 -0.4863  0.1018 -0.3047
   86CHL1   H7A 8782   4.245   3.500   7.321 -0.1492  0.4310 -0.7288
   86CHL1   H7B 8783   4.278   3.328   7.360 -0.7334  0.3796  0.1255
   86CHL1    C8 8784   4.428   3.452   7.443  0.8739 -0.8080  0.6382
   86CHL1    H8 8785   4.443   3.561   7.457 -1.6837 -0.5180  1.2722
   86CHL1   C14 8786   4.350   3.416   7.567 -0.3033 -0.2764 -0.2125
   86CHL1   H14 8787   4.339   3.305   7.573  0.1694 -0.3110  0.0921
   86CHL1   C15 8788   4.207   3.487   7.593  0.0680 -0.2008  0.0903
   86CHL1  H15A 8789   4.208   3.595   7.568  1.0659  0.5079  2.9643
   86CHL1  H15B 8790   4.127   3.441   7.531  0.4500 -0.1132 -0.4679
   86CHL1   C16 8791   4.183   3.475   7.741 -0.8333 -0.1524 -0.0183
   86CHL1  H16A 8792   4.171   3.572   7.794 -1.3935 -0.4468  0.3983
   86CHL1  H16B 8793   4.096   3.411   7.767 -0.9714 -0.0404 -0.2068
   86CHL1   C17 8794   4.311   3.425   7.807 -0.2180 -0.2197  0.4438
   86CHL1   H17 8795   4.313   3.314   7.805  0.5636 -0.1940 -0.9341
   86CHL1   C13 8796   4.423   3.452   7.699 -0.0792 -0.6053  0.0258
   86CHL1   C18 8797   4.453   3.605   7.714  0.2353  0.3048  0.6811
   86CHL1  H18A 8798   4.362   3.668   7.719  0.3728  0.6887 -1.2015
   86CHL1  H18B 8799   4.522   3.603   7.800 -1.1789 -3.9645  1.8679
   86CHL1  H18C 8800   4.501   3.638   7.620 -0.9577  0.7999  0.2291
   86CHL1   C12 8801   4.553   3.371   7.695  0.1397 -0.3283  0.0680
   86CHL1  H12A 8802   4.618   3.386   7.783  0.9055  0.5592 -0.6295
   86CHL1  H12B 8803   4.528   3.263   7.698 -1.8330  0.1401  2.2041
   86CHL1   C11 8804   4.633   3.409   7.567 -0.5691 -0.0154  0.2852
   86CHL1  H11A 8805   4.653   3.518   7.574  0.2606 -0.2509  2.1635
   86CHL1  H11B 8806   4.731   3.356   7.566 -0.8614 -0.5286 -0.6015
   86CHL1    C9 8807   4.556   3.379   7.439  0.8342  0.3222  0.1435
   86CHL1    H9 8808   4.533   3.271   7.444  0.1647  0.3279 -2.0996
   86CHL1   C10 8809   4.631   3.407   7.308 -0.4326  0.0241  0.1109
   86CHL1   C19 8810   4.694   3.544   7.315  0.3344  0.0975  0.1494
   86CHL1  H19A 8811   4.781   3.554   7.382 -1.1904  1.3585  1.9778
   86CHL1  H19B 8812   4.735   3.582   7.219  0.3679 -1.4883 -0.4790
   86CHL1  H19C 8813   4.616   3.619   7.342  1.5065  0.6651  1.9738
   86CHL1    C1 8814   4.736   3.292   7.288  0.6040  0.2669 -0.2271
   86CHL1   H1A 8815   4.794   3.295   7.382 -0.3833  0.0760  0.3891
   86CHL1   H1B 8816   4.673   3.200   7.291  0.4647  0.3865  0.3898
   86CHL1    C2 8817   4.804   3.299   7.158 -0.5250  0.6387 -0.6563
   86CHL1   H2A 8818   4.882   3.223   7.138 -1.5946 -0.3617 -1.0453
   86CHL1   H2B 8819   4.869   3.389   7.155 -1.4145  1.2811 -0.8850
   86CHL1   C20 8820   4.329   3.466   7.954  0.2033  0.6953  0.6171
   86CHL1   H20 8821   4.343   3.576   7.950 -0.8978  0.7955 -2.6028
   86CHL1   C21 8822   4.450   3.392   8.017 -0.2405 -0.2796 -0.2816
   86CHL1  H21A 8823   4.457   3.424   8.123  2.0014 -1.3303 -0.0804
   86CHL1  H21B 8824   4.551   3.421   7.980 -0.8233  0.7692 -1.0547
   86CHL1  H21C 8825   4.430   3.283   8.022 -1.7579  0.0199  0.2506
   86CHL1   C22 8826   4.212   3.436   8.044  0.6220 -0.6052 -0.4312
   86CHL1  H22A 8827   4.115   3.449   7.991  0.5591 -1.0931 -0.4386
   86CHL1  H22B 8828   4.208   3.332   8.083  0.3668 -0.1685  0.7345
   86CHL1   C23 8829   4.210   3.529   8.170  0.2961 -0.5362  0.1847
   86CHL1  H23A 8830   4.287   3.493   8.241  1.2249 -1.6127 -1.3307
   86CHL1  H23B 8831   4.241   3.631   8.139 -0.9646 -0.7470 -1.8788
   86CHL1   C24 8832   4.070   3.516   8.236  0.0808  0.1446 -0.0466
   86CHL1  H24A 8833   3.982   3.532   8.170  1.8557 -0.7542 -2.7050
   86CHL1  H24B 8834   4.060   3.412   8.275  0.4186  1.1626  2.9088
   86CHL1   C25 8835   4.051   3.619   8.351  0.7695 -0.3310  1.4420
   86CHL1   H25 8836   4.079   3.715   8.304 -1.1263 -0.7394 -0.5824
   86CHL1   C26 8837   3.902   3.634   8.387 -0.2581  0.6400 -0.7733
   86CHL1  H26A 8838   3.894   3.690   8.483 -0.6140  2.7863 -2.0191
   86CHL1  H26B 8839   3.849   3.691   8.308  0.6539  0.5530 -1.4556
   86CHL1  H26C 8840   3.851   3.536   8.400  0.3726  0.4117  0.0215
   86CHL1   C27 8841   4.119   3.585   8.483 -0.1945  0.4526 -0.2682
   86CHL1  H27A 8842   4.082   3.488   8.521 -0.2781 -0.1027 -1.7340
   86CHL1  H27B 8843   4.225   3.557   8.468 -0.7942 -1.3716 -1.2460
   86CHL1  H27C 8844   4.116   3.670   8.555  1.3866  0.5245 -0.2661
   87CHL1    C3 8845   4.835   2.024   6.966  0.2905  0.7220  0.7253
   87CHL1    H3 8846   4.814   1.922   7.005 -0.0451  0.7575  0.6368
   87CHL1    O3 8847   4.827   2.030   6.826  0.3146  0.1609  0.4138
   87CHL1   H3' 8848   4.861   2.119   6.818  1.5826 -0.2933  0.6809
   87CHL1    C4 8849   4.732   2.126   7.029 -0.4556 -0.1801 -0.8358
   87CHL1   H4A 8850   4.757   2.228   6.992  0.9777  0.3123  1.3522
   87CHL1   H4B 8851   4.631   2.104   6.988 -0.5028 -1.0206 -0.2864
   87CHL1    C5 8852   4.741   2.124   7.180  0.4108  0.3739 -0.5568
   87CHL1    C6 8853   4.634   2.088   7.254 -0.3866 -0.5178 -0.1894
   87CHL1    H6 8854   4.533   2.066   7.216 -1.3161  0.2265  1.7726
   87CHL1    C7 8855   4.639   2.075   7.402  0.2630 -0.4861  0.1974
   87CHL1   H7A 8856   4.550   2.114   7.456  0.2590 -0.5584  0.2414
   87CHL1   H7B 8857   4.661   1.969   7.424  4.2402  0.8384  3.1709
   87CHL1    C8 8858   4.763   2.150   7.457  0.5755  0.2049 -0.2210
   87CHL1    H8 8859   4.744   2.260   7.456 -0.9169 -0.0440 -0.4524
   87CHL1   C14 8860   4.777   2.114   7.605 -0.2280  0.0248  0.6182
   87CHL1   H14 8861   4.793   2.004   7.606 -1.9228 -0.2461 -0.2107
   87CHL1   C15 8862   4.654   2.135   7.694 -0.5222 -0.0153 -0.7518
   87CHL1  H15A 8863   4.627   2.243   7.688 -0.4144  0.0682  0.1913
   87CHL1  H15B 8864   4.573   2.063   7.670  0.2265 -0.7082 -1.2069
   87CHL1   C16 8865   4.715   2.121   7.831 -0.5556 -0.2552 -0.3777
   87CHL1  H16A 8866   4.674   2.198   7.900 -1.2724  1.9873 -3.1874
   87CHL1  H16B 8867   4.688   2.019   7.866  2.1102 -0.9893 -0.3649
   87CHL1   C17 8868   4.873   2.117   7.817  0.2240 -0.4988  0.0448
   87CHL1   H17 8869   4.909   2.013   7.822  2.7597  0.4040  1.4267
   87CHL1   C13 8870   4.897   2.175   7.674  0.1011  0.0324 -0.1313
   87CHL1   C18 8871   4.892   2.332   7.680  0.7657 -0.3245 -0.4338
   87CHL1  H18A 8872   4.982   2.379   7.725 -0.8463 -0.4363  3.0813
   87CHL1  H18B 8873   4.881   2.375   7.578 -1.0679  3.2090  1.1523
   87CHL1  H18C 8874   4.805   2.376   7.734  1.5186 -1.0409  1.3965
   87CHL1   C12 8875   5.031   2.137   7.599 -0.0699  0.0700  0.0983
   87CHL1  H12A 8876   5.117   2.192   7.643 -0.1407 -0.0124  0.3405
   87CHL1  H12B 8877   5.041   2.027   7.614 -2.2242 -0.4842 -2.1977
   87CHL1   C11 8878   5.018   2.175   7.452  0.0257  0.8214  0.2716
   87CHL1  H11A 8879   5.015   2.286   7.449 -3.1904  0.7974  0.4668
   87CHL1  H11B 8880   5.111   2.140   7.403 -1.9796 -1.3655 -2.0947
   87CHL1    C9 8881   4.892   2.115   7.379 -0.0407  0.1389 -0.1542
   87CHL1    H9 8882   4.899   2.005   7.382 -0.6496 -0.0541 -3.6435
   87CHL1   C10 8883   4.883   2.154   7.228 -0.0955  0.7593  0.2841
   87CHL1   C19 8884   4.909   2.306   7.208 -0.4208  0.2144 -0.1468
   87CHL1  H19A 8885   4.912   2.333   7.100 -1.5615 -0.0437 -0.2425
   87CHL1  H19B 8886   4.838   2.376   7.256 -1.4415 -2.2616  2.0721
   87CHL1  H19C 8887   5.009   2.327   7.251  0.9591  0.2507 -3.2166
   87CHL1    C1 8888   4.991   2.064   7.165  0.1191 -0.4664  0.1620
   87CHL1   H1A 8889   5.094   2.093   7.195 -0.0550 -2.0863  2.4082
   87CHL1   H1B 8890   4.966   1.963   7.203 -0.0050 -1.1598 -1.7122
   87CHL1    C2 8891   4.983   2.054   7.005 -0.5879  0.3743  0.3828
   87CHL1   H2A 8892   5.051   1.971   6.973 -1.2152  0.1713 -0.4294
   87CHL1   H2B 8893   5.010   2.151   6.960  2.8130  0.1801  1.7743
   87CHL1   C20 8894   4.940   2.178   7.936  0.2064 -0.0674 -0.5581
   87CHL1   H20 8895   4.909   2.284   7.942  0.8541  0.1224 -0.4640
   87CHL1   C21 8896   5.098   2.172   7.928  0.1806 -0.5443 -0.0704
   87CHL1  H21A 8897   5.137   2.201   7.828  0.3769 -0.6828 -0.0336
   87CHL1  H21B 8898   5.140   2.076   7.964  2.0901  0.8481  1.5496
   87CHL1  H21C 8899   5.137   2.250   7.998  0.6391 -1.6204  0.8836
   87CHL1   C22 8900   4.906   2.116   8.071 -0.8978  0.5032  0.1333
   87CHL1  H22A 8901   4.795   2.110   8.075 -0.8944  0.0450 -0.3039
   87CHL1  H22B 8902   4.937   2.009   8.075  0.2800  0.8562  0.7176
   87CHL1   C23 8903   4.968   2.180   8.202  0.2163  0.6709  0.7562
   87CHL1  H23A 8904   4.983   2.099   8.276 -0.8858  1.5492  1.9639
   87CHL1  H23B 8905   5.068   2.227   8.189  0.3856 -0.1433 -0.8889
   87CHL1   C24 8906   4.879   2.288   8.258 -0.3093  0.2244  0.0301
   87CHL1  H24A 8907   4.851   2.341   8.165 -1.2409 -3.0534 -1.6546
   87CHL1  H24B 8908   4.790   2.241   8.307  0.8460 -0.1060  1.8485
   87CHL1   C25 8909   4.960   2.389   8.347  0.0647 -0.0963 -0.0155
   87CHL1   H25 8910   5.043   2.415   8.278 -0.0397  0.4735  0.0731
   87CHL1   C26 8911   4.881   2.515   8.375 -1.0974  0.2579 -0.1340
   87CHL1  H26A 8912   4.943   2.600   8.411  0.4184  0.2144 -2.5201
   87CHL1  H26B 8913   4.832   2.557   8.284 -3.3004 -0.7854  0.5487
   87CHL1  H26C 8914   4.808   2.495   8.456 -2.3208 -1.0500 -1.5289
   87CHL1   C27 8915   5.002   2.324   8.477 -0.4380 -0.4434  0.2279
   87CHL1  H27A 8916   5.058   2.230   8.460  1.7115  1.1757 -2.1173
   87CHL1  H27B 8917   5.071   2.390   8.534  0.4912 -0.4119 -0.9100
   87CHL1  H27C 8918   4.911   2.300   8.535 -0.0784 -1.0416  0.5429
   88CHL1    C3 8919   2.324   0.839   6.963 -0.2828  0.1157 -0.9393
   88CHL1    H3 8920   2.420   0.893   6.974 -0.6254  0.4277  0.6756
   88CHL1    O3 8921   2.300   0.829   6.830 -0.5514 -0.2916 -0.4468
   88CHL1   H3' 8922   2.209   0.799   6.825 -0.7427  0.0755  0.7139
   88CHL1    C4 8923   2.337   0.698   7.019  0.7426 -0.5282  0.4919
   88CHL1   H4A 8924   2.245   0.639   7.001  0.4650 -0.5153  1.8469
   88CHL1   H4B 8925   2.414   0.646   6.957  1.1595  0.1429  0.4357
   88CHL1    C5 8926   2.368   0.696   7.167  0.2782  0.1789 -0.5204
   88CHL1    C6 8927   2.469   0.639   7.230 -0.2506 -0.4725  0.2525
   88CHL1    H6 8928   2.550   0.597   7.169  0.3175 -0.4092  0.9673
   88CHL1    C7 8929   2.491   0.619   7.376  0.2559 -0.3001  0.0887
   88CHL1   H7A 8930   2.506   0.511   7.396 -2.4441 -0.4248  1.7088
   88CHL1   H7B 8931   2.587   0.668   7.404 -1.2794  3.5696 -1.0127
   88CHL1    C8 8932   2.373   0.659   7.463 -0.0073  0.6091  0.0771
   88CHL1    H8 8933   2.284   0.592   7.459 -0.7725  1.6501 -0.6156
   88CHL1   C14 8934   2.421   0.682   7.607  0.1606  0.8300 -0.4728
   88CHL1   H14 8935   2.496   0.761   7.587  2.5373 -0.7331  1.8756
   88CHL1   C15 8936   2.513   0.579   7.675  0.4621  0.1723 -0.1072
   88CHL1  H15A 8937   2.460   0.481   7.684  0.2590  0.2317 -0.6113
   88CHL1  H15B 8938   2.609   0.557   7.623 -0.5372 -1.8452 -1.1961
   88CHL1   C16 8939   2.523   0.645   7.814  0.1281  0.3943 -0.5106
   88CHL1  H16A 8940   2.508   0.573   7.898 -2.1535  0.7306 -0.6112
   88CHL1  H16B 8941   2.624   0.693   7.818  0.4613 -0.3581  0.3758
   88CHL1   C17 8942   2.424   0.759   7.826 -1.5010  0.3025  0.0279
   88CHL1   H17 8943   2.486   0.849   7.807  2.0210 -2.4101 -1.8720
   88CHL1   C13 8944   2.322   0.736   7.703 -0.6624  0.4045 -0.5599
   88CHL1   C18 8945   2.216   0.626   7.739  0.1485 -0.2633 -0.0705
   88CHL1  H18A 8946   2.196   0.558   7.653 -2.6882  1.3458 -0.7757
   88CHL1  H18B 8947   2.246   0.564   7.825  2.7013 -1.2118 -1.6137
   88CHL1  H18C 8948   2.118   0.666   7.773  0.7360 -0.4531  1.8801
   88CHL1   C12 8949   2.250   0.855   7.647 -0.6480  0.3666  0.1876
   88CHL1  H12A 8950   2.167   0.866   7.720  0.3716 -1.6591  1.7061
   88CHL1  H12B 8951   2.318   0.942   7.641  0.6025 -0.6943 -1.8350
   88CHL1   C11 8952   2.196   0.836   7.500  0.5481  1.1447  0.0870
   88CHL1  H11A 8953   2.116   0.759   7.505  1.0926  0.5652 -0.0389
   88CHL1  H11B 8954   2.158   0.937   7.472 -0.0103  0.0081 -3.4888
   88CHL1    C9 8955   2.310   0.789   7.408 -0.1166 -0.3221  0.5023
   88CHL1    H9 8956   2.383   0.874   7.413 -1.1355  0.5152  1.3800
   88CHL1   C10 8957   2.264   0.776   7.256 -0.3247  0.6721 -0.3061
   88CHL1   C19 8958   2.140   0.687   7.251  0.3828 -0.2952 -0.2389
   88CHL1  H19A 8959   2.153   0.582   7.285  2.7034  0.6235  1.7860
   88CHL1  H19B 8960   2.059   0.726   7.317  2.7894 -0.5516  2.9711
   88CHL1  H19C 8961   2.091   0.688   7.151  1.5499 -1.3907 -0.8237
   88CHL1    C1 8962   2.238   0.918   7.195 -0.1961  0.3383  0.4401
   88CHL1   H1A 8963   2.158   0.971   7.252  0.4224  1.2552  0.4837
   88CHL1   H1B 8964   2.335   0.966   7.222  0.9884 -1.5865 -0.3449
   88CHL1    C2 8965   2.220   0.916   7.045 -0.0632 -0.3626  0.7797
   88CHL1   H2A 8966   2.224   1.017   6.998  1.0079 -0.0274  1.5851
   88CHL1   H2B 8967   2.118   0.878   7.023  0.4811 -0.0948 -2.5937
   88CHL1   C20 8968   2.373   0.763   7.971  0.2688 -0.1776 -0.0141
   88CHL1   H20 8969   2.327   0.665   7.996 -1.9180  0.4991 -1.2935
   88CHL1   C21 8970   2.260   0.860   7.994  0.1693  0.4187 -0.1398
   88CHL1  H21A 8971   2.216   0.840   8.094  1.1997  0.9777  0.4352
   88CHL1  H21B 8972   2.180   0.833   7.922  0.1622  0.0016  0.0233
   88CHL1  H21C 8973   2.302   0.962   7.982  2.2163  0.0017  3.0177
   88CHL1   C22 8974   2.483   0.797   8.080  1.4493 -0.5904 -0.0204
   88CHL1  H22A 8975   2.577   0.742   8.059 -0.0095 -3.1618 -0.0886
   88CHL1  H22B 8976   2.511   0.904   8.073  2.0018 -0.7387 -0.1061
   88CHL1   C23 8977   2.451   0.765   8.223 -0.5187 -0.1993 -0.7352
   88CHL1  H23A 8978   2.354   0.813   8.248  0.0333  0.7237 -0.3498
   88CHL1  H23B 8979   2.433   0.655   8.215 -3.8822  0.1594  0.9767
   88CHL1   C24 8980   2.562   0.805   8.320  0.3154 -0.1932 -0.2641
   88CHL1  H24A 8981   2.663   0.783   8.279  0.3065  2.0936 -1.5451
   88CHL1  H24B 8982   2.559   0.911   8.351  1.1282 -0.4487  0.7261
   88CHL1   C25 8983   2.559   0.739   8.462  0.5449  0.7964 -0.1555
   88CHL1   H25 8984   2.532   0.634   8.439  0.8719  0.8209 -0.6509
   88CHL1   C26 8985   2.699   0.739   8.533 -0.3371 -0.6810 -0.3312
   88CHL1  H26A 8986   2.689   0.663   8.613 -1.7062 -1.1302 -0.9099
   88CHL1  H26B 8987   2.782   0.714   8.465 -0.7369  0.4892 -1.2650
   88CHL1  H26C 8988   2.731   0.837   8.575 -0.8936 -0.1215 -1.2028
   88CHL1   C27 8989   2.449   0.794   8.548 -0.7236 -0.1432  0.3421
   88CHL1  H27A 8990   2.355   0.791   8.491 -1.3819 -3.2120  1.4805
   88CHL1  H27B 8991   2.441   0.724   8.634  0.8141 -2.5476 -1.4158
   88CHL1  H27C 8992   2.491   0.894   8.573  1.0389 -0.2015 -2.1853
   89CHL1    C3 8993   4.912   2.873   6.990 -0.4353  0.1931 -0.3158
   89CHL1    H3 8994   4.905   2.983   6.980 -0.1246  0.3929  1.4622
   89CHL1    O3 8995   4.927   2.805   6.868  0.1973 -0.5241 -0.0955
   89CHL1   H3' 8996   4.930   2.878   6.806 -3.8343  1.1610  1.5119
   89CHL1    C4 8997   5.035   2.853   7.079  0.0154 -0.0348 -0.5585
   89CHL1   H4A 8998   5.051   2.744   7.075  0.1783 -0.1720  2.5971
   89CHL1   H4B 8999   5.125   2.900   7.033  1.8755 -2.8743  0.0775
   89CHL1    C5 9000   5.015   2.900   7.224 -0.8301 -0.1613  0.1507
   89CHL1    C6 9001   5.106   2.984   7.274 -0.1427 -0.3686 -0.3028
   89CHL1    H6 9002   5.194   3.019   7.219  0.9693 -0.5995  1.2975
   89CHL1    C7 9003   5.108   3.037   7.417  0.0105  0.2821  0.2130
   89CHL1   H7A 9004   5.207   3.024   7.465 -0.3584  0.1967  0.9571
   89CHL1   H7B 9005   5.085   3.145   7.427  0.6937  0.3834  0.7427
   89CHL1    C8 9006   4.990   2.962   7.497  0.0078  0.7407  0.0608
   89CHL1    H8 9007   5.025   2.858   7.511  2.6580  1.4930 -0.7552
   89CHL1   C14 9008   4.967   3.021   7.637  0.5038 -0.3416 -0.1557
   89CHL1   H14 9009   4.947   3.130   7.632  0.8992 -0.3097 -1.2078
   89CHL1   C15 9010   5.089   3.029   7.732  0.0071  0.2723 -0.6624
   89CHL1  H15A 9011   5.143   2.932   7.738  2.1873  1.3791 -1.6610
   89CHL1  H15B 9012   5.164   3.109   7.711  1.5762 -1.3379 -1.3154
   89CHL1   C16 9013   5.025   3.052   7.869 -0.2624 -0.2782 -0.1531
   89CHL1  H16A 9014   5.073   2.981   7.940  0.6785  0.0466 -0.4565
   89CHL1  H16B 9015   5.038   3.157   7.903  0.8447 -0.1749 -0.8746
   89CHL1   C17 9016   4.868   3.032   7.841 -0.1798 -0.6056 -1.0912
   89CHL1   H17 9017   4.837   3.137   7.821  3.6403  0.6355 -1.0290
   89CHL1   C13 9018   4.845   2.958   7.713  0.1453  0.3107 -0.0427
   89CHL1   C18 9019   4.868   2.806   7.740  0.7465  0.3702  0.5094
   89CHL1  H18A 9020   4.951   2.774   7.806  1.6332 -1.2610 -1.3168
   89CHL1  H18B 9021   4.781   2.758   7.789  0.4953 -0.4404 -0.6888
   89CHL1  H18C 9022   4.893   2.753   7.645  4.0421  0.7592  1.0877
   89CHL1   C12 9023   4.716   2.990   7.634 -0.1571 -0.5996  0.6006
   89CHL1  H12A 9024   4.635   2.934   7.685  2.1999 -2.7959  2.0917
   89CHL1  H12B 9025   4.712   3.101   7.630 -0.7651 -0.6716 -0.9633
   89CHL1   C11 9026   4.727   2.931   7.488  0.0955 -0.5558  0.4358
   89CHL1  H11A 9027   4.710   2.822   7.499  1.8075 -1.0416 -1.5139
   89CHL1  H11B 9028   4.646   2.973   7.426  0.4692 -0.5463 -0.0447
   89CHL1    C9 9029   4.861   2.958   7.415 -0.5489 -0.4656 -0.4491
   89CHL1    H9 9030   4.847   3.061   7.375 -0.2978 -0.2878 -0.0827
   89CHL1   C10 9031   4.885   2.860   7.296  0.9307  0.0722 -0.5528
   89CHL1   C19 9032   4.898   2.712   7.342 -0.2434  0.1828 -0.0509
   89CHL1  H19A 9033   4.915   2.649   7.253  0.5936 -1.7390  1.4298
   89CHL1  H19B 9034   4.967   2.693   7.427 -0.8415 -0.5777  0.2716
   89CHL1  H19C 9035   4.795   2.690   7.379 -0.9714  0.6079 -1.7856
   89CHL1    C1 9036   4.756   2.885   7.193  0.1717 -0.8607  0.1755
   89CHL1   H1A 9037   4.667   2.834   7.234 -0.3431 -0.3508 -0.3048
   89CHL1   H1B 9038   4.726   2.992   7.187  0.9851 -0.6315  0.0557
   89CHL1    C2 9039   4.790   2.819   7.056 -0.3552  0.4071  0.0784
   89CHL1   H2A 9040   4.700   2.850   6.998 -1.0385  1.2699  1.5688
   89CHL1   H2B 9041   4.783   2.708   7.064  0.1987  0.2022 -1.9707
   89CHL1   C20 9042   4.793   2.986   7.965 -0.6723 -0.5122 -0.0973
   89CHL1   H20 9043   4.821   2.880   7.987  0.3930 -0.1256  0.4683
   89CHL1   C21 9044   4.637   2.980   7.970  0.2088 -0.6135  0.1530
   89CHL1  H21A 9045   4.586   3.071   7.933 -0.0636 -0.4517  0.9180
   89CHL1  H21B 9046   4.598   2.974   8.074  0.5522 -0.1722  0.3117
   89CHL1  H21C 9047   4.618   2.883   7.919  0.8182  0.4496 -2.1384
   89CHL1   C22 9048   4.840   3.058   8.092  0.7517 -0.0559  1.0417
   89CHL1  H22A 9049   4.788   3.010   8.178  2.1363 -1.8130  0.9290
   89CHL1  H22B 9050   4.947   3.032   8.102  0.7524 -0.8978 -0.9038
   89CHL1   C23 9051   4.816   3.211   8.088  0.3456  0.3803  0.2127
   89CHL1  H23A 9052   4.860   3.251   7.994 -1.6927  0.6076 -0.6802
   89CHL1  H23B 9053   4.709   3.241   8.087  0.2786  0.1353  0.1079
   89CHL1   C24 9054   4.880   3.273   8.214 -0.1300  0.1768  0.2666
   89CHL1  H24A 9055   4.982   3.231   8.224 -0.1630  0.2378  0.9376
   89CHL1  H24B 9056   4.879   3.383   8.196 -1.1113  0.0186 -0.7076
   89CHL1   C25 9057   4.805   3.247   8.356  0.1085  0.7865 -0.0593
   89CHL1   H25 9058   4.798   3.137   8.375  1.8285  1.1388  2.9795
   89CHL1   C26 9059   4.877   3.302   8.473 -0.4885  0.3847 -0.5325
   89CHL1  H26A 9060   4.979   3.261   8.489 -1.0306 -0.6126  0.4425
   89CHL1  H26B 9061   4.892   3.410   8.454  0.7518  0.5834  1.4508
   89CHL1  H26C 9062   4.824   3.282   8.569  0.7386 -1.4576 -0.2259
   89CHL1   C27 9063   4.652   3.299   8.364 -0.2387  0.2606  0.5279
   89CHL1  H27A 9064   4.648   3.408   8.384  0.7856  0.2585  0.7302
   89CHL1  H27B 9065   4.600   3.268   8.270  3.1721 -0.1707 -1.3092
   89CHL1  H27C 9066   4.605   3.239   8.445 -0.2483  0.6108  0.7793
   90CHL1    C3 9067   5.553   5.554   6.847 -0.1298  0.5336  0.2577
   90CHL1    H3 9068   5.627   5.629   6.883  2.6808 -0.9824 -2.1523
   90CHL1    O3 9069   5.546   5.563   6.703 -0.3349  0.2441  0.0234
   90CHL1   H3' 9070   5.534   5.472   6.674 -0.5652  0.5409 -0.8181
   90CHL1    C4 9071   5.597   5.416   6.894  0.2134 -0.4650 -0.1966
   90CHL1   H4A 9072   5.529   5.335   6.861  1.0319 -0.5927 -1.6020
   90CHL1   H4B 9073   5.693   5.394   6.843  0.4775 -0.2045  0.1830
   90CHL1    C5 9074   5.607   5.412   7.044  0.6961  0.0836 -0.2712
   90CHL1    C6 9075   5.719   5.385   7.104 -0.0914  0.0921  0.2428
   90CHL1    H6 9076   5.807   5.363   7.041 -0.3884 -0.6676  0.0822
   90CHL1    C7 9077   5.742   5.373   7.253 -0.1148  0.3359  0.0496
   90CHL1   H7A 9078   5.783   5.275   7.285 -1.1706 -0.5118 -1.1316
   90CHL1   H7B 9079   5.812   5.456   7.278 -0.9263  1.3900 -1.1078
   90CHL1    C8 9080   5.607   5.389   7.332 -0.3749  0.4572  0.1206
   90CHL1    H8 9081   5.553   5.293   7.343 -0.2733  0.4389  0.4459
   90CHL1   C14 9082   5.646   5.436   7.473 -0.4808  0.2354 -0.5223
   90CHL1   H14 9083   5.687   5.539   7.462 -0.7979  0.5734  1.3055
   90CHL1   C15 9084   5.759   5.362   7.547  0.4492  0.3807 -0.2399
   90CHL1  H15A 9085   5.751   5.251   7.546 -2.6587  0.5353  0.4502
   90CHL1  H15B 9086   5.861   5.401   7.528  0.3799  0.4846 -0.3962
   90CHL1   C16 9087   5.734   5.412   7.687  0.3317 -0.3368 -0.0341
   90CHL1  H16A 9088   5.746   5.325   7.755  2.0919 -0.4435 -0.4660
   90CHL1  H16B 9089   5.807   5.493   7.707 -0.3764  0.4030 -0.4424
   90CHL1   C17 9090   5.588   5.471   7.698  0.7011  0.6232  0.0581
   90CHL1   H17 9091   5.601   5.581   7.709 -1.1390  0.7290  1.4708
   90CHL1   C13 9092   5.522   5.439   7.565 -0.2054 -0.6365  0.3252
   90CHL1   C18 9093   5.465   5.289   7.582 -0.9197 -0.3480 -0.2410
   90CHL1  H18A 9094   5.381   5.290   7.655 -1.9931 -0.9179 -1.4336
   90CHL1  H18B 9095   5.418   5.252   7.488  0.8942 -0.5554 -1.0711
   90CHL1  H18C 9096   5.546   5.219   7.609 -0.1960 -0.1732 -1.9070
   90CHL1   C12 9097   5.430   5.548   7.504 -0.1637 -0.8815  0.3000
   90CHL1  H12A 9098   5.331   5.561   7.552 -0.7072 -1.3892 -0.6703
   90CHL1  H12B 9099   5.484   5.644   7.518 -2.2091  0.3261  0.0056
   90CHL1   C11 9100   5.395   5.526   7.353  0.1175  0.1115  0.4525
   90CHL1  H11A 9101   5.339   5.431   7.347  1.1996 -0.4772 -0.6605
   90CHL1  H11B 9102   5.341   5.614   7.311 -0.8189 -0.8351 -0.3457
   90CHL1    C9 9103   5.521   5.493   7.266  0.2432 -0.1502 -0.9091
   90CHL1    H9 9104   5.572   5.591   7.272  2.6754 -1.5223  2.2677
   90CHL1   C10 9105   5.481   5.453   7.119  0.2181 -0.0896 -0.1064
   90CHL1   C19 9106   5.384   5.333   7.100  0.3027  0.0973  0.6671
   90CHL1  H19A 9107   5.288   5.357   7.148 -1.2690 -2.4136 -1.1147
   90CHL1  H19B 9108   5.359   5.322   6.992  1.2910  2.2156  0.1740
   90CHL1  H19C 9109   5.428   5.237   7.133 -2.7134 -0.4418  3.2298
   90CHL1    C1 9110   5.422   5.575   7.055  0.4333 -0.2575 -0.0552
   90CHL1   H1A 9111   5.316   5.595   7.085  0.3017 -1.1126  0.0455
   90CHL1   H1B 9112   5.475   5.666   7.092  1.0180  0.5679 -2.8514
   90CHL1    C2 9113   5.416   5.578   6.900 -0.2329 -0.6792 -0.7762
   90CHL1   H2A 9114   5.370   5.672   6.863 -0.7400 -1.0258 -1.0266
   90CHL1   H2B 9115   5.345   5.499   6.867 -2.9446  0.9291  0.9841
   90CHL1   C20 9116   5.512   5.431   7.832  0.7180 -0.7686  0.0880
   90CHL1   H20 9117   5.517   5.321   7.848 -0.0843 -0.4885  2.3643
   90CHL1   C21 9118   5.372   5.489   7.841 -0.3190  0.3481  0.1194
   90CHL1  H21A 9119   5.318   5.476   7.937  1.0760  0.5706  0.9500
   90CHL1  H21B 9120   5.314   5.463   7.749  0.0913  0.4631 -0.1773
   90CHL1  H21C 9121   5.393   5.596   7.818 -1.3307  0.2850 -1.1755
   90CHL1   C22 9122   5.595   5.487   7.959 -0.1019  0.6476  0.4528
   90CHL1  H22A 9123   5.697   5.444   7.956 -1.2634 -2.0717 -1.9933
   90CHL1  H22B 9124   5.619   5.594   7.947  0.9713  0.4279  0.6206
   90CHL1   C23 9125   5.517   5.472   8.095  0.3987  0.1248 -0.8148
   90CHL1  H23A 9126   5.568   5.532   8.173  2.4620  0.2912 -2.2409
   90CHL1  H23B 9127   5.419   5.523   8.087  0.1304 -0.8159 -3.9897
   90CHL1   C24 9128   5.485   5.333   8.149 -0.2248  0.7821 -0.3452
   90CHL1  H24A 9129   5.431   5.273   8.072 -2.2301  1.5787  0.4094
   90CHL1  H24B 9130   5.576   5.278   8.181  0.3291  1.4029 -0.8398
   90CHL1   C25 9131   5.395   5.321   8.282  0.3451  0.3504 -0.2784
   90CHL1   H25 9132   5.308   5.387   8.261  1.2166  1.8770  0.7695
   90CHL1   C26 9133   5.339   5.182   8.300 -0.3414  0.0190 -0.1294
   90CHL1  H26A 9134   5.254   5.152   8.235  0.7268 -0.8249 -1.1618
   90CHL1  H26B 9135   5.424   5.110   8.296  0.8849  1.3568  1.5102
   90CHL1  H26C 9136   5.293   5.197   8.400  0.4547  1.3085  0.0506
   90CHL1   C27 9137   5.480   5.377   8.406 -0.2742 -0.3258 -0.2059
   90CHL1  H27A 9138   5.558   5.302   8.433 -0.2831  0.0293  0.8487
   90CHL1  H27B 9139   5.531   5.474   8.391  2.0739 -1.6728 -1.2192
   90CHL1  H27C 9140   5.401   5.380   8.484 -0.9290  1.6748 -0.9220
   91CHL1    C3 9141   0.000   0.179   7.227 -0.0891 -0.7759  0.4060
   91CHL1    H3 9142   0.021   0.279   7.271 -0.6092 -0.4017 -0.1942
   91CHL1    O3 9143   0.025   0.180   7.086 -0.0988 -0.7510  0.1465
   91CHL1   H3' 9144   0.051   0.089   7.070  1.8168 -0.6729  2.5320
   91CHL1    C4 9145   0.095   0.080   7.296 -0.0577 -0.1411 -0.4391
   91CHL1   H4A 9146   0.079  -0.016   7.243 -0.4669  0.1537 -0.8510
   91CHL1   H4B 9147   0.203   0.104   7.286 -0.7552  3.4450 -0.1104
   91CHL1    C5 9148   0.057   0.078   7.446  0.1384 -0.0893 -0.2757
   91CHL1    C6 9149   0.145   0.107   7.538  0.2724  0.0490  0.0883
   91CHL1    H6 9150   0.243   0.134   7.495 -1.0633 -0.6591 -3.5503
   91CHL1    C7 9151   0.131   0.097   7.683 -0.6780  0.8763 -0.2924
   91CHL1   H7A 9152   0.208   0.037   7.735 -0.2567  1.3700 -0.3434
   91CHL1   H7B 9153   0.130   0.198   7.727 -0.1021  0.1896  1.3103
   91CHL1    C8 9154  -0.009   0.027   7.723 -1.1337  0.1424  0.5636
   91CHL1    H8 9155   0.002  -0.083   7.714  0.3106  0.3354 -0.2742
   91CHL1   C14 9156  -0.046   0.059   7.867  0.1554  0.0863  0.2524
   91CHL1   H14 9157  -0.045   0.170   7.872 -0.9125  0.2080 -1.7858
   91CHL1   C15 9158   0.053   0.022   7.976  0.0192  0.3693 -0.2883
   91CHL1  H15A 9159   0.084  -0.084   7.961 -3.4348 -1.1399  2.5196
   91CHL1  H15B 9160   0.139   0.093   7.968  1.1127 -0.7002  1.5699
   91CHL1   C16 9161  -0.023   0.016   8.109  0.2682 -0.3815  0.2466
   91CHL1  H16A 9162   0.005  -0.082   8.154 -0.0433 -0.4792  0.2301
   91CHL1  H16B 9163   0.011   0.096   8.178  2.2142  2.1922 -3.4975
   91CHL1   C17 9164  -0.169   0.027   8.075 -0.6326  0.0542 -0.1079
   91CHL1   H17 9165  -0.204   0.132   8.085 -0.5879 -0.0388  1.1726
   91CHL1   C13 9166  -0.176  -0.007   7.921 -0.3424  0.0953 -0.2751
   91CHL1   C18 9167  -0.171  -0.164   7.913  0.2003 -0.8344  0.5478
   91CHL1  H18A 9168  -0.106  -0.206   7.993 -0.2591 -1.7089  0.4693
   91CHL1  H18B 9169  -0.277  -0.197   7.925 -1.0899  3.3117  1.6174
   91CHL1  H18C 9170  -0.140  -0.196   7.811  0.8231  0.4803  0.3155
   91CHL1   C12 9171  -0.290   0.045   7.829 -0.9619  0.4528  0.6055
   91CHL1  H12A 9172  -0.385  -0.006   7.854  0.9068 -2.5441  1.9184
   91CHL1  H12B 9173  -0.289   0.154   7.847  1.0782  0.5700 -0.0497
   91CHL1   C11 9174  -0.264   0.020   7.674 -0.5290 -0.0362  0.1475
   91CHL1  H11A 9175  -0.261  -0.089   7.652  0.0874 -0.4902  2.3151
   91CHL1  H11B 9176  -0.349   0.066   7.620  1.0108 -0.0475 -2.3244
   91CHL1    C9 9177  -0.128   0.074   7.626 -0.0930  0.5851  0.8012
   91CHL1    H9 9178  -0.138   0.183   7.647  0.1531  0.5394  1.1673
   91CHL1   C10 9179  -0.094   0.048   7.477  0.3632 -0.6167 -0.0442
   91CHL1   C19 9180  -0.126  -0.099   7.437  0.1709 -0.0246  0.3117
   91CHL1  H19A 9181  -0.108  -0.106   7.328  0.1544  0.1304  0.2989
   91CHL1  H19B 9182  -0.052  -0.167   7.483  0.4290 -0.4739 -0.7499
   91CHL1  H19C 9183  -0.229  -0.135   7.457  0.0582 -1.0561 -1.9392
   91CHL1    C1 9184  -0.183   0.148   7.397  0.3646 -0.0530  0.4412
   91CHL1   H1A 9185  -0.293   0.138   7.412  0.0227  0.3549 -1.6288
   91CHL1   H1B 9186  -0.164   0.247   7.443  0.8600  0.4064 -0.7534
   91CHL1    C2 9187  -0.148   0.143   7.244  0.0038 -0.1378 -0.1569
   91CHL1   H2A 9188  -0.213   0.228   7.214  1.2708  1.8869  2.5275
   91CHL1   H2B 9189  -0.186   0.047   7.204 -1.6394 -0.4647  2.0533
   91CHL1   C20 9190  -0.267  -0.054   8.168  0.0977  0.6752  0.0082
   91CHL1   H20 9191  -0.241  -0.162   8.167  0.4316  0.7400  0.8287
   91CHL1   C21 9192  -0.415  -0.031   8.128 -0.4124 -0.3093  0.2796
   91CHL1  H21A 9193  -0.429   0.079   8.119 -0.0892 -0.2589  0.3806
   91CHL1  H21B 9194  -0.492  -0.084   8.188  0.4643 -2.6378 -0.6141
   91CHL1  H21C 9195  -0.430  -0.088   8.034  0.6499 -0.1888  0.0314
   91CHL1   C22 9196  -0.254  -0.010   8.319  0.0818  0.5671 -0.1270
   91CHL1  H22A 9197  -0.344  -0.034   8.379 -1.1986  4.1466 -0.4755
   91CHL1  H22B 9198  -0.158  -0.058   8.350  0.1140 -0.0379 -1.1476
   91CHL1   C23 9199  -0.236   0.141   8.344 -0.2214  0.2891 -0.2667
   91CHL1  H23A 9200  -0.145   0.176   8.291  1.2921 -2.1732  0.6324
   91CHL1  H23B 9201  -0.328   0.178   8.295 -1.3456 -0.1240  1.4972
   91CHL1   C24 9202  -0.251   0.168   8.492 -0.7221 -0.2457 -0.2805
   91CHL1  H24A 9203  -0.325   0.096   8.534 -2.1119  0.4715 -1.4824
   91CHL1  H24B 9204  -0.157   0.153   8.549 -0.7779  0.2771 -0.0480
   91CHL1   C25 9205  -0.291   0.312   8.532 -0.5395 -0.0915 -0.1919
   91CHL1   H25 9206  -0.298   0.321   8.642 -0.3703 -0.6988 -0.1322
   91CHL1   C26 9207  -0.184   0.410   8.477  0.9229 -0.4022 -0.6921
   91CHL1  H26A 9208  -0.203   0.433   8.370  0.8945 -0.4573 -0.6973
   91CHL1  H26B 9209  -0.198   0.508   8.527  2.0554 -1.2421  1.3493
   91CHL1  H26C 9210  -0.080   0.370   8.481  0.5838 -1.2279 -0.0807
   91CHL1   C27 9211  -0.427   0.371   8.476  0.8015  0.0057 -0.6631
   91CHL1  H27A 9212  -0.428   0.479   8.503 -1.6010 -0.0936 -0.2600
   91CHL1  H27B 9213  -0.422   0.355   8.366  1.7327 -0.4377 -0.5637
   91CHL1  H27C 9214  -0.510   0.322   8.530  0.1002 -0.8654 -2.4722
   92CHL1    C3 9215   2.582   1.453   6.991  0.2282  0.3330  0.0520
   92CHL1    H3 9216   2.618   1.349   6.998 -1.1607 -0.1663  0.0779
   92CHL1    O3 9217   2.589   1.502   6.859  0.1059  0.0849  0.6856
   92CHL1   H3' 9218   2.546   1.587   6.868 -0.0641  0.1266 -0.5350
   92CHL1    C4 9219   2.434   1.457   7.028  0.4637  0.1192 -0.3240
   92CHL1   H4A 9220   2.392   1.558   7.006  1.5814  0.3226 -1.6330
   92CHL1   H4B 9221   2.392   1.388   6.951 -2.1150  1.6974 -0.4132
   92CHL1    C5 9222   2.404   1.429   7.167 -0.4050 -0.5116 -0.1235
   92CHL1    C6 9223   2.309   1.339   7.196  0.1701  0.2776  0.0199
   92CHL1    H6 9224   2.251   1.290   7.117  0.3605 -2.5576  1.5626
   92CHL1    C7 9225   2.265   1.306   7.342  0.4666 -0.2047  0.6265
   92CHL1   H7A 9226   2.157   1.310   7.365  0.3884  0.8032  0.1103
   92CHL1   H7B 9227   2.306   1.207   7.371  1.4355 -0.5643 -1.8132
   92CHL1    C8 9228   2.324   1.400   7.447 -0.0624 -0.2295  0.3907
   92CHL1    H8 9229   2.253   1.485   7.437  0.5780  0.1480 -1.1732
   92CHL1   C14 9230   2.332   1.328   7.589 -0.0639 -0.2854  0.6468
   92CHL1   H14 9231   2.419   1.261   7.578  0.0457  0.0116 -0.3789
   92CHL1   C15 9232   2.212   1.247   7.642  0.1274 -0.0275  0.0521
   92CHL1  H15A 9233   2.123   1.310   7.624  1.0558  0.8915 -1.3824
   92CHL1  H15B 9234   2.193   1.150   7.590 -4.6516  0.3996  0.7690
   92CHL1   C16 9235   2.243   1.239   7.790  0.3005 -1.1591 -0.0578
   92CHL1  H16A 9236   2.162   1.282   7.853  1.1597  0.5344 -0.0991
   92CHL1  H16B 9237   2.272   1.138   7.826 -0.3175 -0.3974  2.6489
   92CHL1   C17 9238   2.372   1.322   7.820  0.0686 -0.4211  0.9901
   92CHL1   H17 9239   2.458   1.257   7.794 -1.6673 -2.1741 -0.4666
   92CHL1   C13 9240   2.379   1.428   7.699  0.6729  0.6147  0.7865
   92CHL1   C18 9241   2.268   1.536   7.716 -0.2177  0.5848  0.5276
   92CHL1  H18A 9242   2.165   1.498   7.731 -0.3551  0.2394 -1.1914
   92CHL1  H18B 9243   2.289   1.597   7.806 -0.0771 -0.5264  1.2662
   92CHL1  H18C 9244   2.263   1.591   7.619  1.8136 -1.0654 -0.5627
   92CHL1   C12 9245   2.515   1.489   7.665 -0.1058  0.7811  0.1299
   92CHL1  H12A 9246   2.539   1.572   7.735 -1.5864  0.4716  1.0327
   92CHL1  H12B 9247   2.591   1.409   7.677  0.3038  1.2813  0.8453
   92CHL1   C11 9248   2.515   1.553   7.527  0.9042  0.4932 -0.1715
   92CHL1  H11A 9249   2.456   1.647   7.520 -0.7205 -0.5705 -1.2960
   92CHL1  H11B 9250   2.615   1.589   7.495  0.2137  1.2484 -1.5614
   92CHL1    C9 9251   2.460   1.459   7.414 -0.1193  0.2232  0.3157
   92CHL1    H9 9252   2.530   1.373   7.416 -0.5028 -0.1093 -0.0796
   92CHL1   C10 9253   2.487   1.512   7.267 -0.3249 -0.0485 -0.3020
   92CHL1   C19 9254   2.435   1.656   7.261 -0.2733 -0.5731  0.3276
   92CHL1  H19A 9255   2.481   1.725   7.335 -1.6688  0.7016  0.0304
   92CHL1  H19B 9256   2.428   1.706   7.162  1.8504  1.0985  0.9981
   92CHL1  H19C 9257   2.328   1.660   7.291 -0.3120 -2.8194  0.5479
   92CHL1    C1 9258   2.644   1.511   7.236  0.1051  0.0959  0.4665
   92CHL1   H1A 9259   2.707   1.578   7.297 -0.3920 -0.3844  1.5300
   92CHL1   H1B 9260   2.674   1.404   7.245 -1.4533 -0.5571 -1.5858
   92CHL1    C2 9261   2.660   1.542   7.085 -0.5257  0.0571 -0.1034
   92CHL1   H2A 9262   2.763   1.532   7.047 -0.5520  1.6044 -0.6187
   92CHL1   H2B 9263   2.630   1.646   7.058  0.7195  0.8114  1.3456
   92CHL1   C20 9264   2.390   1.376   7.960 -0.2151 -0.3775 -0.0066
   92CHL1   H20 9265   2.308   1.449   7.975  1.5996  1.5008  1.0103
   92CHL1   C21 9266   2.523   1.454   7.969  0.1331  1.0566 -0.2901
   92CHL1  H21A 9267   2.547   1.470   8.076 -0.6602 -2.9977  0.5764
   92CHL1  H21B 9268   2.523   1.554   7.920 -1.6572  0.6604 -1.1338
   92CHL1  H21C 9269   2.595   1.387   7.917 -1.6353 -0.6322 -0.6325
   92CHL1   C22 9270   2.380   1.268   8.069  0.0812 -0.2816  0.3085
   92CHL1  H22A 9271   2.288   1.207   8.064  1.8303 -2.9458 -0.1630
   92CHL1  H22B 9272   2.468   1.202   8.053  0.8894  1.3064 -2.0752
   92CHL1   C23 9273   2.388   1.325   8.209 -0.0834  0.4257 -0.1970
   92CHL1  H23A 9274   2.494   1.352   8.227  0.3900 -0.0452 -2.1450
   92CHL1  H23B 9275   2.334   1.421   8.220 -0.1930  0.3997 -0.5129
   92CHL1   C24 9276   2.346   1.221   8.314  0.2825 -0.6416  0.1142
   92CHL1  H24A 9277   2.242   1.193   8.286  0.1203 -0.4867  0.5580
   92CHL1  H24B 9278   2.412   1.133   8.300  0.9461  0.5579 -5.2015
   92CHL1   C25 9279   2.354   1.271   8.460 -0.5351 -0.6548  0.0845
   92CHL1   H25 9280   2.289   1.360   8.477 -1.7280 -1.2386 -1.2848
   92CHL1   C26 9281   2.292   1.176   8.567 -0.1939  0.6944 -0.1234
   92CHL1  H26A 9282   2.192   1.140   8.534 -0.7165  0.1890  1.9312
   92CHL1  H26B 9283   2.353   1.083   8.574 -2.9056 -1.0969  0.1628
   92CHL1  H26C 9284   2.288   1.226   8.666  0.5310 -2.4421  1.5839
   92CHL1   C27 9285   2.495   1.310   8.501 -0.0446 -0.5695  0.0516
   92CHL1  H27A 9286   2.505   1.351   8.604 -0.4749  0.8380 -0.4503
   92CHL1  H27B 9287   2.561   1.220   8.504  1.2963  0.4301  1.2126
   92CHL1  H27C 9288   2.541   1.388   8.436 -0.7551 -1.0493 -1.0536
   93CHL1    C3 9289   1.605   6.495   7.014  0.4537  0.5017  0.7887
   93CHL1    H3 9290   1.543   6.583   7.038  2.4865  1.6818  1.8382
   93CHL1    O3 9291   1.563   6.445   6.888 -0.2525 -0.2785  0.2609
   93CHL1   H3' 9292   1.470   6.424   6.891  0.0963 -2.7727 -3.5634
   93CHL1    C4 9293   1.754   6.526   7.026  0.1612 -0.0236 -0.1416
   93CHL1   H4A 9294   1.805   6.437   6.983 -1.4916 -1.3200  0.5274
   93CHL1   H4B 9295   1.771   6.607   6.952  1.3880 -0.6401 -0.5542
   93CHL1    C5 9296   1.801   6.570   7.159 -0.2437  0.2947  0.2382
   93CHL1    C6 9297   1.854   6.690   7.182 -0.4791 -0.3361 -0.2745
   93CHL1    H6 9298   1.857   6.760   7.097  0.3087 -1.4312 -1.1644
   93CHL1    C7 9299   1.902   6.733   7.317  0.3820  0.0112  0.1349
   93CHL1   H7A 9300   2.004   6.769   7.295  0.4155  0.2227  0.6310
   93CHL1   H7B 9301   1.838   6.810   7.365  0.3649 -0.4715  0.8949
   93CHL1    C8 9302   1.916   6.612   7.417 -0.1582  0.1658 -0.3360
   93CHL1    H8 9303   2.005   6.556   7.382 -1.3931 -2.1054  0.0281
   93CHL1   C14 9304   1.944   6.660   7.564 -0.0903 -0.2862 -0.4539
   93CHL1   H14 9305   1.858   6.727   7.582  1.6731  1.4443  1.8895
   93CHL1   C15 9306   2.064   6.750   7.587  0.4486 -0.3007  0.0399
   93CHL1  H15A 9307   2.157   6.711   7.540  0.5549  1.5312 -1.3143
   93CHL1  H15B 9308   2.043   6.846   7.535  0.3612 -0.6988 -0.6712
   93CHL1   C16 9309   2.086   6.747   7.735  0.4941 -0.8047 -0.2211
   93CHL1  H16A 9310   2.190   6.713   7.752  1.1305  1.3965  0.4072
   93CHL1  H16B 9311   2.074   6.846   7.784  1.0673 -1.2346  0.7994
   93CHL1   C17 9312   1.984   6.650   7.794 -0.1017 -1.0839  0.3245
   93CHL1   H17 9313   1.889   6.700   7.822 -0.1926 -0.6951 -0.6650
   93CHL1   C13 9314   1.947   6.561   7.673 -0.4164  0.5749  0.0295
   93CHL1   C18 9315   2.054   6.454   7.648  0.4584 -0.6663 -0.3255
   93CHL1  H18A 9316   2.155   6.492   7.674  0.1962 -1.5461  2.1361
   93CHL1  H18B 9317   2.039   6.378   7.728 -2.0586  0.6117  0.4794
   93CHL1  H18C 9318   2.045   6.410   7.547 -1.4863 -1.2930  0.1020
   93CHL1   C12 9319   1.805   6.498   7.662  0.9049  0.2156 -0.3380
   93CHL1  H12A 9320   1.802   6.428   7.748  1.9025 -0.9741 -1.2624
   93CHL1  H12B 9321   1.729   6.577   7.682  0.5645  0.0438 -0.9603
   93CHL1   C11 9322   1.780   6.423   7.529 -0.3501 -0.3677 -0.2664
   93CHL1  H11A 9323   1.840   6.332   7.511 -0.3495 -0.3368 -0.4242
   93CHL1  H11B 9324   1.676   6.386   7.538 -0.8608  0.7882 -1.3540
   93CHL1    C9 9325   1.796   6.527   7.410 -0.8127 -0.0758  0.0392
   93CHL1    H9 9326   1.712   6.598   7.430 -0.0330  0.7383  0.4628
   93CHL1   C10 9327   1.769   6.469   7.272 -0.5644 -1.3961 -0.3986
   93CHL1   C19 9328   1.862   6.351   7.242  0.0433  0.2703 -0.6632
   93CHL1  H19A 9329   1.848   6.282   7.328  1.7066  0.7233 -0.0177
   93CHL1  H19B 9330   1.852   6.294   7.146  1.2475  1.7745 -1.7054
   93CHL1  H19C 9331   1.969   6.379   7.244 -0.1678  1.1106 -1.1170
   93CHL1    C1 9332   1.621   6.428   7.262  0.5280  0.4697 -0.0873
   93CHL1   H1A 9333   1.606   6.338   7.326  0.6223 -0.8509 -1.8774
   93CHL1   H1B 9334   1.560   6.516   7.293 -0.0629 -0.3014  0.9793
   93CHL1    C2 9335   1.581   6.378   7.117  0.2090 -0.1904 -0.0047
   93CHL1   H2A 9336   1.476   6.340   7.113 -0.8173  2.4684  0.5150
   93CHL1   H2B 9337   1.655   6.302   7.085  0.8196 -0.3973  1.8526
   93CHL1   C20 9338   2.042   6.586   7.918  1.2934  0.1967 -0.1003
   93CHL1   H20 9339   2.136   6.532   7.891 -0.4554 -2.1133 -1.7978
   93CHL1   C21 9340   1.932   6.488   7.972 -0.0100 -1.0720 -0.0603
   93CHL1  H21A 9341   1.951   6.384   7.938 -1.0911 -1.0704 -0.7049
   93CHL1  H21B 9342   1.838   6.523   7.925  1.3974  1.7233 -0.9380
   93CHL1  H21C 9343   1.917   6.498   8.081  0.1269 -0.4912 -0.0959
   93CHL1   C22 9344   2.074   6.690   8.020 -0.8045  0.1020 -0.2829
   93CHL1  H22A 9345   2.128   6.779   7.982 -0.3199 -0.3542 -0.6666
   93CHL1  H22B 9346   1.979   6.727   8.063  0.1245  0.6782  1.3075
   93CHL1   C23 9347   2.149   6.630   8.150  0.2446  0.3242 -0.0127
   93CHL1  H23A 9348   2.147   6.707   8.230  0.3956 -0.6022  0.8931
   93CHL1  H23B 9349   2.098   6.543   8.196  1.6683 -0.8977 -0.6843
   93CHL1   C24 9350   2.296   6.582   8.106 -0.0246 -0.3354  0.0769
   93CHL1  H24A 9351   2.289   6.481   8.061 -1.4246 -0.3363  0.2781
   93CHL1  H24B 9352   2.340   6.659   8.038  0.8956 -0.9801 -0.0619
   93CHL1   C25 9353   2.396   6.553   8.216 -0.2334  0.2123  1.0390
   93CHL1   H25 9354   2.334   6.504   8.294 -1.5136 -0.7322 -0.5389
   93CHL1   C26 9355   2.516   6.461   8.172 -0.0708  0.6923 -0.7437
   93CHL1  H26A 9356   2.589   6.526   8.119  0.8854 -0.7990 -1.2651
   93CHL1  H26B 9357   2.579   6.425   8.256 -2.5252  1.3205  1.4268
   93CHL1  H26C 9358   2.488   6.374   8.109  0.4186  1.0049 -1.3981
   93CHL1   C27 9359   2.442   6.677   8.286  0.0325  0.4904 -0.4602
   93CHL1  H27A 9360   2.351   6.734   8.316  0.6793  0.3992  1.7782
   93CHL1  H27B 9361   2.489   6.650   8.383 -3.4515  0.6535  1.3612
   93CHL1  H27C 9362   2.516   6.737   8.229 -1.3834 -0.0213 -2.9095
   94CHL1    C3 9363   3.505   2.019   6.713 -0.8129 -0.0794  0.0915
   94CHL1    H3 9364   3.542   1.917   6.688  0.5560 -0.1761  2.3918
   94CHL1    O3 9365   3.446   2.076   6.591  0.2521 -0.2227  0.1251
   94CHL1   H3' 9366   3.361   2.032   6.580 -0.1474  0.2504  1.2546
   94CHL1    C4 9367   3.392   2.004   6.822  0.0740  0.4538  0.0970
   94CHL1   H4A 9368   3.322   2.090   6.817 -0.4644 -0.0466 -1.5803
   94CHL1   H4B 9369   3.339   1.908   6.806  1.9863 -1.1567  3.0200
   94CHL1    C5 9370   3.435   2.010   6.966 -0.2720  0.7671 -0.4514
   94CHL1    C6 9371   3.390   1.915   7.050  0.0727  0.7153  0.5752
   94CHL1    H6 9372   3.325   1.838   7.006  1.1854  0.1393 -0.0718
   94CHL1    C7 9373   3.407   1.921   7.198 -1.4942  0.0888 -0.4560
   94CHL1   H7A 9374   3.313   1.907   7.254 -1.7963 -0.7082 -1.1542
   94CHL1   H7B 9375   3.469   1.835   7.229 -0.1576  1.0866 -0.3107
   94CHL1    C8 9376   3.482   2.058   7.237 -0.0884  0.2712 -0.1809
   94CHL1    H8 9377   3.404   2.137   7.242 -2.0148 -1.6603  1.3254
   94CHL1   C14 9378   3.540   2.040   7.381  0.2344 -0.0600 -0.2742
   94CHL1   H14 9379   3.611   1.955   7.368 -0.5783 -0.7248 -0.4148
   94CHL1   C15 9380   3.446   1.994   7.489  0.0820 -0.5877  0.4704
   94CHL1  H15A 9381   3.359   2.061   7.480  2.2726  1.7911 -5.0686
   94CHL1  H15B 9382   3.408   1.890   7.473 -0.3307 -0.5473  1.1643
   94CHL1   C16 9383   3.521   2.022   7.623 -0.1986 -0.4673  0.7161
   94CHL1  H16A 9384   3.450   2.096   7.666  0.0971  0.3766 -0.2473
   94CHL1  H16B 9385   3.539   1.937   7.693  0.5589  0.0624  1.1677
   94CHL1   C17 9386   3.652   2.107   7.590 -0.9800 -0.9825 -0.6220
   94CHL1   H17 9387   3.735   2.033   7.592  1.5220  1.6892 -0.6885
   94CHL1   C13 9388   3.626   2.152   7.438 -0.0374 -0.2971 -0.3213
   94CHL1   C18 9389   3.536   2.277   7.439 -0.5775  0.3679 -0.0796
   94CHL1  H18A 9390   3.438   2.257   7.489 -0.1117 -0.8035  0.3919
   94CHL1  H18B 9391   3.591   2.364   7.481  1.7250 -1.3013  0.4622
   94CHL1  H18C 9392   3.510   2.309   7.336 -1.9599 -2.1768 -0.5679
   94CHL1   C12 9393   3.750   2.168   7.343 -0.4571  0.6137 -0.3226
   94CHL1  H12A 9394   3.814   2.254   7.371  0.3527 -0.1295  0.1184
   94CHL1  H12B 9395   3.819   2.082   7.353 -3.5944 -1.8200  1.6897
   94CHL1   C11 9396   3.711   2.180   7.198 -0.2875 -0.3821  0.1265
   94CHL1  H11A 9397   3.670   2.282   7.180 -0.9177 -0.4121  1.3933
   94CHL1  H11B 9398   3.802   2.187   7.134  1.2467 -0.5159  2.2590
   94CHL1    C9 9399   3.602   2.083   7.146  0.5403 -0.1793  0.2724
   94CHL1    H9 9400   3.653   1.985   7.135  1.7215  0.1420  2.4362
   94CHL1   C10 9401   3.547   2.112   7.000 -0.4678 -0.3716  0.2078
   94CHL1   C19 9402   3.497   2.254   6.990 -0.0606 -0.1136  0.0695
   94CHL1  H19A 9403   3.424   2.291   7.066 -2.0171 -0.1445 -1.7390
   94CHL1  H19B 9404   3.583   2.324   6.991  1.6523 -2.1696  0.4101
   94CHL1  H19C 9405   3.456   2.262   6.887 -0.9222 -2.1075  0.2300
   94CHL1    C1 9406   3.668   2.089   6.902  0.0227 -0.2196 -0.5133
   94CHL1   H1A 9407   3.754   2.155   6.927  1.7192 -1.3044 -3.2994
   94CHL1   H1B 9408   3.702   1.984   6.914 -0.6059 -0.2650  1.0360
   94CHL1    C2 9409   3.624   2.117   6.753  0.4419  0.5228  0.4719
   94CHL1   H2A 9410   3.702   2.101   6.676 -0.6585 -0.1879 -0.5191
   94CHL1   H2B 9411   3.592   2.223   6.740 -1.5822 -0.1782 -0.4389
   94CHL1   C20 9412   3.671   2.220   7.691  0.1519 -0.1173  0.1654
   94CHL1   H20 9413   3.591   2.297   7.689  0.2665  0.0321  1.0683
   94CHL1   C21 9414   3.805   2.297   7.669 -0.4338 -0.3283  0.3991
   94CHL1  H21A 9415   3.827   2.368   7.751  0.0090 -1.3337  1.1620
   94CHL1  H21B 9416   3.794   2.347   7.570  0.7540 -3.8331 -1.6019
   94CHL1  H21C 9417   3.894   2.231   7.668 -0.3104 -0.1604 -0.0478
   94CHL1   C22 9418   3.667   2.164   7.832  0.5075 -0.5079 -0.0935
   94CHL1  H22A 9419   3.690   2.056   7.827  2.6050 -0.0209 -2.2648
   94CHL1  H22B 9420   3.752   2.208   7.890 -0.8130  0.4408  1.1615
   94CHL1   C23 9421   3.544   2.196   7.917 -0.4813 -0.7801 -0.3411
   94CHL1  H23A 9422   3.530   2.306   7.926 -3.3252 -1.0805 -0.6130
   94CHL1  H23B 9423   3.460   2.137   7.875  0.5887 -2.4255 -0.1956
   94CHL1   C24 9424   3.569   2.158   8.061  0.3558 -0.0201  0.5830
   94CHL1  H24A 9425   3.621   2.060   8.060 -1.1260 -0.8182  0.2161
   94CHL1  H24B 9426   3.629   2.238   8.110  0.5481  0.6422 -0.7172
   94CHL1   C25 9427   3.437   2.141   8.146 -0.0419  0.2007  0.0597
   94CHL1   H25 9428   3.356   2.092   8.088 -0.2342  2.3551 -1.5432
   94CHL1   C26 9429   3.470   2.042   8.263 -0.1657 -0.2124  0.4544
   94CHL1  H26A 9430   3.380   2.014   8.321  0.1634  0.6832  1.4115
   94CHL1  H26B 9431   3.514   1.946   8.227  0.8087  0.8119 -1.1583
   94CHL1  H26C 9432   3.540   2.081   8.340  1.7363 -1.5479 -0.5550
   94CHL1   C27 9433   3.381   2.278   8.201 -0.4750 -0.1203 -0.4367
   94CHL1  H27A 9434   3.276   2.255   8.229 -0.3426 -1.7366 -1.1964
   94CHL1  H27B 9435   3.442   2.320   8.284  0.3302  1.3137 -1.7174
   94CHL1  H27C 9436   3.373   2.355   8.120 -0.6499 -2.0584 -2.2984
   95CHL1    C3 9437   3.547   1.462   6.610  0.7105 -0.2382 -0.3086
   95CHL1    H3 9438   3.637   1.415   6.655  1.5946  0.5726 -1.1937
   95CHL1    O3 9439   3.577   1.486   6.475  0.0140 -0.6873 -0.5777
   95CHL1   H3' 9440   3.508   1.547   6.447  1.2014  1.3427  0.7977
   95CHL1    C4 9441   3.427   1.368   6.611 -0.4410 -0.3460 -0.1509
   95CHL1   H4A 9442   3.332   1.412   6.572 -0.6148 -0.8358 -0.2965
   95CHL1   H4B 9443   3.455   1.280   6.549 -0.9700  1.8426 -3.6254
   95CHL1    C5 9444   3.411   1.327   6.760  0.6339  0.0938 -0.5055
   95CHL1    C6 9445   3.425   1.195   6.795  0.6641  0.0904 -0.3739
   95CHL1    H6 9446   3.444   1.116   6.721  0.0947  0.5389 -1.0010
   95CHL1    C7 9447   3.385   1.151   6.933 -0.1062 -0.3840  0.3148
   95CHL1   H7A 9448   3.313   1.067   6.919 -1.3484  0.7623 -0.3158
   95CHL1   H7B 9449   3.478   1.109   6.976  0.2069 -0.3214 -0.3028
   95CHL1    C8 9450   3.310   1.259   7.014  0.5597 -1.3786 -0.1769
   95CHL1    H8 9451   3.208   1.264   6.970 -0.9757 -1.0660  3.2904
   95CHL1   C14 9452   3.312   1.229   7.165 -0.1452 -0.4875 -0.1090
   95CHL1   H14 9453   3.416   1.230   7.207 -0.5154 -1.9253  0.8838
   95CHL1   C15 9454   3.273   1.083   7.205 -0.5331  0.8801  0.3717
   95CHL1  H15A 9455   3.202   1.028   7.140  1.7975 -3.0301  0.9565
   95CHL1  H15B 9456   3.367   1.024   7.204 -0.6382  0.6704  1.8229
   95CHL1   C16 9457   3.211   1.092   7.345  0.1709 -0.1085 -0.5966
   95CHL1  H16A 9458   3.103   1.069   7.332  0.0660 -0.4536  0.8064
   95CHL1  H16B 9459   3.246   1.017   7.419  1.9360  1.1379 -0.1420
   95CHL1   C17 9460   3.231   1.238   7.391  0.0542 -0.7887 -0.2792
   95CHL1   H17 9461   3.334   1.258   7.426  0.1680 -0.2911 -0.8863
   95CHL1   C13 9462   3.230   1.321   7.259  0.6658  0.4048  0.4689
   95CHL1   C18 9463   3.080   1.325   7.214 -0.3785  0.0526  1.0097
   95CHL1  H18A 9464   3.037   1.223   7.208 -2.2263  0.8817 -0.0376
   95CHL1  H18B 9465   3.015   1.394   7.273 -0.3624  0.5988  0.3906
   95CHL1  H18C 9466   3.065   1.363   7.111 -0.2212 -3.5898 -0.4201
   95CHL1   C12 9467   3.295   1.455   7.247 -0.8598 -0.5010  0.3407
   95CHL1  H12A 9468   3.237   1.542   7.283  0.6399  1.0478 -0.8617
   95CHL1  H12B 9469   3.396   1.450   7.292  0.2639  2.2982 -1.7195
   95CHL1   C11 9470   3.317   1.494   7.098 -0.1096  0.5634 -0.4180
   95CHL1  H11A 9471   3.220   1.529   7.057 -0.3277  0.2371 -0.1784
   95CHL1  H11B 9472   3.394   1.575   7.096  2.4298 -1.7728 -0.7331
   95CHL1    C9 9473   3.374   1.393   6.996  0.1174 -0.1817  0.0357
   95CHL1    H9 9474   3.482   1.389   7.023  0.2264  2.4366  0.1556
   95CHL1   C10 9475   3.364   1.441   6.850 -0.8040  0.4638  0.0568
   95CHL1   C19 9476   3.226   1.487   6.804  0.3520  0.2377 -0.2238
   95CHL1  H19A 9477   3.201   1.573   6.869 -1.6472  1.1816 -2.1569
   95CHL1  H19B 9478   3.224   1.513   6.696 -0.2986  1.4157  0.0595
   95CHL1  H19C 9479   3.149   1.411   6.829  1.6957 -1.0859 -0.0640
   95CHL1    C1 9480   3.466   1.557   6.828  0.1149 -0.0880 -0.1591
   95CHL1   H1A 9481   3.416   1.648   6.867  3.0036  1.6308 -0.2880
   95CHL1   H1B 9482   3.558   1.543   6.889 -0.9759  0.0277  1.5377
   95CHL1    C2 9483   3.506   1.591   6.685 -0.6084  0.2508 -0.9778
   95CHL1   H2A 9484   3.597   1.656   6.688  0.9118 -1.8810  2.2211
   95CHL1   H2B 9485   3.427   1.636   6.622 -3.9356 -4.1077 -0.1623
   95CHL1   C20 9486   3.132   1.280   7.503 -0.1992 -0.3024  0.3334
   95CHL1   H20 9487   3.030   1.260   7.463  0.1597 -3.3492  0.8195
   95CHL1   C21 9488   3.139   1.428   7.539  0.5498  0.4200 -0.2072
   95CHL1  H21A 9489   3.235   1.446   7.593  0.8373 -0.6174 -0.3543
   95CHL1  H21B 9490   3.064   1.448   7.618  0.9211  1.6352 -0.1578
   95CHL1  H21C 9491   3.121   1.498   7.455 -0.0308  1.0248  0.4170
   95CHL1   C22 9492   3.138   1.190   7.631 -0.1421  0.5129 -0.1288
   95CHL1  H22A 9493   3.037   1.198   7.677  0.3541 -1.0933  1.3119
   95CHL1  H22B 9494   3.137   1.087   7.591  1.2300  1.4329 -2.6240
   95CHL1   C23 9495   3.259   1.207   7.715 -0.8483  0.0986 -0.8595
   95CHL1  H23A 9496   3.350   1.196   7.653  0.6956  0.1939  1.3480
   95CHL1  H23B 9497   3.250   1.309   7.759  2.0200  0.6564 -1.5209
   95CHL1   C24 9498   3.253   1.115   7.842  0.0550 -0.3499 -0.5476
   95CHL1  H24A 9499   3.338   1.132   7.911  0.9408 -0.8219 -1.5090
   95CHL1  H24B 9500   3.174   1.147   7.912  0.2945  3.8614 -2.0591
   95CHL1   C25 9501   3.235   0.969   7.811  0.0881 -0.2343  0.2948
   95CHL1   H25 9502   3.153   0.949   7.739 -0.7609  1.6074  0.7345
   95CHL1   C26 9503   3.355   0.912   7.740 -0.0418  0.1252  0.2655
   95CHL1  H26A 9504   3.432   0.907   7.821 -0.2650 -0.4669  0.4367
   95CHL1  H26B 9505   3.334   0.811   7.699 -2.2706  1.6913 -2.6533
   95CHL1  H26C 9506   3.399   0.976   7.660  1.0864  0.2625  0.9790
   95CHL1   C27 9507   3.210   0.885   7.932 -0.4102  0.4755  0.4141
   95CHL1  H27A 9508   3.225   0.777   7.912 -3.5426 -0.4243  2.4682
   95CHL1  H27B 9509   3.284   0.913   8.011  0.0783 -0.6574  0.3612
   95CHL1  H27C 9510   3.106   0.908   7.965 -0.7140  1.6228 -1.2620
   96CHL1    C3 9511   3.586   0.608   6.833 -1.0595 -0.6763  0.1776
   96CHL1    H3 9512   3.537   0.520   6.879 -1.4517 -0.7341 -0.3489
   96CHL1    O3 9513   3.562   0.611   6.688 -0.0036 -1.1733  0.1804
   96CHL1   H3' 9514   3.604   0.692   6.657  0.7637 -2.0181 -1.0483
   96CHL1    C4 9515   3.528   0.737   6.895  0.4799 -0.1118 -0.2177
   96CHL1   H4A 9516   3.561   0.825   6.835 -0.5087 -0.1279 -0.7865
   96CHL1   H4B 9517   3.418   0.728   6.889  0.2350  1.7391  1.1990
   96CHL1    C5 9518   3.575   0.763   7.039 -0.6278  0.0657  0.1061
   96CHL1    C6 9519   3.494   0.793   7.143  0.6140  0.2375 -1.1365
   96CHL1    H6 9520   3.386   0.805   7.133  0.4153 -0.1500  0.4545
   96CHL1    C7 9521   3.542   0.811   7.286  0.0076  0.1584  0.3490
   96CHL1   H7A 9522   3.524   0.914   7.322 -0.2552  0.2871 -0.1436
   96CHL1   H7B 9523   3.480   0.743   7.348 -0.9016  1.9894  1.4962
   96CHL1    C8 9524   3.698   0.816   7.307  0.5994 -0.2503 -0.7769
   96CHL1    H8 9525   3.732   0.919   7.286  1.3159 -0.2600  0.2980
   96CHL1   C14 9526   3.731   0.785   7.446 -0.3619  0.6068 -0.2163
   96CHL1   H14 9527   3.701   0.680   7.466  0.8261  0.5134  1.1850
   96CHL1   C15 9528   3.666   0.873   7.556  0.1957  0.0271  0.6527
   96CHL1  H15A 9529   3.667   0.978   7.520  0.2954  0.5088  2.0193
   96CHL1  H15B 9530   3.558   0.856   7.575 -0.5216  2.0057 -1.3940
   96CHL1   C16 9531   3.750   0.862   7.681  0.4079  0.7711  1.0373
   96CHL1  H16A 9532   3.790   0.960   7.716 -0.3719  1.1699  0.8329
   96CHL1  H16B 9533   3.692   0.806   7.757  0.9226  0.8613  1.4992
   96CHL1   C17 9534   3.878   0.778   7.631 -1.1071  0.1217 -0.1836
   96CHL1   H17 9535   3.854   0.671   7.651  0.1233 -0.2260 -0.5387
   96CHL1   C13 9536   3.880   0.789   7.474 -1.5657  0.4360  0.6228
   96CHL1   C18 9537   3.924   0.935   7.445  0.0690  0.0959  0.2284
   96CHL1  H18A 9538   4.026   0.933   7.489  0.3987  1.0993 -0.4680
   96CHL1  H18B 9539   3.932   0.967   7.339  1.7116  3.4274  1.2761
   96CHL1  H18C 9540   3.857   1.011   7.491 -0.4667 -1.4711  2.0774
   96CHL1   C12 9541   3.958   0.695   7.382  0.3293 -0.5452  0.4122
   96CHL1  H12A 9542   4.067   0.707   7.399  0.5694 -1.6973 -0.2960
   96CHL1  H12B 9543   3.934   0.594   7.421  0.3315 -0.7281 -0.0600
   96CHL1   C11 9544   3.920   0.718   7.240  0.2018 -0.0121  0.9502
   96CHL1  H11A 9545   3.971   0.809   7.202  0.9062  0.1520  2.2746
   96CHL1  H11B 9546   3.976   0.643   7.182 -1.8380 -1.3947  0.7168
   96CHL1    C9 9547   3.766   0.721   7.213  0.2314  0.0428  0.0253
   96CHL1    H9 9548   3.734   0.617   7.234 -2.1512  0.0339 -3.3325
   96CHL1   C10 9549   3.727   0.734   7.064  0.3128 -0.0251  0.6716
   96CHL1   C19 9550   3.793   0.869   7.005 -0.0230  0.3690  0.6785
   96CHL1  H19A 9551   3.750   0.899   6.907 -2.2718 -0.9752  1.2319
   96CHL1  H19B 9552   3.790   0.953   7.077 -0.7709  0.1025  0.9666
   96CHL1  H19C 9553   3.903   0.861   6.989  0.2683  2.3070  1.6039
   96CHL1    C1 9554   3.778   0.605   6.995 -0.3399 -0.4096  0.4966
   96CHL1   H1A 9555   3.889   0.605   6.996 -0.3384 -1.1558  1.0512
   96CHL1   H1B 9556   3.750   0.508   7.041  0.7392  0.1495  2.3513
   96CHL1    C2 9557   3.736   0.601   6.845  0.6304  0.0947  0.2069
   96CHL1   H2A 9558   3.791   0.517   6.798  0.2868  0.6298 -1.1725
   96CHL1   H2B 9559   3.778   0.689   6.790 -0.9556 -0.2241 -1.5661
   96CHL1   C20 9560   3.999   0.801   7.719  0.0638  0.1143 -0.6066
   96CHL1   H20 9561   4.030   0.904   7.689  2.3448 -0.3493  0.0333
   96CHL1   C21 9562   4.124   0.713   7.676  0.4111 -0.0682 -0.0959
   96CHL1  H21A 9563   4.209   0.752   7.736 -0.2885  2.1607 -0.5095
   96CHL1  H21B 9564   4.147   0.731   7.569 -0.4232  2.0896  0.0538
   96CHL1  H21C 9565   4.109   0.603   7.682  1.3988 -0.2456 -0.7210
   96CHL1   C22 9566   3.962   0.781   7.866  0.0053 -0.1052 -0.3516
   96CHL1  H22A 9567   3.881   0.851   7.897  0.9527 -0.4154  3.1110
   96CHL1  H22B 9568   3.909   0.686   7.885 -1.0654  0.2081 -1.6961
   96CHL1   C23 9569   4.076   0.792   7.974  0.7510 -0.2790  0.1408
   96CHL1  H23A 9570   4.141   0.704   7.955  1.4777 -0.1239  1.8690
   96CHL1  H23B 9571   4.141   0.878   7.947  2.1863 -1.8413 -1.5197
   96CHL1   C24 9572   4.030   0.797   8.123  0.6753 -0.2375 -0.0741
   96CHL1  H24A 9573   3.955   0.878   8.132  1.2409  0.3396 -0.5119
   96CHL1  H24B 9574   3.983   0.700   8.149  0.4725 -0.5297 -1.4714
   96CHL1   C25 9575   4.144   0.819   8.223  0.4818  0.2492  0.0041
   96CHL1   H25 9576   4.205   0.906   8.192 -2.4669  1.8184 -1.6281
   96CHL1   C26 9577   4.081   0.870   8.358 -0.5757 -0.1917  0.2711
   96CHL1  H26A 9578   3.998   0.811   8.403 -1.8757  0.5832 -1.0455
   96CHL1  H26B 9579   4.149   0.915   8.433  0.2824 -2.7879  1.1076
   96CHL1  H26C 9580   4.017   0.957   8.331 -0.1832 -0.0111 -0.0740
   96CHL1   C27 9581   4.241   0.701   8.243 -0.1097 -0.4264 -0.3372
   96CHL1  H27A 9582   4.304   0.711   8.334 -0.6730 -2.7573  0.3451
   96CHL1  H27B 9583   4.194   0.600   8.252 -1.6722  0.4224  1.2776
   96CHL1  H27C 9584   4.305   0.690   8.153 -1.8079 -0.8383 -1.5163
   97OSM      N 9585   2.640   2.499  11.024  0.1218  0.0237 -0.1257
   97OSM    C15 9586   2.514   2.527  10.950 -0.0234  0.5151  0.1192
   97OSM   H15A 9587   2.422   2.530  11.006  0.2915  1.5114  0.5882
   97OSM   H15B 9588   2.506   2.450  10.875  1.9985  1.6212 -1.2633
   97OSM   H15C 9589   2.506   2.627  10.909 -1.1297 -0.5944 -2.4889
   97OSM    C14 9590   2.763   2.519  10.949  0.3318  0.9082  0.6665
   97OSM   H14A 9591   2.759   2.451  10.866  1.1265  2.6376 -0.8184
   97OSM   H14B 9592   2.844   2.481  11.008  0.5494 -0.8593 -0.7343
   97OSM   H14C 9593   2.785   2.622  10.925  0.3451  1.2391  2.0512
   97OSM    C13 9594   2.651   2.593  11.141  0.5894 -0.4663 -0.6475
   97OSM   H13A 9595   2.646   2.697  11.111 -0.4699 -0.7079 -1.3399
   97OSM   H13B 9596   2.748   2.593  11.188  0.6685 -0.1405 -0.8070
   97OSM   H13C 9597   2.576   2.582  11.218  2.7425  0.6892  1.6719
   97OSM    C12 9598   2.634   2.358  11.079 -0.7216  0.2485  0.1332
   97OSM   H12A 9599   2.549   2.340  11.144 -1.2718 -2.1700 -1.1610
   97OSM   H12B 9600   2.718   2.336  11.143 -2.0240  0.9761  2.1516
   97OSM    C11 9601   2.622   2.246  10.976  0.3735 -0.3255 -0.0657
   97OSM   H11A 9602   2.652   2.150  11.024  0.3100  0.2424  1.1316
   97OSM   H11B 9603   2.703   2.260  10.902  0.0320 -0.6555 -0.5077
   97OSM      P 9604   2.373   2.183  11.004  0.0037 -0.2044  0.1804
   97OSM    O13 9605   2.417   2.169  11.150 -0.0324  0.3285 -0.4221
   97OSM    O14 9606   2.253   2.268  10.981 -0.1294  0.7556  0.2772
   97OSM    O11 9607   2.344   2.035  10.952  0.2682 -0.4333 -0.0060
   97OSM    O12 9608   2.493   2.236  10.917  0.2971 -0.2223 -0.5693
   97OSM    C1S 9609   2.280   2.029  10.819 -0.5556  0.0389 -0.2330
   97OSM    H1S 9610   2.199   2.103  10.804 -0.0305  0.6971  0.1302
   97OSM    H1T 9611   2.226   1.932  10.822  3.4420 -2.2423  1.9923
   97OSM     NF 9612   2.308   2.022  10.585  0.0049 -0.2816  0.8603
   97OSM    HNF 9613   2.290   1.932  10.546  0.6916 -0.7923  1.7014
   97OSM    C2S 9614   2.381   2.017  10.709 -0.0454 -0.4882  0.1708
   97OSM    H2S 9615   2.443   2.109  10.717 -1.0812  0.4827 -2.5442
   97OSM    C3S 9616   2.479   1.898  10.719  0.1116  0.2339 -0.0609
   97OSM    H3S 9617   2.418   1.806  10.709  2.5854 -1.4350 -0.4070
   97OSM     O3 9618   2.540   1.879  10.845 -0.7704  0.1691 -0.0296
   97OSM    HO3 9619   2.490   1.935  10.905 -1.6014 -0.7190  0.1181
   97OSM    C4S 9620   2.583   1.915  10.615 -0.2688  0.1104  0.6173
   97OSM    H4S 9621   2.570   1.841  10.535 -1.9063  0.6079  0.4194
   97OSM    C5S 9622   2.688   2.000  10.619  0.6983 -0.0064 -0.3391
   97OSM    H5S 9623   2.708   2.068  10.703  1.9835  0.7708 -1.2567
   97OSM    C6S 9624   2.781   1.998  10.497  0.0362 -0.2207  0.2642
   97OSM    H6S 9625   2.769   1.900  10.448 -2.3773 -0.1923  0.7396
   97OSM    H6T 9626   2.888   2.005  10.526  0.5384  2.5701 -2.0128
   97OSM    C7S 9627   2.743   2.098  10.389  0.1991  0.3248 -0.1030
   97OSM    H7S 9628   2.749   2.202  10.428  2.2211  0.2022 -0.0692
   97OSM    H7T 9629   2.635   2.075  10.373  0.1801 -0.3080  0.9319
   97OSM    C8S 9630   2.825   2.093  10.262 -0.1029 -0.3105  0.4800
   97OSM    H8S 9631   2.808   1.990  10.225  2.0005 -1.0702  1.5650
   97OSM    H8T 9632   2.935   2.105  10.272 -0.4319  1.3303  2.6179
   97OSM    C9S 9633   2.768   2.193  10.159 -0.0320 -0.4390 -0.4432
   97OSM    H9S 9634   2.813   2.294  10.176 -0.5013 -0.0914 -1.2538
   97OSM    H9T 9635   2.659   2.193  10.182 -0.0173 -1.3765 -0.3550
   97OSM   C10S 9636   2.787   2.158  10.008 -0.2055 -0.1050 -1.1407
   97OSM   H10S 9637   2.710   2.083   9.980 -1.4764 -0.2838  2.5810
   97OSM   H10T 9638   2.892   2.120  10.003  0.4703  1.0648  2.3809
   97OSM   C11S 9639   2.778   2.281   9.914 -0.5513  0.2939  0.2739
   97OSM   H11S 9640   2.842   2.367   9.943 -1.9521  1.9364 -1.3697
   97OSM   H11T 9641   2.677   2.326   9.923 -0.4285  0.4774  0.7567
   97OSM   C12S 9642   2.805   2.248   9.769 -0.0561  0.4791 -0.1038
   97OSM   H12S 9643   2.733   2.168   9.740 -1.3675  1.3532  0.6989
   97OSM   H12T 9644   2.903   2.198   9.750 -1.5023 -2.0164 -1.3066
   97OSM   C13S 9645   2.801   2.357   9.668  0.2043 -0.4221  0.1776
   97OSM   H13S 9646   2.869   2.442   9.693  2.3196 -2.1931  0.5530
   97OSM   H13T 9647   2.696   2.391   9.676  0.2266  0.1155 -1.5849
   97OSM   C14S 9648   2.832   2.313   9.526  0.4091 -0.3027  0.6536
   97OSM   H14S 9649   2.777   2.219   9.504 -1.8280  0.9361  0.7720
   97OSM   H14T 9650   2.942   2.295   9.522  0.5383  0.3302  1.1977
   97OSM   C15S 9651   2.789   2.421   9.426  0.2860 -0.8639 -0.1335
   97OSM   H15S 9652   2.845   2.506   9.469 -2.0099  0.2369  0.7773
   97OSM   H15T 9653   2.679   2.436   9.430  0.5834  1.8087 -0.9851
   97OSM   C16S 9654   2.831   2.392   9.281 -0.1793 -0.0503 -0.3783
   97OSM   H16S 9655   2.792   2.472   9.214  1.4477  0.4907 -0.7017
   97OSM   H16T 9656   2.787   2.297   9.245 -0.5721 -0.4382  1.0965
   97OSM   C17S 9657   2.977   2.388   9.256  0.6427 -0.6706  0.1398
   97OSM   H17S 9658   3.028   2.301   9.303  3.5744  1.3185  0.6934
   97OSM   H17T 9659   3.014   2.486   9.291  1.4874 -1.3375  1.1615
   97OSM   C18S 9660   3.014   2.373   9.105 -0.3586  0.1904  0.0861
   97OSM   H18S 9661   2.944   2.444   9.056 -1.3274  0.6807  2.1257
   97OSM   H18T 9662   3.010   2.267   9.070 -0.7747  0.2120  0.0670
   97OSM   H18U 9663   3.118   2.404   9.083 -0.3980 -0.3498 -0.8837
   97OSM    C1F 9664   2.273   2.138  10.527  0.6288  0.5362 -1.2712
   97OSM     OF 9665   2.282   2.249  10.581  0.3998 -0.2389 -0.5428
   97OSM    C2F 9666   2.211   2.124  10.390 -0.9300 -0.7401  0.4958
   97OSM    H2F 9667   2.111   2.170  10.392 -0.3367  0.5497  0.9769
   97OSM    H2G 9668   2.199   2.021  10.350 -3.0075  0.7544 -2.9564
   97OSM    C3F 9669   2.308   2.201  10.285 -0.0555  0.3419 -0.1400
   97OSM    H3F 9670   2.410   2.157  10.282  0.4945  1.5021  1.3040
   97OSM    H3G 9671   2.334   2.306  10.309  0.5194  0.0008  0.7251
   97OSM    C4F 9672   2.268   2.187  10.136 -0.5030 -0.1011 -0.5311
   97OSM    H4F 9673   2.167   2.233  10.128 -2.0817 -3.3753 -0.1105
   97OSM    H4G 9674   2.242   2.080  10.121 -1.3029  0.2723 -1.8798
   97OSM    C5F 9675   2.352   2.254  10.033  0.0406 -0.0473  0.9654
   97OSM    H5F 9676   2.451   2.206  10.044 -0.0039  0.4012  3.5515
   97OSM    H5G 9677   2.366   2.362  10.054 -3.7587  0.6484  0.4051
   97OSM    C6F 9678   2.285   2.232   9.894 -0.2621 -0.1587  0.4762
   97OSM    H6F 9679   2.184   2.279   9.896  0.2245  1.0151 -1.0499
   97OSM    H6G 9680   2.282   2.121   9.899  0.8548 -0.1623  1.0275
   97OSM    C7F 9681   2.372   2.282   9.775 -0.1130 -0.8384  0.7469
   97OSM    H7F 9682   2.471   2.233   9.775  0.2726 -0.0855 -1.7328
   97OSM    H7G 9683   2.403   2.386   9.800  1.3766 -1.0758 -0.0473
   97OSM    C8F 9684   2.291   2.268   9.644 -0.2272  0.2521  0.0456
   97OSM    H8F 9685   2.209   2.341   9.633 -0.7303 -0.6784 -2.8111
   97OSM    H8G 9686   2.237   2.170   9.643  2.0954 -1.1001  1.5841
   97OSM    C9F 9687   2.393   2.268   9.529  1.0836 -0.9046 -0.3665
   97OSM    H9F 9688   2.463   2.184   9.531  1.0295 -0.9390  0.6670
   97OSM   C10F 9689   2.391   2.335   9.418 -0.3607  0.0606 -0.1968
   97OSM   H10F 9690   2.478   2.331   9.350  0.2429  0.9728  0.5014
   97OSM   C11F 9691   2.294   2.445   9.382  0.7672  0.2961  0.6477
   97OSM   H11F 9692   2.210   2.446   9.455 -0.8517  1.6222 -1.2015
   97OSM   H11G 9693   2.250   2.424   9.283  3.5020  0.8408 -0.7285
   97OSM   C12F 9694   2.366   2.585   9.371 -0.1848  0.5854 -0.3240
   97OSM   H12F 9695   2.409   2.617   9.468 -0.7731  1.0853 -0.2196
   97OSM   H12G 9696   2.288   2.661   9.347 -1.2128 -0.7278 -1.1608
   97OSM   C13F 9697   2.484   2.598   9.274 -0.2153 -0.6098 -0.3777
   97OSM   H13F 9698   2.564   2.527   9.304 -0.0919 -0.4207 -0.2600
   97OSM   H13G 9699   2.533   2.698   9.276 -0.8589 -0.2088 -3.2013
   97OSM   C14F 9700   2.448   2.560   9.129  0.4515 -0.3968  0.8025
   97OSM   H14F 9701   2.359   2.618   9.095  1.7497 -0.0147 -2.0477
   97OSM   H14G 9702   2.412   2.456   9.120 -3.0823  0.8445 -0.1336
   97OSM   C15F 9703   2.573   2.571   9.033  0.0523 -0.5959 -0.2922
   97OSM   H15F 9704   2.660   2.508   9.063  0.0491  0.2447  1.5051
   97OSM   H15G 9705   2.606   2.677   9.035  1.5617 -1.0101 -1.8746
   97OSM   C16F 9706   2.547   2.557   8.884 -0.9252 -0.0914 -0.5181
   97OSM   H16F 9707   2.477   2.637   8.852 -1.3963 -1.5445 -3.3590
   97OSM   H16G 9708   2.483   2.467   8.874 -1.6027  0.5613 -2.2945
   97OSM   C17F 9709   2.663   2.551   8.780 -0.1028 -0.3833 -0.4346
   97OSM   H17F 9710   2.725   2.632   8.824 -2.0498  0.6716  0.4345
   97OSM   H17G 9711   2.616   2.581   8.684  1.5103  1.4485 -0.6964
   97OSM   C18F 9712   2.739   2.414   8.770  0.2208 -0.8457  0.3766
   97OSM   H18F 9713   2.762   2.387   8.665  0.1456  1.2203 -0.1949
   97OSM   H18G 9714   2.687   2.333   8.825  0.6632 -0.8915  0.7385
   97OSM   H18H 9715   2.838   2.426   8.819  0.6859  2.8865 -1.3328
   98OSM      N 9716   2.394   1.777  11.261 -0.2076 -0.2551 -0.2584
   98OSM    C15 9717   2.502   1.877  11.304  0.3285 -0.1316 -0.2389
   98OSM   H15A 9718   2.596   1.860  11.253  0.3115  0.2408 -0.3969
   98OSM   H15B 9719   2.518   1.874  11.411 -1.9642  2.2299  0.2281
   98OSM   H15C 9720   2.467   1.976  11.278  1.8700  0.7097  0.8480
   98OSM    C14 9721   2.448   1.634  11.287 -0.1286 -0.5886  0.3651
   98OSM   H14A 9722   2.380   1.561  11.245  1.9482 -3.0020  1.0647
   98OSM   H14B 9723   2.463   1.612  11.392  2.0439  0.7906  0.3698
   98OSM   H14C 9724   2.547   1.615  11.250 -0.5037 -1.6830 -0.0941
   98OSM    C13 9725   2.265   1.792  11.329 -0.5836  0.3385  0.1245
   98OSM   H13A 9726   2.212   1.881  11.301 -2.9590 -0.4836  1.8713
   98OSM   H13B 9727   2.279   1.808  11.435 -3.5389  1.4999  0.3927
   98OSM   H13C 9728   2.200   1.706  11.323  1.4297 -1.2366  0.3092
   98OSM    C12 9729   2.374   1.791  11.105 -0.3075  0.2141 -0.1874
   98OSM   H12A 9730   2.465   1.813  11.051 -0.6324  2.3021  0.0763
   98OSM   H12B 9731   2.313   1.880  11.098 -1.1327 -0.4965 -2.2522
   98OSM    C11 9732   2.301   1.675  11.028 -0.3674  0.0024  0.0899
   98OSM   H11A 9733   2.356   1.579  11.033  1.7503  1.2574  2.4567
   98OSM   H11B 9734   2.309   1.700  10.920  3.7009 -1.9236 -0.1136
   98OSM      P 9735   2.051   1.713  11.000 -0.3008  0.0867 -0.0819
   98OSM    O13 9736   1.926   1.647  11.045 -0.4439  1.0480 -0.8916
   98OSM    O14 9737   2.051   1.859  11.002  0.1680  0.4500  0.1331
   98OSM    O11 9738   2.085   1.658  10.859 -0.7213  0.2466  0.2935
   98OSM    O12 9739   2.172   1.656  11.080  0.6774 -0.5419 -0.1512
   98OSM    C1S 9740   2.003   1.685  10.742 -0.5135  0.3091  0.4981
   98OSM    H1S 9741   2.020   1.791  10.714 -0.0358  0.1419  0.1390
   98OSM    H1T 9742   1.896   1.655  10.752  0.7717 -4.5941  1.2884
   98OSM     NF 9743   1.986   1.664  10.491  0.5927 -0.6096 -0.6130
   98OSM    HNF 9744   1.903   1.619  10.456 -1.1259  0.7088  1.6515
   98OSM    C2S 9745   2.051   1.602  10.610 -0.5133  0.2335 -1.2143
   98OSM    H2S 9746   2.160   1.620  10.605  0.0068 -1.8433  1.3389
   98OSM    C3S 9747   2.033   1.454  10.642 -0.4023  0.0820  0.2225
   98OSM    H3S 9748   1.930   1.435  10.680  0.3325  0.9067  2.6693
   98OSM     O3 9749   2.123   1.409  10.739 -0.2655  0.0482 -0.2088
   98OSM    HO3 9750   2.156   1.487  10.783  0.9732 -0.8810  0.5480
   98OSM    C4S 9751   2.048   1.371  10.523  0.4215  0.4145  0.4915
   98OSM    H4S 9752   1.954   1.363  10.466  0.9692  0.8323 -0.4801
   98OSM    C5S 9753   2.152   1.318  10.467 -0.0694  0.0803 -0.1771
   98OSM    H5S 9754   2.246   1.326  10.523  0.6733 -0.1010 -1.4020
   98OSM    C6S 9755   2.138   1.242  10.341  0.1541  0.8395 -0.5896
   98OSM    H6S 9756   2.043   1.185  10.349  0.7375  0.2287  2.2406
   98OSM    H6T 9757   2.207   1.156  10.325 -1.0619 -0.2709  0.0400
   98OSM    C7S 9758   2.147   1.326  10.215  0.1340  0.5195  0.6940
   98OSM    H7S 9759   2.238   1.390  10.213 -0.6456  1.6398  0.2710
   98OSM    H7T 9760   2.060   1.396  10.215 -2.0988 -2.1682  0.3800
   98OSM    C8S 9761   2.144   1.251  10.083 -0.3529  0.7416  0.1133
   98OSM    H8S 9762   2.057   1.181  10.084  0.9473 -0.9137 -0.0169
   98OSM    H8T 9763   2.226   1.177  10.068 -3.0769 -2.0922 -1.5982
   98OSM    C9S 9764   2.135   1.342   9.955 -0.0605  0.5770 -0.2460
   98OSM    H9S 9765   2.225   1.405   9.944  0.0639 -0.1419 -4.0002
   98OSM    H9T 9766   2.053   1.415   9.973 -0.1190  0.2495  0.8198
   98OSM   C10S 9767   2.093   1.251   9.835  0.3070 -0.4755  0.1825
   98OSM   H10S 9768   2.002   1.195   9.867 -0.3368 -0.4558 -1.5850
   98OSM   H10T 9769   2.181   1.183   9.829  1.3893  0.8576  0.7435
   98OSM   C11S 9770   2.074   1.322   9.698  0.1272  0.5465  0.1521
   98OSM   H11S 9771   2.148   1.404   9.684 -0.1833  1.1216  1.7587
   98OSM   H11T 9772   1.974   1.370   9.692  0.2773  1.0525  1.4233
   98OSM   C12S 9773   2.101   1.220   9.593 -0.1105 -0.4333 -0.4934
   98OSM   H12S 9774   2.061   1.120   9.618  2.3182 -0.9050  1.7875
   98OSM   H12T 9775   2.211   1.203   9.587 -0.4811 -2.9122 -0.5276
   98OSM   C13S 9776   2.032   1.275   9.462 -0.0513 -0.2617 -0.0927
   98OSM   H13S 9777   2.070   1.372   9.425 -0.0055 -0.6842 -1.1862
   98OSM   H13T 9778   1.923   1.291   9.477  0.2308  0.6436  1.0861
   98OSM   C14S 9779   2.044   1.170   9.340 -0.2546  0.1155 -0.4742
   98OSM   H14S 9780   1.979   1.095   9.391  1.4039 -0.2103  1.2040
   98OSM   H14T 9781   2.143   1.120   9.340 -0.2444  0.1315  0.0696
   98OSM   C15S 9782   1.994   1.228   9.201 -0.1874  0.0273  0.4945
   98OSM   H15S 9783   1.901   1.282   9.229  0.3240  1.0357  0.3135
   98OSM   H15T 9784   1.957   1.149   9.133 -0.9615  0.1790  0.7419
   98OSM   C16S 9785   2.084   1.324   9.132 -1.0191 -0.2313  0.0444
   98OSM   H16S 9786   2.167   1.277   9.076 -0.5573 -0.2515  0.7431
   98OSM   H16T 9787   2.133   1.373   9.219  0.0131 -3.6547  1.4947
   98OSM   C17S 9788   2.008   1.424   9.052 -0.3097  0.9360 -0.5470
   98OSM   H17S 9789   1.954   1.492   9.122 -0.0226 -0.0716  0.6793
   98OSM   H17T 9790   1.935   1.362   8.995  1.1430 -1.9841  0.6603
   98OSM   C18S 9791   2.096   1.489   8.948 -0.1281  0.4907  0.1512
   98OSM   H18S 9792   2.036   1.528   8.864  2.1071 -1.8955 -2.6524
   98OSM   H18T 9793   2.162   1.414   8.900 -1.7155 -1.2508  0.6102
   98OSM   H18U 9794   2.167   1.563   8.992  0.3602 -1.3026  2.4824
   98OSM    C1F 9795   2.027   1.779  10.442 -0.0750  0.3583  0.3672
   98OSM     OF 9796   2.116   1.840  10.492 -0.3919 -0.1418  0.0199
   98OSM    C2F 9797   1.956   1.831  10.324  0.0485 -0.2015 -0.6172
   98OSM    H2F 9798   1.957   1.942  10.331  0.9511 -0.2353 -0.2217
   98OSM    H2G 9799   1.847   1.807  10.327  0.1402 -0.4216  3.3163
   98OSM    C3F 9800   2.012   1.772  10.197 -0.2990 -0.0227 -0.7473
   98OSM    H3F 9801   1.963   1.672  10.200 -1.1278  0.4086  2.3387
   98OSM    H3G 9802   2.121   1.751  10.205  0.3233  2.7834 -1.5227
   98OSM    C4F 9803   1.991   1.838  10.054 -0.3461 -0.2950  0.2019
   98OSM    H4F 9804   2.046   1.934  10.049 -1.3331  0.1655 -2.0107
   98OSM    H4G 9805   1.883   1.859  10.049 -0.4169 -0.2327  1.7027
   98OSM    C5F 9806   2.016   1.732   9.942 -0.2687 -0.7724 -0.6930
   98OSM    H5F 9807   1.968   1.635   9.969  0.3025 -0.7259  0.5408
   98OSM    H5G 9808   2.124   1.719   9.920 -0.1231 -3.5159  1.3414
   98OSM    C6F 9809   1.955   1.779   9.805 -0.3291  0.4384  0.2632
   98OSM    H6F 9810   1.985   1.885   9.789 -0.7998  0.5144 -0.1035
   98OSM    H6G 9811   1.844   1.776   9.799 -0.2305  0.5008 -2.0834
   98OSM    C7F 9812   2.009   1.698   9.681  0.6841 -0.7963  0.7919
   98OSM    H7F 9813   1.960   1.599   9.691 -0.0005 -0.4603  0.8086
   98OSM    H7G 9814   2.119   1.691   9.670  0.8118  0.7281  0.9909
   98OSM    C8F 9815   1.952   1.759   9.545  0.4388  0.6130 -0.7337
   98OSM    H8F 9816   1.971   1.866   9.570  1.2165  0.2687  0.2020
   98OSM    H8G 9817   1.844   1.737   9.552  0.6582  0.2320  2.2209
   98OSM    C9F 9818   2.019   1.721   9.412 -0.3382  0.8809 -0.0737
   98OSM    H9F 9819   2.116   1.672   9.427  0.1852  2.8125  3.6052
   98OSM   C10F 9820   1.979   1.745   9.287 -0.3410 -0.2417 -0.4560
   98OSM   H10F 9821   2.034   1.703   9.201 -0.0368 -1.9069  0.5226
   98OSM   C11F 9822   1.850   1.814   9.250  0.2897  0.5386 -0.5995
   98OSM   H11F 9823   1.855   1.922   9.277 -0.1126  0.2411  0.6837
   98OSM   H11G 9824   1.765   1.767   9.306  1.2232 -0.4838 -0.0266
   98OSM   C12F 9825   1.832   1.801   9.098  0.2459 -0.1834  0.2860
   98OSM   H12F 9826   1.806   1.695   9.075  0.5333 -0.2106  0.0787
   98OSM   H12G 9827   1.922   1.833   9.043 -0.1528  0.4298 -0.0131
   98OSM   C13F 9828   1.715   1.889   9.049  0.0704  0.4537 -0.0980
   98OSM   H13F 9829   1.728   1.998   9.067 -2.5232  0.5418  1.4752
   98OSM   H13G 9830   1.633   1.867   9.120  0.4108  1.6412  0.6831
   98OSM   C14F 9831   1.677   1.859   8.902  0.4345  0.1650  0.4266
   98OSM   H14F 9832   1.570   1.887   8.889  0.4244  0.1974  0.5811
   98OSM   H14G 9833   1.692   1.750   8.884  1.9322  0.2526  1.1294
   98OSM   C15F 9834   1.770   1.929   8.810 -0.0279 -0.1640  0.1114
   98OSM   H15F 9835   1.876   1.917   8.838  0.3470 -0.8761 -1.5299
   98OSM   H15G 9836   1.743   2.037   8.820  0.0572 -0.1170 -0.1568
   98OSM   C16F 9837   1.757   1.882   8.671  0.2930  0.3344 -0.3363
   98OSM   H16F 9838   1.653   1.865   8.634 -0.4589 -0.9183  2.1644
   98OSM   H16G 9839   1.791   1.776   8.670  0.0827  0.2770 -2.0918
   98OSM   C17F 9840   1.816   1.967   8.566 -0.2587  0.3305 -0.3359
   98OSM   H17F 9841   1.819   1.913   8.469  0.4494  0.8421 -0.5981
   98OSM   H17G 9842   1.921   1.990   8.593  0.1747 -2.0032  0.0402
   98OSM   C18F 9843   1.745   2.101   8.551  0.2697 -0.4368 -0.1827
   98OSM   H18F 9844   1.767   2.148   8.452  1.1632 -2.2387 -0.8677
   98OSM   H18G 9845   1.785   2.171   8.627 -1.9017 -1.4960  1.9960
   98OSM   H18H 9846   1.634   2.088   8.552  0.1888  0.2692  0.8229
   99OSM      N 9847   4.420   2.720  11.103  0.0201 -0.3162 -0.2575
   99OSM    C15 9848   4.359   2.671  10.975  1.2180 -0.2924 -0.3513
   99OSM   H15A 9849   4.252   2.661  10.977  1.2247 -0.0695  1.0609
   99OSM   H15B 9850   4.402   2.572  10.965  1.2570 -0.3984  0.8661
   99OSM   H15C 9851   4.387   2.731  10.889  0.1892  2.0366  0.8880
   99OSM    C14 9852   4.383   2.619  11.215 -0.0445 -0.0064  0.8373
   99OSM   H14A 9853   4.283   2.633  11.251 -1.0224  0.5205 -1.9784
   99OSM   H14B 9854   4.444   2.631  11.303 -0.7984 -0.3053  1.4076
   99OSM   H14C 9855   4.394   2.518  11.177  1.6206  0.4011  0.1740
   99OSM    C13 9856   4.564   2.733  11.088  0.9986  0.4138  0.0560
   99OSM   H13A 9857   4.603   2.637  11.060 -1.7833 -1.3360  1.8811
   99OSM   H13B 9858   4.615   2.758  11.180 -0.6930  1.0674  0.8575
   99OSM   H13C 9859   4.601   2.802  11.014 -0.7923  0.0091 -1.2536
   99OSM    C12 9860   4.361   2.863  11.141  0.2220 -0.0953  0.6031
   99OSM   H12A 9861   4.407   2.902  11.230  0.2755 -0.0165  0.5406
   99OSM   H12B 9862   4.259   2.842  11.168  0.5478  1.1838  2.9457
   99OSM    C11 9863   4.353   2.965  11.031 -0.9521 -0.2569 -0.0047
   99OSM   H11A 9864   4.279   3.037  11.072  0.7316  0.3688  2.0402
   99OSM   H11B 9865   4.300   2.925  10.942  2.0077 -0.1087 -1.8923
   99OSM      P 9866   4.535   3.056  10.865  0.1041  0.0892 -0.0026
   99OSM    O13 9867   4.638   3.161  10.880  0.3494 -0.3065  0.2421
   99OSM    O14 9868   4.566   2.939  10.780 -0.5996  0.1752 -0.7979
   99OSM    O11 9869   4.421   3.129  10.796  0.4830 -0.1077  0.6369
   99OSM    O12 9870   4.483   3.022  11.009  0.1045  0.5787 -0.3826
   99OSM    C1S 9871   4.418   3.204  10.681 -1.1783  0.5879 -0.3991
   99OSM    H1S 9872   4.515   3.252  10.654 -0.3320 -0.8960 -0.0295
   99OSM    H1T 9873   4.351   3.292  10.694 -1.0131  1.0018 -2.2114
   99OSM     NF 9874   4.377   3.204  10.435  0.2495 -0.7732 -0.9277
   99OSM    HNF 9875   4.294   3.246  10.400  1.4166  1.6214 -0.8974
   99OSM    C2S 9876   4.358   3.130  10.554  0.1211 -0.1137 -0.6620
   99OSM    H2S 9877   4.417   3.036  10.552 -0.5559 -0.5691  0.2794
   99OSM    C3S 9878   4.209   3.095  10.575  0.4492 -0.3426  0.0877
   99OSM    H3S 9879   4.166   3.197  10.561  2.0890  0.2774 -0.4860
   99OSM     O3 9880   4.173   3.061  10.714 -0.6187 -0.2800 -0.0302
   99OSM    HO3 9881   4.257   3.082  10.755 -0.0310 -1.0278 -0.8349
   99OSM    C4S 9882   4.158   3.000  10.470 -0.2137  0.1777 -0.6968
   99OSM    H4S 9883   4.233   2.928  10.435 -1.0537 -2.1028  1.9793
   99OSM    C5S 9884   4.036   3.000  10.411  0.1962 -0.4440  0.6494
   99OSM    H5S 9885   3.972   3.084  10.444 -0.5022 -0.0355 -1.6346
   99OSM    C6S 9886   3.992   2.901  10.301  0.1841 -0.3295  0.1537
   99OSM    H6S 9887   3.899   2.846  10.327 -0.6561  0.6075 -0.8588
   99OSM    H6T 9888   4.072   2.824  10.292  0.8712  0.0866  2.2107
   99OSM    C7S 9889   3.970   2.982  10.167 -0.5217 -0.2280  0.1712
   99OSM    H7S 9890   3.901   3.065  10.194 -0.8028 -0.4816  0.2410
   99OSM    H7T 9891   3.925   2.919  10.087  1.3317  0.6292 -1.5788
   99OSM    C8S 9892   4.104   3.033  10.114  0.5355  0.6126  0.9994
   99OSM    H8S 9893   4.182   2.956  10.127  0.4811 -0.4191 -3.8496
   99OSM    H8T 9894   4.131   3.124  10.171 -0.0441  1.0463  0.5952
   99OSM    C9S 9895   4.098   3.066   9.960  0.0342 -0.1931  0.1436
   99OSM    H9S 9896   4.035   3.154   9.937 -0.5566 -0.4813  0.6216
   99OSM    H9T 9897   4.057   2.981   9.902  1.1429 -0.6622  0.0350
   99OSM   C10S 9898   4.242   3.092   9.910  0.0294  0.9051  0.3195
   99OSM   H10S 9899   4.288   2.994   9.936  1.3405  1.1278 -1.0922
   99OSM   H10T 9900   4.285   3.175   9.969  0.9567 -0.6960  1.9659
   99OSM   C11S 9901   4.254   3.121   9.760 -0.6135  0.1662 -0.1565
   99OSM   H11S 9902   4.171   3.183   9.721 -0.0705  1.6528  0.9734
   99OSM   H11T 9903   4.267   3.019   9.719 -0.3933  0.3804 -0.6208
   99OSM   C12S 9904   4.385   3.194   9.734 -0.1287 -0.1152  0.5012
   99OSM   H12S 9905   4.379   3.304   9.741  0.4637  0.0316 -1.0404
   99OSM   H12T 9906   4.453   3.146   9.807  0.4924 -0.6500 -0.4196
   99OSM   C13S 9907   4.448   3.172   9.594 -0.6294 -0.4863  0.2132
   99OSM   H13S 9908   4.439   3.062   9.575  2.6059 -0.3556 -2.7240
   99OSM   H13T 9909   4.555   3.203   9.594 -1.2013  1.5270 -0.5772
   99OSM   C14S 9910   4.376   3.248   9.480 -0.1070  0.3089 -0.2797
   99OSM   H14S 9911   4.433   3.343   9.464  0.6296  0.3322  2.3040
   99OSM   H14T 9912   4.272   3.268   9.513 -0.0050 -0.5520  0.5933
   99OSM   C15S 9913   4.362   3.164   9.358 -0.3557  0.3494  0.7875
   99OSM   H15S 9914   4.295   3.078   9.377 -0.9441  0.8299  0.9123
   99OSM   H15T 9915   4.455   3.110   9.331 -0.7628  0.3901 -0.7736
   99OSM   C16S 9916   4.329   3.253   9.237  0.0602  0.2422  0.1938
   99OSM   H16S 9917   4.395   3.341   9.221 -0.1687  0.2204 -0.9040
   99OSM   H16T 9918   4.242   3.315   9.267  0.3255  1.1733 -0.9316
   99OSM   C17S 9919   4.300   3.175   9.109 -0.3670  0.6407  0.4035
   99OSM   H17S 9920   4.250   3.078   9.130 -1.3978  1.0738 -0.0336
   99OSM   H17T 9921   4.393   3.158   9.051 -0.6571 -1.4674  0.5022
   99OSM   C18S 9922   4.206   3.238   9.010 -0.3430 -0.1674 -0.1102
   99OSM   H18S 9923   4.192   3.183   8.914 -1.5108  0.9837 -0.6172
   99OSM   H18T 9924   4.236   3.345   9.007  1.4745 -0.6589  0.4259
   99OSM   H18U 9925   4.107   3.226   9.058  0.3286 -0.2340  1.2655
   99OSM    C1F 9926   4.501   3.233  10.386 -0.9547 -0.0513  0.3703
   99OSM     OF 9927   4.605   3.194  10.440 -0.0207 -0.5444  0.0344
   99OSM    C2F 9928   4.501   3.321  10.259 -0.0998 -0.3316 -0.0949
   99OSM    H2F 9929   4.502   3.432  10.268 -1.3268 -0.1915 -1.5535
   99OSM    H2G 9930   4.404   3.302  10.208 -0.0593  0.3270 -0.4303
   99OSM    C3F 9931   4.611   3.278  10.160  0.6265 -0.3064  0.6601
   99OSM    H3F 9932   4.710   3.278  10.210  0.7456 -0.7204  0.4208
   99OSM    H3G 9933   4.589   3.174  10.128  0.4053  0.0663 -0.4109
   99OSM    C4F 9934   4.620   3.362  10.032 -0.4886 -0.5727 -0.5202
   99OSM    H4F 9935   4.647   3.463  10.067  1.3954 -1.2122 -0.1059
   99OSM    H4G 9936   4.518   3.360   9.988 -2.1876  0.4857  3.1639
   99OSM    C5F 9937   4.725   3.316   9.930 -0.0794 -0.6501 -0.5791
   99OSM    H5F 9938   4.699   3.220   9.881 -3.1839  1.0167 -2.3542
   99OSM    H5G 9939   4.821   3.306   9.984 -1.4359  1.5268  2.4203
   99OSM    C6F 9940   4.748   3.428   9.830  0.2580 -0.0394 -0.4146
   99OSM    H6F 9941   4.767   3.521   9.889  0.6782  1.2115 -2.4830
   99OSM    H6G 9942   4.653   3.442   9.774 -1.0115  0.1469  1.6905
   99OSM    C7F 9943   4.860   3.398   9.730  0.1229  0.1142 -0.4777
   99OSM    H7F 9944   4.835   3.306   9.673 -0.1506 -1.1944  1.6984
   99OSM    H7G 9945   4.954   3.385   9.788 -1.0390  2.4425  2.0362
   99OSM    C8F 9946   4.863   3.527   9.639  0.0128 -0.2001  0.3476
   99OSM    H8F 9947   4.903   3.608   9.704 -1.7368 -0.2361  1.4918
   99OSM    H8G 9948   4.756   3.551   9.621  0.0157 -1.4162 -1.4598
   99OSM    C9F 9949   4.949   3.503   9.516 -0.4103 -1.0370  0.4425
   99OSM    H9F 9950   5.046   3.457   9.536  0.8604  1.2765 -0.1658
   99OSM   C10F 9951   4.905   3.512   9.385  0.1243 -0.1501  0.2990
   99OSM   H10F 9952   4.979   3.488   9.307  1.0092 -0.5802  1.2647
   99OSM   C11F 9953   4.760   3.550   9.344 -0.6926 -0.1979  0.8615
   99OSM   H11F 9954   4.766   3.632   9.270 -2.2151  0.4500  1.4398
   99OSM   H11G 9955   4.704   3.577   9.437  2.1916  1.4374  2.1801
   99OSM   C12F 9956   4.677   3.440   9.274  0.6644 -0.4321 -0.0792
   99OSM   H12F 9957   4.574   3.482   9.264  0.2232 -1.1076  1.4125
   99OSM   H12G 9958   4.669   3.348   9.337 -1.0517  0.1572  0.6037
   99OSM   C13F 9959   4.733   3.413   9.140  0.6085 -0.3952  0.1730
   99OSM   H13F 9960   4.835   3.372   9.150  0.7182  0.3862  2.3537
   99OSM   H13G 9961   4.734   3.501   9.072 -1.9472 -1.2332 -1.0495
   99OSM   C14F 9962   4.657   3.295   9.076 -0.7427  0.0739 -0.3489
   99OSM   H14F 9963   4.553   3.329   9.057 -0.6697 -0.2852 -1.4612
   99OSM   H14G 9964   4.661   3.209   9.145  1.1766 -2.1996 -3.1712
   99OSM   C15F 9965   4.717   3.239   8.944 -0.3100 -0.4178  0.6528
   99OSM   H15F 9966   4.823   3.211   8.961 -0.1594  0.4666  1.2334
   99OSM   H15G 9967   4.708   3.314   8.861 -1.7716 -1.1516  0.1413
   99OSM   C16F 9968   4.634   3.118   8.907  0.1912  0.1664  0.4233
   99OSM   H16F 9969   4.526   3.143   8.904  0.0286 -0.4450  1.1189
   99OSM   H16G 9970   4.655   3.029   8.970  0.7635  0.7285  1.0357
   99OSM   C17F 9971   4.677   3.052   8.767  0.1188  0.8398 -0.4936
   99OSM   H17F 9972   4.786   3.033   8.776 -0.2404 -0.8259  0.5122
   99OSM   H17G 9973   4.662   3.133   8.692  1.3185  3.0304  1.5696
   99OSM   C18F 9974   4.583   2.936   8.725 -0.0528  0.4168 -0.0978
   99OSM   H18F 9975   4.596   2.842   8.783  0.3682  0.1684 -0.5796
   99OSM   H18G 9976   4.598   2.917   8.616  0.2371  2.5390 -0.4470
   99OSM   H18H 9977   4.476   2.963   8.738 -0.4356 -2.1350  2.5734
  100OSM      N 9978   6.092   2.792  11.114  0.2827  0.1750  0.1161
  100OSM    C15 9979   6.163   2.697  11.204 -0.3854 -0.2807 -0.5431
  100OSM   H15A 9980   6.102   2.624  11.254 -0.0364 -0.4154 -0.3100
  100OSM   H15B 9981   6.213   2.746  11.286 -1.1834  4.6029 -2.7735
  100OSM   H15C 9982   6.233   2.631  11.155  0.4601  1.5890 -1.9456
  100OSM    C14 9983   5.999   2.724  11.025  0.3434 -0.5102 -0.6128
  100OSM   H14A 9984   6.062   2.650  10.977 -1.4163 -2.9578  0.7112
  100OSM   H14B 9985   5.962   2.785  10.944 -1.6585 -1.4724 -0.4670
  100OSM   H14C 9986   5.916   2.676  11.075  1.4035  1.1875  2.8787
  100OSM    C13 9987   6.017   2.882  11.199  0.4349  0.0271 -0.0713
  100OSM   H13A 9988   5.970   2.962  11.144 -1.7581 -1.2281 -0.0575
  100OSM   H13B 9989   6.083   2.912  11.280  1.4115  1.8810 -1.5239
  100OSM   H13C 9990   5.936   2.844  11.260 -1.7262  1.7323 -1.7920
  100OSM    C12 9991   6.194   2.864  11.027  0.3459 -0.5361 -0.6404
  100OSM   H12A 9992   6.233   2.794  10.954 -1.7980 -1.9026 -0.5237
  100OSM   H12B 9993   6.274   2.894  11.092 -0.3818 -0.1511  0.0801
  100OSM    C11 9994   6.148   2.989  10.950 -0.0499  0.3273 -0.5272
  100OSM   H11A 9995   6.233   3.019  10.885  0.7451 -0.1386  0.2947
  100OSM   H11B 9996   6.137   3.070  11.025  1.5552  0.8198 -0.8165
  100OSM      P 9997   5.956   3.088  10.801  0.1833 -0.4216 -0.1621
  100OSM    O13 9998   5.840   3.027  10.731 -0.1974 -0.3954  0.3541
  100OSM    O14 9999   5.928   3.201  10.896  0.2923 -0.6185  0.3489
  100OSM    O1110000   6.059   3.138  10.701  0.2913  0.1117 -0.1740
  100OSM    O1210001   6.020   2.975  10.880  0.1031 -0.2947  0.2595
  100OSM    C1S10002   6.137   3.061  10.610 -0.7960 -0.0464  0.3458
  100OSM    H1S10003   6.106   2.955  10.612  1.4572 -0.8085 -2.0712
  100OSM    H1T10004   6.239   3.058  10.654 -0.4225 -1.2269 -0.5935
  100OSM     NF10005   6.199   3.013  10.381  0.2984 -1.0016  0.1341
  100OSM    HNF10006   6.293   3.033  10.358 -0.3735  1.1698 -0.8597
  100OSM    C2S10007   6.139   3.113  10.466 -0.2452  0.3219 -0.1790
  100OSM    H2S10008   6.035   3.125  10.428 -1.6920 -1.9610  2.8889
  100OSM    C3S10009   6.209   3.251  10.472 -0.3433  0.6090  0.5369
  100OSM    H3S10010   6.306   3.243  10.526 -0.1525 -1.9029 -0.1199
  100OSM     O310011   6.138   3.359  10.529 -0.4180 -0.5814 -0.5565
  100OSM    HO310012   6.047   3.329  10.519 -1.3457  1.7930  0.4458
  100OSM    C4S10013   6.234   3.294  10.330  0.7712  0.2325  0.6979
  100OSM    H4S10014   6.140   3.312  10.276  0.4148 -2.5950  0.2767
  100OSM    C5S10015   6.349   3.330  10.263 -0.3234 -0.1373  0.0111
  100OSM    H5S10016   6.437   3.362  10.321 -2.0122  2.1214  1.4068
  100OSM    C6S10017   6.355   3.396  10.124 -0.0546  0.0679  0.3738
  100OSM    H6S10018   6.459   3.417  10.091 -0.0972  1.1300  0.8664
  100OSM    H6T10019   6.318   3.501  10.125  1.0520  0.5007 -1.8967
  100OSM    C7S10020   6.284   3.321  10.016  0.1889  0.1490 -0.0926
  100OSM    H7S10021   6.179   3.300  10.043  0.9049 -2.6123  0.6842
  100OSM    H7T10022   6.337   3.223  10.013  2.5278  1.3331  0.6635
  100OSM    C8S10023   6.294   3.391   9.881  0.1472  0.9533 -0.5337
  100OSM    H8S10024   6.396   3.434   9.868 -0.3685  2.1396 -0.7551
  100OSM    H8T10025   6.231   3.483   9.876 -0.1052  0.7606 -1.0190
  100OSM    C9S10026   6.250   3.302   9.765  0.8369  0.6721  0.0192
  100OSM    H9S10027   6.154   3.250   9.782 -0.1719  2.3616 -0.3894
  100OSM    H9T10028   6.328   3.223   9.758 -0.1613 -0.1469 -2.1511
  100OSM   C10S10029   6.236   3.373   9.631 -0.4600  0.8383 -0.1925
  100OSM   H10S10030   6.228   3.293   9.554 -3.0410  1.0450 -0.1917
  100OSM   H10T10031   6.329   3.433   9.616  0.2173 -0.0681  0.3258
  100OSM   C11S10032   6.116   3.463   9.616  0.3509  0.4634  0.0612
  100OSM   H11S10033   6.106   3.532   9.703  0.0009  0.0722  0.3376
  100OSM   H11T10034   6.016   3.413   9.622  0.4378  0.4939  2.6440
  100OSM   C12S10035   6.134   3.555   9.495 -0.3202 -0.2283 -0.8863
  100OSM   H12S10036   6.211   3.623   9.538 -1.0585  0.8665 -1.2786
  100OSM   H12T10037   6.043   3.617   9.481 -0.2248  0.1735  0.1624
  100OSM   C13S10038   6.173   3.493   9.366  0.8551 -0.4091  0.1279
  100OSM   H13S10039   6.262   3.426   9.361  1.5187  0.4669 -0.0312
  100OSM   H13T10040   6.180   3.574   9.290 -0.8772 -1.6165 -1.3458
  100OSM   C14S10041   6.057   3.410   9.301  0.0212  0.1749 -0.4038
  100OSM   H14S10042   5.960   3.463   9.298  0.3406  0.7225 -1.7166
  100OSM   H14T10043   6.038   3.318   9.360 -0.7984 -0.3818 -1.5270
  100OSM   C15S10044   6.095   3.356   9.167 -0.7428  0.5217  0.2419
  100OSM   H15S10045   6.014   3.290   9.128  0.1982  0.0874 -1.0058
  100OSM   H15T10046   6.191   3.301   9.165 -0.5226  0.9413 -0.6033
  100OSM   C16S10047   6.103   3.467   9.059 -0.3217  0.0858 -0.4744
  100OSM   H16S10048   6.187   3.535   9.087 -0.5779  0.6294 -1.0355
  100OSM   H16T10049   6.016   3.535   9.054  0.6462  1.3215 -0.9691
  100OSM   C17S10050   6.146   3.412   8.927 -1.0977  0.1400  0.0067
  100OSM   H17S10051   6.056   3.356   8.895 -0.0108 -1.0946 -0.9851
  100OSM   H17T10052   6.229   3.340   8.946 -0.2445  0.7791 -1.2123
  100OSM   C18S10053   6.184   3.503   8.813  0.4184  0.0897  0.1665
  100OSM   H18S10054   6.102   3.575   8.792 -0.0817  1.4868  6.0323
  100OSM   H18T10055   6.201   3.439   8.724 -4.2314  1.3739 -1.7661
  100OSM   H18U10056   6.279   3.558   8.833 -0.6124  1.9632  0.0525
  100OSM    C1F10057   6.140   2.896  10.361  0.1594 -0.4526  1.3249
  100OSM     OF10058   6.025   2.875  10.397  0.3591  0.4034 -0.0585
  100OSM    C2F10059   6.222   2.788  10.299 -0.5898 -0.2908  0.8398
  100OSM    H2F10060   6.164   2.697  10.277  0.0110 -0.7378  1.0920
  100OSM    H2G10061   6.292   2.758  10.379 -0.2235 -1.0701  0.2353
  100OSM    C3F10062   6.306   2.839  10.178 -0.1970 -0.4210 -0.8756
  100OSM    H3F10063   6.355   2.752  10.129  2.7961  0.8285 -0.2043
  100OSM    H3G10064   6.380   2.915  10.208  0.8677 -1.7528 -0.0782
  100OSM    C4F10065   6.216   2.890  10.061 -1.2404  0.3177 -0.3929
  100OSM    H4F10066   6.178   2.989  10.092  0.0815  1.0976 -1.2451
  100OSM    H4G10067   6.143   2.806  10.066  0.6595 -1.3968 -0.7801
  100OSM    C5F10068   6.289   2.891   9.930  0.8312  0.0786  0.0603
  100OSM    H5F10069   6.351   2.800   9.921  0.5813 -0.0152 -0.6940
  100OSM    H5G10070   6.363   2.974   9.927  1.5151 -0.5853 -1.5349
  100OSM    C6F10071   6.200   2.909   9.805  0.1093 -0.5138  0.2208
  100OSM    H6F10072   6.125   2.989   9.824 -0.4266 -0.4664 -1.9568
  100OSM    H6G10073   6.149   2.815   9.774  0.3772 -0.8809  0.8912
  100OSM    C7F10074   6.283   2.934   9.679 -0.2206 -0.5705  0.6496
  100OSM    H7F10075   6.338   2.842   9.653 -2.1615 -1.5541 -0.1022
  100OSM    H7G10076   6.358   3.009   9.712 -0.0136 -0.5022  0.0246
  100OSM    C8F10077   6.197   2.988   9.566  0.4338  0.8213  0.0101
  100OSM    H8F10078   6.269   3.036   9.496  0.6302  5.4295  3.1320
  100OSM    H8G10079   6.129   3.070   9.599  0.6669  0.2788  1.8478
  100OSM    C9F10080   6.112   2.883   9.502 -0.0301 -0.0758 -0.4496
  100OSM    H9F10081   6.073   2.806   9.569 -1.3749  0.2488 -0.8493
  100OSM   C10F10082   6.075   2.873   9.372 -0.7849  0.2861 -0.1361
  100OSM   H10F10083   6.007   2.788   9.352 -1.6534 -0.0928  4.0790
  100OSM   C11F10084   6.115   2.965   9.253 -0.1523 -0.0200 -0.7573
  100OSM   H11F10085   6.215   3.011   9.267 -0.6746  1.0761 -0.4714
  100OSM   H11G10086   6.055   3.058   9.241  3.9167  2.9626  0.7352
  100OSM   C12F10087   6.132   2.878   9.128  1.0626 -0.4954  0.1244
  100OSM   H12F10088   6.031   2.840   9.102 -0.7341  2.7105  2.0209
  100OSM   H12G10089   6.200   2.792   9.143  0.0490 -1.0385  1.7059
  100OSM   C13F10090   6.190   2.972   9.008  0.3329 -0.7001 -0.5205
  100OSM   H13F10091   6.292   3.008   9.033 -0.1890 -0.2254  0.9991
  100OSM   H13G10092   6.124   3.061   8.997 -0.9861 -1.6991 -0.8095
  100OSM   C14F10093   6.197   2.905   8.871  0.2648 -0.9315  0.6346
  100OSM   H14F10094   6.090   2.887   8.844  0.7763 -2.3544 -0.5174
  100OSM   H14G10095   6.242   2.803   8.871 -0.4159 -1.2440 -0.2980
  100OSM   C15F10096   6.270   2.977   8.760  0.3663  0.0669  0.5227
  100OSM   H15F10097   6.378   2.988   8.780  0.4148 -0.2406  0.4279
  100OSM   H15G10098   6.215   3.073   8.751 -1.0256 -0.7700 -0.1282
  100OSM   C16F10099   6.259   2.906   8.627  0.0286 -0.1348  0.1873
  100OSM   H16F10100   6.178   2.831   8.616 -2.3217  2.1015  1.7623
  100OSM   H16G10101   6.354   2.850   8.615  0.2701  0.3219 -0.0318
  100OSM   C17F10102   6.243   3.000   8.503 -0.2143 -0.0942 -0.4270
  100OSM   H17F10103   6.144   3.050   8.509 -0.5997 -1.0734  1.9509
  100OSM   H17G10104   6.250   2.936   8.412 -2.1342  0.0012 -0.6516
  100OSM   C18F10105   6.350   3.102   8.485  0.0269  0.7959  0.6475
  100OSM   H18F10106   6.446   3.046   8.474  0.5815  1.7388  0.6564
  100OSM   H18G10107   6.355   3.169   8.573 -0.9108 -0.3398  1.5824
  100OSM   H18H10108   6.327   3.174   8.403  0.2587 -0.3449 -0.4440
  101OSM      N10109   2.567   3.156  11.242 -0.4131  0.2204 -0.2125
  101OSM    C1510110   2.453   3.105  11.318  0.4401 -0.0926  0.0664
  101OSM   H15A10111   2.439   2.998  11.316 -2.2909  0.2447 -0.1207
  101OSM   H15B10112   2.362   3.152  11.283  1.3016  0.0795 -1.9767
  101OSM   H15C10113   2.476   3.130  11.421  0.3835 -0.2975  0.1279
  101OSM    C1410114   2.579   3.305  11.251  0.8267 -0.1272 -0.6181
  101OSM   H14A10115   2.545   3.344  11.345  0.0039 -1.0043 -0.5426
  101OSM   H14B10116   2.513   3.350  11.177 -1.5101 -0.7951  1.0045
  101OSM   H14C10117   2.674   3.344  11.219  1.3151 -1.3697 -0.7071
  101OSM    C1310118   2.696   3.098  11.310  0.2992  0.5878 -0.4688
  101OSM   H13A10119   2.782   3.137  11.257  0.3985 -1.1141 -1.5826
  101OSM   H13B10120   2.689   2.992  11.296  0.5198  0.6519 -1.0545
  101OSM   H13C10121   2.713   3.116  11.415  0.1006  1.0099 -0.5074
  101OSM    C1210122   2.567   3.111  11.098 -0.0402  0.0862 -0.3633
  101OSM   H12A10123   2.655   3.142  11.044  0.2776  0.7452  0.5116
  101OSM   H12B10124   2.477   3.155  11.059 -1.7374 -1.5688  1.5245
  101OSM    C1110125   2.544   2.958  11.063  0.1912  0.1322  0.1676
  101OSM   H11A10126   2.514   2.953  10.956 -0.7717  1.4593  0.3583
  101OSM   H11B10127   2.469   2.908  11.128  2.1459 -1.3598  1.3336
  101OSM      P10128   2.795   2.917  10.971 -0.0087 -0.1353  0.1826
  101OSM    O1310129   2.813   3.056  10.925  0.4993  0.3821  0.6181
  101OSM    O1410130   2.911   2.854  11.041  0.4342  0.3516 -0.0780
  101OSM    O1110131   2.770   2.824  10.839 -0.1273  0.0349  0.0586
  101OSM    O1210132   2.674   2.892  11.070  0.1152  0.0184 -0.6034
  101OSM    C1S10133   2.659   2.853  10.757  0.2257  0.0293  0.1569
  101OSM    H1S10134   2.606   2.948  10.776 -0.6286  0.3912 -3.5945
  101OSM    H1T10135   2.576   2.781  10.776 -0.4812  1.3088  2.0443
  101OSM     NF10136   2.568   2.894  10.536  0.0842  0.0496  0.0246
  101OSM    HNF10137   2.487   2.839  10.516 -0.6555  0.6843  1.2107
  101OSM    C2S10138   2.680   2.838  10.609 -0.5927  0.0151 -0.3341
  101OSM    H2S10139   2.773   2.889  10.577 -1.4748  0.5455 -2.0746
  101OSM    C3S10140   2.699   2.688  10.575 -1.0643 -0.0105  0.3820
  101OSM    H3S10141   2.600   2.645  10.600  0.3967 -2.0953  2.7772
  101OSM     O310142   2.801   2.623  10.641 -0.1908 -0.8764 -0.0289
  101OSM    HO310143   2.822   2.682  10.715 -0.4387 -1.1916  0.2951
  101OSM    C4S10144   2.719   2.663  10.427  0.3111 -0.2641 -0.6051
  101OSM    H4S10145   2.803   2.712  10.375  0.1746 -0.3596 -0.9202
  101OSM    C5S10146   2.621   2.593  10.351 -0.2791 -0.3100  0.5369
  101OSM    H5S10147   2.532   2.553  10.401 -1.7810 -0.0246 -1.8322
  101OSM    C6S10148   2.615   2.570  10.198  0.1301  0.1404  0.1716
  101OSM    H6S10149   2.646   2.464  10.186 -0.1622 -0.3634  3.3670
  101OSM    H6T10150   2.692   2.631  10.145  0.2416 -0.3478 -0.2348
  101OSM    C7S10151   2.486   2.596  10.133  0.4115  0.0571  0.7380
  101OSM    H7S10152   2.436   2.692  10.157 -0.1324  0.1600 -0.7681
  101OSM    H7T10153   2.415   2.519  10.172  0.1804 -0.4112 -0.6059
  101OSM    C8S10154   2.490   2.578   9.981 -0.5908  0.8008 -0.5058
  101OSM    H8S10155   2.385   2.576   9.945  0.1800  1.1499 -2.8524
  101OSM    H8T10156   2.524   2.476   9.954 -1.5615  0.2087  0.4378
  101OSM    C9S10157   2.556   2.690   9.906  0.2843  1.2587  0.6437
  101OSM    H9S10158   2.664   2.685   9.931  0.3805  1.4030  0.2598
  101OSM    H9T10159   2.514   2.790   9.932 -0.6429  0.6184  1.6183
  101OSM   C10S10160   2.545   2.675   9.758  0.6644 -0.1981 -0.1264
  101OSM   H10S10161   2.439   2.682   9.727  0.9525 -0.8789 -1.3329
  101OSM   H10T10162   2.583   2.573   9.730  2.2411 -0.1105  1.6070
  101OSM   C11S10163   2.628   2.789   9.706  0.6034  0.1110  0.7610
  101OSM   H11S10164   2.722   2.792   9.764  0.5905 -0.1089  0.7945
  101OSM   H11T10165   2.580   2.888   9.717  0.2537 -0.1285  1.4300
  101OSM   C12S10166   2.667   2.776   9.558 -0.2034 -0.2110  0.1293
  101OSM   H12S10167   2.581   2.825   9.507  0.3959  1.2758  0.5121
  101OSM   H12T10168   2.669   2.673   9.519  0.9807  0.6121 -2.0417
  101OSM   C13S10169   2.801   2.843   9.525 -0.3335  0.4842 -0.2321
  101OSM   H13S10170   2.880   2.773   9.558 -0.2205  0.5489 -0.3627
  101OSM   H13T10171   2.806   2.944   9.572  0.8929 -0.6691  2.1592
  101OSM   C14S10172   2.824   2.872   9.375 -0.1479  0.2130  0.6804
  101OSM   H14S10173   2.924   2.921   9.372 -0.0382  0.0586  1.7161
  101OSM   H14T10174   2.752   2.953   9.354 -1.1589 -0.6807  0.6644
  101OSM   C15S10175   2.836   2.758   9.276 -0.1807 -0.2093  0.1141
  101OSM   H15S10176   2.739   2.707   9.254 -0.8773  1.4437 -0.7099
  101OSM   H15T10177   2.916   2.686   9.304  1.4621  1.8699  0.8371
  101OSM   C16S10178   2.891   2.813   9.139 -0.4296  0.7631  0.0525
  101OSM   H16S10179   2.988   2.865   9.155  0.3000  0.0860 -2.0339
  101OSM   H16T10180   2.810   2.877   9.097  0.8457  1.1881 -1.8041
  101OSM   C17S10181   2.934   2.698   9.047  0.4542 -0.0668 -0.2875
  101OSM   H17S10182   2.849   2.625   9.042 -1.1281  1.7553 -0.6331
  101OSM   H17T10183   3.028   2.650   9.081  1.0835 -0.0056 -1.8666
  101OSM   C18S10184   2.945   2.763   8.908  0.1219 -1.0313  0.3452
  101OSM   H18S10185   2.851   2.818   8.886  2.1919  1.5951 -2.2975
  101OSM   H18T10186   2.966   2.694   8.823  1.7555 -0.8722  0.6133
  101OSM   H18U10187   3.024   2.840   8.897 -0.7068  0.5179  4.4223
  101OSM    C1F10188   2.556   3.024  10.526 -0.4779 -0.4317 -0.1906
  101OSM     OF10189   2.645   3.092  10.578 -0.4920 -0.3996  0.8928
  101OSM    C2F10190   2.429   3.082  10.464 -0.7499 -0.2090  1.0108
  101OSM    H2F10191   2.390   3.149  10.544 -0.6446  1.1785 -0.0943
  101OSM    H2G10192   2.368   2.996  10.429  1.4704 -1.0052 -1.0231
  101OSM    C3F10193   2.465   3.166  10.341 -0.0232  1.3617  0.3642
  101OSM    H3F10194   2.544   3.243  10.353  0.6382  0.6325  0.7562
  101OSM    H3G10195   2.370   3.218  10.320  0.3454  1.4650 -1.1242
  101OSM    C4F10196   2.513   3.085  10.217  0.2204  0.1017  0.3725
  101OSM    H4F10197   2.442   3.003  10.192 -2.3208  1.9730  1.3137
  101OSM    H4G10198   2.622   3.063  10.228 -0.0075 -2.2257 -1.5585
  101OSM    C5F10199   2.504   3.181  10.090  0.3514  0.2260 -0.3211
  101OSM    H5F10200   2.580   3.256  10.120  2.8018 -2.5232  0.6395
  101OSM    H5G10201   2.405   3.228  10.076 -0.4923 -1.8099 -1.3882
  101OSM    C6F10202   2.562   3.116   9.967 -0.0844  0.8077  0.3483
  101OSM    H6F10203   2.671   3.093   9.975 -0.5561 -1.8863 -0.5567
  101OSM    H6G10204   2.519   3.016   9.945  0.3031  0.7342 -0.0919
  101OSM    C7F10205   2.547   3.206   9.838 -0.0809 -0.1412  0.1888
  101OSM    H7F10206   2.618   3.174   9.759 -0.3729 -1.5739  0.4904
  101OSM    H7G10207   2.574   3.307   9.876  2.4802 -1.2460  1.3610
  101OSM    C8F10208   2.401   3.187   9.782  0.4087 -0.6868  0.5230
  101OSM    H8F10209   2.330   3.220   9.860  0.4007  2.7508 -0.8605
  101OSM    H8G10210   2.390   3.077   9.768  2.1811 -0.8433  0.1387
  101OSM    C9F10211   2.392   3.264   9.653 -0.5293 -0.4564 -0.6047
  101OSM    H9F10212   2.351   3.366   9.658 -1.0121 -0.6636 -0.3802
  101OSM   C10F10213   2.423   3.227   9.528  0.5832 -0.0237  0.0014
  101OSM   H10F10214   2.427   3.306   9.452  0.5261 -2.7299 -2.9447
  101OSM   C11F10215   2.456   3.081   9.492 -0.6221  0.3558 -0.5683
  101OSM   H11F10216   2.438   3.018   9.582 -0.0385  1.1842  0.1419
  101OSM   H11G10217   2.561   3.054   9.467 -0.3357  0.5050  0.4602
  101OSM   C12F10218   2.383   3.036   9.362  0.1741  1.4324 -0.6078
  101OSM   H12F10219   2.279   3.072   9.372 -0.5179 -0.4298 -1.0055
  101OSM   H12G10220   2.383   2.925   9.354  1.8588  1.2906  0.9422
  101OSM   C13F10221   2.443   3.094   9.236  0.6250  0.0703  0.6647
  101OSM   H13F10222   2.552   3.071   9.233  0.7504  0.8694 -4.1913
  101OSM   H13G10223   2.418   3.202   9.233 -0.0671 -0.1202 -0.5324
  101OSM   C14F10224   2.381   3.025   9.106  0.2391 -0.4107 -1.2050
  101OSM   H14F10225   2.273   3.050   9.097  0.5085  2.1523  1.7973
  101OSM   H14G10226   2.392   2.917   9.127 -1.9513 -0.0542  2.0674
  101OSM   C15F10227   2.456   3.064   8.981 -0.2034  0.3839  0.7112
  101OSM   H15F10228   2.555   3.020   9.003 -0.0606  0.1788 -0.3280
  101OSM   H15G10229   2.455   3.175   8.968  0.8867  0.2742 -0.3976
  101OSM   C16F10230   2.388   2.982   8.870 -0.0808 -0.3254 -0.1886
  101OSM   H16F10231   2.282   3.005   8.849 -0.1007 -0.3325 -0.0924
  101OSM   H16G10232   2.389   2.873   8.893  3.3319 -0.7953 -2.1187
  101OSM   C17F10233   2.474   2.983   8.741  0.1606  0.2537  0.1780
  101OSM   H17F10234   2.474   2.881   8.696 -2.8513 -0.4233  1.5879
  101OSM   H17G10235   2.579   2.997   8.773 -0.9317  2.2803  3.1384
  101OSM   C18F10236   2.439   3.088   8.631  0.6566  0.7002  0.5500
  101OSM   H18F10237   2.355   3.050   8.569 -0.1813  0.3577  1.8582
  101OSM   H18G10238   2.524   3.110   8.563  0.7005 -0.4610  0.2201
  101OSM   H18H10239   2.411   3.187   8.673 -1.5358  1.0519 -1.6574
  102OSM      N10240   5.342   5.544  10.899  0.0115 -0.4387  0.2229
  102OSM    C1510241   5.328   5.560  11.048 -0.1234  0.1656 -0.1727
  102OSM   H15A10242   5.412   5.528  11.108 -2.1233  1.0234  3.2324
  102OSM   H15B10243   5.250   5.492  11.078  1.3748 -1.9244 -0.9329
  102OSM   H15C10244   5.316   5.665  11.072  2.8530  0.1980  1.4745
  102OSM    C1410245   5.419   5.653  10.842 -0.1397 -0.8725 -0.0128
  102OSM   H14A10246   5.433   5.633  10.737 -1.9206 -0.1008 -0.4117
  102OSM   H14B10247   5.520   5.654  10.881 -0.3189 -1.7075  0.4827
  102OSM   H14C10248   5.371   5.749  10.851  1.2522 -0.0552 -1.0042
  102OSM    C1310249   5.398   5.412  10.865 -0.1953 -0.2269 -0.0348
  102OSM   H13A10250   5.386   5.398  10.759 -1.2800  0.4766 -0.0211
  102OSM   H13B10251   5.348   5.329  10.914  0.6088 -0.2909  0.6868
  102OSM   H13C10252   5.503   5.410  10.888 -0.5991  1.0128  2.0172
  102OSM    C1210253   5.202   5.559  10.841  0.1734  0.7674 -0.1301
  102OSM   H12A10254   5.170   5.660  10.861  0.6522  0.9756 -0.3910
  102OSM   H12B10255   5.139   5.488  10.893  0.4143  0.3208 -0.4392
  102OSM    C1110256   5.195   5.541  10.690  0.7421 -1.0113  0.4008
  102OSM   H11A10257   5.275   5.583  10.626 -1.4099  0.0240 -1.7179
  102OSM   H11B10258   5.105   5.596  10.655  0.8476 -1.4310 -0.5380
  102OSM      P10259   5.061   5.307  10.690 -0.0432 -0.3355 -0.4107
  102OSM    O1310260   5.107   5.168  10.698  0.0455 -0.1764  0.2821
  102OSM    O1410261   4.978   5.364  10.798  0.0131  0.3779 -0.0164
  102OSM    O1110262   4.974   5.313  10.560  0.0236  0.1748  0.4602
  102OSM    O1210263   5.194   5.397  10.664  0.2390 -0.6235 -0.3997
  102OSM    C1S10264   5.000   5.407  10.459  0.6565 -0.5511 -0.1297
  102OSM    H1S10265   5.107   5.395  10.432  1.0442  1.1946  0.6072
  102OSM    H1T10266   4.972   5.509  10.494 -2.6588 -0.9211 -1.5191
  102OSM     NF10267   4.971   5.438  10.212  0.3081 -0.6623 -0.4166
  102OSM    HNF10268   4.940   5.532  10.198 -1.1869 -1.1568 -0.5880
  102OSM    C2S10269   4.915   5.373  10.332 -0.6232  0.4893 -0.2796
  102OSM    H2S10270   4.918   5.265  10.307 -0.9580  0.2075  0.8864
  102OSM    C3S10271   4.762   5.407  10.365 -0.4728  0.3081  0.7319
  102OSM    H3S10272   4.757   5.513  10.397  2.9315  0.6053  0.5057
  102OSM     O310273   4.712   5.326  10.468  0.1681  0.3760  0.3247
  102OSM    HO310274   4.794   5.316  10.517  1.0024 -1.2282 -1.3233
  102OSM    C4S10275   4.676   5.387  10.245  0.3197 -0.7134 -0.2772
  102OSM    H4S10276   4.666   5.279  10.227 -1.2810 -0.6636  0.2406
  102OSM    C5S10277   4.608   5.477  10.175 -0.1722  0.4310  0.4018
  102OSM    H5S10278   4.586   5.578  10.214 -0.4285 -0.3806  2.4001
  102OSM    C6S10279   4.516   5.431  10.062  0.5901 -0.2572 -0.0295
  102OSM    H6S10280   4.412   5.457  10.090  1.3354  2.2823  0.5193
  102OSM    H6T10281   4.501   5.321  10.054 -0.6150 -0.1346  0.4747
  102OSM    C7S10282   4.557   5.498   9.931 -0.4293  0.0009 -0.3243
  102OSM    H7S10283   4.660   5.460   9.910 -1.1794 -2.3591  0.1386
  102OSM    H7T10284   4.560   5.608   9.947 -1.1262  0.0556 -0.5545
  102OSM    C8S10285   4.466   5.465   9.815 -0.1412 -0.5598  0.2619
  102OSM    H8S10286   4.370   5.514   9.841  0.4460 -0.4904  2.3930
  102OSM    H8T10287   4.447   5.356   9.804  0.5757 -0.7013  0.3521
  102OSM    C9S10288   4.520   5.523   9.679  0.4599 -0.2641  0.1791
  102OSM    H9S10289   4.622   5.482   9.665 -1.5483 -4.0701 -4.8815
  102OSM    H9T10290   4.535   5.633   9.688  0.1221 -0.2309  0.3631
  102OSM   C10S10291   4.432   5.499   9.555  1.0074  0.1592  0.0798
  102OSM   H10S10292   4.327   5.523   9.582  0.8717  0.5555 -0.8016
  102OSM   H10T10293   4.443   5.393   9.522 -1.4771 -0.0197 -0.2916
  102OSM   C11S10294   4.463   5.588   9.433  1.1434 -0.9094  0.2867
  102OSM   H11S10295   4.571   5.583   9.409  1.0654 -0.8805 -0.0708
  102OSM   H11T10296   4.449   5.694   9.464  2.0285 -0.7192  0.0454
  102OSM   C12S10297   4.371   5.546   9.321 -0.0571  0.0839  0.1789
  102OSM   H12S10298   4.266   5.558   9.357 -0.9608  0.0114 -2.2940
  102OSM   H12T10299   4.381   5.437   9.302 -1.0752  0.1700 -0.9067
  102OSM   C13S10300   4.394   5.622   9.190 -0.2996  0.1809  0.2953
  102OSM   H13S10301   4.351   5.562   9.107 -0.6780  0.1730  0.4932
  102OSM   H13T10302   4.504   5.633   9.178 -0.4042  0.4632 -0.3947
  102OSM   C14S10303   4.322   5.760   9.193 -1.0884  0.3341 -0.9155
  102OSM   H14S10304   4.387   5.831   9.249 -1.3543  0.1609 -0.3828
  102OSM   H14T10305   4.222   5.747   9.239 -0.1966 -0.7324  0.7894
  102OSM   C15S10306   4.291   5.822   9.051 -0.3052  0.1356 -0.4408
  102OSM   H15S10307   4.382   5.811   8.989 -0.0201  0.5469 -0.0929
  102OSM   H15T10308   4.261   5.927   9.067 -0.3923 -0.0469  0.5730
  102OSM   C16S10309   4.163   5.761   9.000  0.1055  0.1076  0.6963
  102OSM   H16S10310   4.078   5.776   9.071 -0.1524  0.4615  0.3186
  102OSM   H16T10311   4.175   5.652   8.989  0.2834  0.4102 -2.9036
  102OSM   C17S10312   4.121   5.809   8.859  0.1447 -0.3152 -0.3844
  102OSM   H17S10313   4.211   5.787   8.798  1.1608  1.9178  0.2250
  102OSM   H17T10314   4.097   5.918   8.852  1.8000  0.0267 -0.9883
  102OSM   C18S10315   4.009   5.727   8.794 -0.0253 -0.1504  0.2593
  102OSM   H18S10316   4.020   5.619   8.821 -0.8502 -0.2768  0.0961
  102OSM   H18T10317   4.011   5.725   8.682 -1.9309  2.0327  0.1605
  102OSM   H18U10318   3.907   5.767   8.808  0.1981  0.3908  0.3566
  102OSM    C1F10319   5.076   5.399  10.148  0.2046  0.0977 -0.6329
  102OSM     OF10320   5.121   5.283  10.158 -0.2040 -0.2429 -0.5710
  102OSM    C2F10321   5.134   5.501  10.059  0.6790  0.5930  0.1605
  102OSM    H2F10322   5.236   5.522  10.096 -0.1123 -1.5727  3.7274
  102OSM    H2G10323   5.070   5.592  10.071  0.3467  0.3258  0.4316
  102OSM    C3F10324   5.141   5.471   9.908  0.4186 -0.4114 -0.7896
  102OSM    H3F10325   5.217   5.392   9.891  0.0395 -0.8964 -0.2847
  102OSM    H3G10326   5.173   5.568   9.865  1.6183 -0.4174  0.0798
  102OSM    C4F10327   5.013   5.429   9.835  0.0743  0.2749  0.4391
  102OSM    H4F10328   4.936   5.509   9.841  1.2451  1.4533  0.0133
  102OSM    H4G10329   4.974   5.335   9.882  1.7433 -1.7412 -2.1200
  102OSM    C5F10330   5.051   5.394   9.695 -0.0946  0.1124  0.1417
  102OSM    H5F10331   5.122   5.308   9.694 -0.6401 -0.3470  0.6090
  102OSM    H5G10332   5.112   5.480   9.660  0.7643 -0.4679  0.1862
  102OSM    C6F10333   4.934   5.377   9.596 -0.5922 -0.0300  0.0064
  102OSM    H6F10334   4.847   5.446   9.605 -0.5323 -0.2182  2.6054
  102OSM    H6G10335   4.905   5.272   9.621  0.4628 -0.9036 -2.3705
  102OSM    C7F10336   4.979   5.387   9.450 -0.4110  0.1611  0.4301
  102OSM    H7F10337   5.081   5.343   9.449 -0.6595 -0.4098 -1.2800
  102OSM    H7G10338   5.001   5.489   9.412 -1.2340  0.9694  2.0864
  102OSM    C8F10339   4.894   5.309   9.357  0.4255  0.7667 -0.5443
  102OSM    H8F10340   4.792   5.353   9.347 -0.9718 -1.6957  1.9727
  102OSM    H8G10341   4.875   5.205   9.393 -1.3477  1.1894 -0.1915
  102OSM    C9F10342   4.956   5.292   9.217  0.1670  0.0701 -0.1823
  102OSM    H9F10343   5.054   5.242   9.218  0.3848  0.5169  1.1887
  102OSM   C10F10344   4.908   5.328   9.100  0.7701 -0.4978  0.3190
  102OSM   H10F10345   4.981   5.309   9.019  1.1303  0.8678  0.3037
  102OSM   C11F10346   4.782   5.397   9.065  0.3948 -0.2717 -0.1864
  102OSM   H11F10347   4.812   5.500   9.036  2.2165 -1.0913 -1.3044
  102OSM   H11G10348   4.713   5.398   9.153  1.9192  0.6685  1.0225
  102OSM   C12F10349   4.719   5.327   8.940  0.2065 -0.3051  0.1689
  102OSM   H12F10350   4.687   5.223   8.960  0.4626 -0.9893 -2.7870
  102OSM   H12G10351   4.796   5.317   8.861  1.3951  2.3946  0.9219
  102OSM   C13F10352   4.592   5.404   8.901 -0.1388 -0.3258 -0.1842
  102OSM   H13F10353   4.608   5.512   8.880 -1.4302  0.1283  1.0965
  102OSM   H13G10354   4.525   5.380   8.986  0.1802 -0.1535  0.1185
  102OSM   C14F10355   4.534   5.344   8.776  0.0424  0.1918 -0.3204
  102OSM   H14F10356   4.494   5.244   8.805 -0.0258  0.3592  0.1528
  102OSM   H14G10357   4.618   5.338   8.703  1.4705 -1.1241  1.3878
  102OSM   C15F10358   4.416   5.407   8.711  0.7791 -0.9163 -0.3165
  102OSM   H15F10359   4.455   5.497   8.659 -2.1369  0.5462 -0.0859
  102OSM   H15G10360   4.340   5.444   8.784  1.5130  0.0759 -0.0452
  102OSM   C16F10361   4.340   5.320   8.611 -0.6021  0.3052  0.7503
  102OSM   H16F10362   4.293   5.232   8.660 -1.0777 -0.0000 -0.2352
  102OSM   H16G10363   4.425   5.280   8.552  0.5147  0.5261  2.1816
  102OSM   C17F10364   4.249   5.396   8.516 -0.2043  0.0343  0.4480
  102OSM   H17F10365   4.218   5.334   8.429 -0.9011  1.9578 -0.7065
  102OSM   H17G10366   4.305   5.485   8.480 -1.3340  0.8487  0.6928
  102OSM   C18F10367   4.120   5.439   8.583  0.2794 -0.7674 -0.1957
  102OSM   H18F10368   4.138   5.509   8.668 -0.4736  1.1770 -1.6035
  102OSM   H18G10369   4.077   5.348   8.629 -0.2471 -0.1657  0.5169
  102OSM   H18H10370   4.050   5.489   8.513 -1.0236 -1.7284  0.4139
  103OSM      N10371   3.946   1.307  10.903  0.5287  0.3296  0.3534
  103OSM    C1510372   4.010   1.209  10.993  0.1602  0.1515  0.3180
  103OSM   H15A10373   4.071   1.140  10.937  0.5778  1.3668 -0.7135
  103OSM   H15B10374   3.936   1.139  11.031  0.0897  0.2587  0.3783
  103OSM   H15C10375   4.071   1.257  11.068 -1.3561  2.3887  0.1593
  103OSM    C1410376   3.884   1.405  10.998  0.4438 -0.1285  0.0021
  103OSM   H14A10377   3.856   1.500  10.954 -1.4282 -0.6982 -0.0779
  103OSM   H14B10378   3.954   1.427  11.077  0.5884 -0.7246  0.0403
  103OSM   H14C10379   3.793   1.366  11.040  0.9216 -2.0417 -0.7230
  103OSM    C1310380   4.050   1.375  10.820  0.0846  0.3531  0.2800
  103OSM   H13A10381   4.015   1.447  10.749 -0.3231 -0.7941 -0.6947
  103OSM   H13B10382   4.107   1.299  10.769  0.8874  0.6301  0.7386
  103OSM   H13C10383   4.123   1.434  10.875 -0.5212  0.0708  1.4138
  103OSM    C1210384   3.849   1.231  10.813  0.0532 -0.0605  0.8183
  103OSM   H12A10385   3.776   1.177  10.872 -1.7549 -1.3811 -2.4966
  103OSM   H12B10386   3.891   1.153  10.751 -3.6287  0.7691 -2.9459
  103OSM    C1110387   3.760   1.316  10.712 -0.2557  0.1630 -0.0982
  103OSM   H11A10388   3.695   1.250  10.650 -3.7453  2.7338  0.6524
  103OSM   H11B10389   3.827   1.366  10.639  1.5909 -1.8242  0.1729
  103OSM      P10390   3.546   1.407  10.826  0.0019  0.3777 -0.1773
  103OSM    O1310391   3.518   1.277  10.902 -0.3291 -0.0191  0.3249
  103OSM    O1410392   3.515   1.529  10.909  0.1684  0.2285 -0.2466
  103OSM    O1110393   3.473   1.403  10.685 -0.0341  0.0635 -1.1511
  103OSM    O1210394   3.690   1.416  10.778 -0.0950  0.3028  0.0159
  103OSM    C1S10395   3.475   1.511  10.593 -0.5281  0.4654 -0.5383
  103OSM    H1S10396   3.575   1.519  10.546  0.0495  0.6135  0.7022
  103OSM    H1T10397   3.450   1.610  10.636 -2.1365  0.6442 -1.8620
  103OSM     NF10398   3.378   1.584  10.375  0.3315  0.0612  0.0234
  103OSM    HNF10399   3.365   1.683  10.378  0.5739  0.1255 -1.0926
  103OSM    C2S10400   3.356   1.493  10.490 -0.3803 -0.0348 -0.0162
  103OSM    H2S10401   3.349   1.387  10.459 -0.6787 -0.2596  0.8171
  103OSM    C3S10402   3.224   1.525  10.568 -0.3481  0.3454  0.0873
  103OSM    H3S10403   3.237   1.620  10.625  0.8316  0.4073 -0.2874
  103OSM     O310404   3.187   1.439  10.675  0.2704  0.1936 -0.1212
  103OSM    HO310405   3.268   1.392  10.698  0.9242  0.6558 -1.4196
  103OSM    C4S10406   3.101   1.539  10.478  0.6353  0.5662 -0.2294
  103OSM    H4S10407   3.072   1.450  10.420 -3.0411  1.6361 -0.1196
  103OSM    C5S10408   3.027   1.649  10.462 -0.0028 -0.3181 -0.2584
  103OSM    H5S10409   3.044   1.748  10.506 -0.9146 -0.6494  0.8527
  103OSM    C6S10410   2.919   1.655  10.356  0.0458  0.7638  0.5336
  103OSM    H6S10411   2.834   1.708  10.405 -0.0227  0.0471  1.2075
  103OSM    H6T10412   2.881   1.555  10.325 -2.6117  1.8176  0.2501
  103OSM    C7S10413   2.988   1.712  10.223 -0.1325  0.4214 -0.4591
  103OSM    H7S10414   3.064   1.638  10.191 -0.0480 -0.3342  1.4024
  103OSM    H7T10415   3.027   1.812  10.252 -0.9058  0.5579  0.1404
  103OSM    C8S10416   2.883   1.727  10.109 -0.0916  0.9301  0.8801
  103OSM    H8S10417   2.797   1.784  10.150  0.7627  0.3337  3.5691
  103OSM    H8T10418   2.838   1.628  10.087  1.7704  0.5706 -1.6041
  103OSM    C9S10419   2.938   1.784   9.978 -0.6420  0.8874 -0.3546
  103OSM    H9S10420   3.032   1.739   9.940  0.1051  3.1397 -1.3000
  103OSM    H9T10421   2.968   1.889  10.003 -0.5453  0.2463  2.4268
  103OSM   C10S10422   2.826   1.794   9.872 -0.9023  0.1775 -0.1552
  103OSM   H10S10423   2.761   1.881   9.891  1.6796  1.8788  1.2253
  103OSM   H10T10424   2.759   1.706   9.862  2.0131 -2.2590  1.0245
  103OSM   C11S10425   2.905   1.835   9.745  0.4987 -0.0160  0.5282
  103OSM   H11S10426   3.002   1.781   9.737 -0.1755 -1.4175  1.5290
  103OSM   H11T10427   2.925   1.943   9.760  1.5328 -0.3648  1.6867
  103OSM   C12S10428   2.837   1.842   9.610  0.2779  0.0164 -1.1220
  103OSM   H12S10429   2.743   1.900   9.622  1.1267  1.6390 -2.1610
  103OSM   H12T10430   2.797   1.747   9.571  0.6293  0.0037 -1.4554
  103OSM   C13S10431   2.921   1.901   9.505 -0.2912  0.3124 -0.8086
  103OSM   H13S10432   3.000   1.830   9.473 -1.0442  0.4210 -2.9870
  103OSM   H13T10433   2.971   1.993   9.541 -0.3966 -1.3725  3.9249
  103OSM   C14S10434   2.843   1.933   9.378  0.4662  0.6646  0.5668
  103OSM   H14S10435   2.780   2.024   9.390 -1.0280 -0.4197  1.0938
  103OSM   H14T10436   2.774   1.858   9.334  0.8737  1.8351 -2.2031
  103OSM   C15S10437   2.931   1.963   9.255  0.5686  0.4232  0.5562
  103OSM   H15S10438   2.981   1.865   9.238  0.2443  0.6676 -2.0822
  103OSM   H15T10439   3.004   2.043   9.279  2.8023 -1.6304  0.7209
  103OSM   C16S10440   2.849   2.001   9.130 -0.2555  0.4450 -0.2620
  103OSM   H16S10441   2.930   2.041   9.065 -0.7674  0.0034 -1.1739
  103OSM   H16T10442   2.784   2.085   9.165  1.0636  1.4570 -0.1795
  103OSM   C17S10443   2.767   1.897   9.062 -0.1750  0.1924 -0.2786
  103OSM   H17S10444   2.664   1.909   9.103 -0.0603  0.5381 -0.0905
  103OSM   H17T10445   2.801   1.795   9.090  1.9156  1.0894  0.5812
  103OSM   C18S10446   2.764   1.916   8.916 -0.1663 -0.1847 -0.1573
  103OSM   H18S10447   2.869   1.910   8.881  0.4423 -0.1375  1.6516
  103OSM   H18T10448   2.721   2.015   8.889  0.3346  1.0322  3.3293
  103OSM   H18U10449   2.701   1.845   8.857 -2.7203  2.7174 -1.0962
  103OSM    C1F10450   3.469   1.542  10.287 -0.2915  0.2541 -1.3680
  103OSM     OF10451   3.480   1.419  10.277 -0.3995  0.0926  0.0093
  103OSM    C2F10452   3.551   1.642  10.214 -0.4552  0.5392  0.5866
  103OSM    H2F10453   3.616   1.704  10.279 -0.4100  0.8093  0.2847
  103OSM    H2G10454   3.480   1.717  10.174  1.3445  1.5301 -0.8352
  103OSM    C3F10455   3.625   1.584  10.088  0.0157  0.0094 -0.2972
  103OSM    H3F10456   3.571   1.493  10.056 -0.6195  0.4686 -0.5397
  103OSM    H3G10457   3.723   1.549  10.129 -0.2011  1.0374  1.1547
  103OSM    C4F10458   3.639   1.673   9.966 -0.4475 -0.0858 -0.2885
  103OSM    H4F10459   3.696   1.764   9.994  1.3776 -0.9931 -0.9644
  103OSM    H4G10460   3.537   1.696   9.927 -1.0366 -2.0943  0.0311
  103OSM    C5F10461   3.717   1.610   9.850 -0.3528 -0.2250  0.1802
  103OSM    H5F10462   3.675   1.517   9.805  2.0136 -0.6453 -1.2169
  103OSM    H5G10463   3.812   1.578   9.898  0.2225  0.7087 -0.3295
  103OSM    C6F10464   3.737   1.716   9.742  0.0984 -0.2725 -0.4229
  103OSM    H6F10465   3.800   1.797   9.784  2.9060 -1.2960 -2.5158
  103OSM    H6G10466   3.638   1.761   9.718  0.3188  1.1009  1.1767
  103OSM    C7F10467   3.806   1.662   9.613  0.2146  0.0633  0.8115
  103OSM    H7F10468   3.735   1.598   9.557  1.9042  0.1902 -1.5408
  103OSM    H7G10469   3.890   1.609   9.663  0.5239  1.0806  1.4105
  103OSM    C8F10470   3.855   1.781   9.538 -0.7530  0.2596  0.0394
  103OSM    H8F10471   3.933   1.742   9.469 -0.9097 -5.5784  2.8970
  103OSM    H8G10472   3.915   1.846   9.605 -0.8186 -1.7123  2.0400
  103OSM    C9F10473   3.742   1.853   9.466 -0.0894  0.1117 -0.1329
  103OSM    H9F10474   3.665   1.894   9.532  1.9079  0.4951  2.0101
  103OSM   C10F10475   3.743   1.876   9.333 -0.0230 -0.2834 -1.0516
  103OSM   H10F10476   3.661   1.926   9.280 -0.2229  1.1695  0.5559
  103OSM   C11F10477   3.848   1.822   9.235 -0.4052 -0.4466 -0.4077
  103OSM   H11F10478   3.856   1.712   9.246 -2.5847 -0.6187 -0.2420
  103OSM   H11G10479   3.951   1.861   9.246 -0.7791  1.2927 -2.6112
  103OSM   C12F10480   3.806   1.845   9.084 -0.1099 -0.0939 -0.2597
  103OSM   H12F10481   3.813   1.950   9.048 -0.1487 -0.5863 -1.6982
  103OSM   H12G10482   3.701   1.821   9.055 -0.0651 -0.7884  0.1375
  103OSM   C13F10483   3.883   1.784   8.966 -0.3318 -0.3501 -0.1556
  103OSM   H13F10484   3.863   1.675   8.954 -0.9035 -0.6457  3.0732
  103OSM   H13G10485   3.993   1.786   8.978 -0.0521 -3.2554 -1.8259
  103OSM   C14F10486   3.836   1.854   8.834 -0.5743  0.1946 -0.0379
  103OSM   H14F10487   3.905   1.812   8.758 -0.7069 -0.2788  0.1053
  103OSM   H14G10488   3.860   1.963   8.838 -0.7441  0.1717  1.8238
  103OSM   C15F10489   3.697   1.812   8.783  0.1338 -0.2945 -0.1959
  103OSM   H15F10490   3.621   1.847   8.857 -0.0264 -0.3614 -0.3301
  103OSM   H15G10491   3.689   1.702   8.782  2.1315 -0.4589 -1.9434
  103OSM   C16F10492   3.665   1.852   8.640 -0.4672  0.0899 -0.3159
  103OSM   H16F10493   3.761   1.867   8.586  0.2503 -2.9132  0.0548
  103OSM   H16G10494   3.597   1.939   8.651 -0.6129 -0.1825  1.0521
  103OSM   C17F10495   3.581   1.754   8.551  0.1159 -0.3923  0.6110
  103OSM   H17F10496   3.563   1.808   8.456 -1.1995 -0.0054  1.0682
  103OSM   H17G10497   3.488   1.719   8.601 -0.8023 -1.4670 -1.7710
  103OSM   C18F10498   3.663   1.640   8.503  0.4659 -0.2924 -0.0241
  103OSM   H18F10499   3.759   1.665   8.453 -0.5574  0.2973 -1.7462
  103OSM   H18G10500   3.606   1.584   8.425 -0.0271  0.8758 -0.5175
  103OSM   H18H10501   3.702   1.581   8.589  0.1937  1.0719  1.0484
  104OSM      N10502   4.787   1.008  10.943 -0.2330  0.6750 -0.2838
  104OSM    C1510503   4.739   1.113  11.039  0.0009 -1.2244 -0.2659
  104OSM   H15A10504   4.739   1.216  11.007  1.0275 -0.8083  1.0212
  104OSM   H15B10505   4.809   1.120  11.121 -2.4253 -2.8075  2.0252
  104OSM   H15C10506   4.649   1.084  11.091  0.7427 -1.1164  1.1236
  104OSM    C1410507   4.918   1.053  10.900 -0.1761  0.1055  0.4972
  104OSM   H14A10508   4.921   1.148  10.848  0.2157  0.6451  1.4940
  104OSM   H14B10509   4.966   0.974  10.844  0.0053 -0.4918  1.4797
  104OSM   H14C10510   4.970   1.071  10.993 -2.1996  0.0443  1.6769
  104OSM    C1310511   4.813   0.868  11.004 -0.5142 -0.4612  0.0577
  104OSM   H13A10512   4.882   0.882  11.085  1.7342  1.2337 -2.0845
  104OSM   H13B10513   4.854   0.797  10.933  1.0033 -0.0860  0.5430
  104OSM   H13C10514   4.722   0.822  11.040  0.1315 -0.5757  1.5682
  104OSM    C1210515   4.689   1.004  10.824  0.3734  0.0596  0.0894
  104OSM   H12A10516   4.725   0.918  10.769 -1.3726  0.7901 -2.2452
  104OSM   H12B10517   4.704   1.091  10.763 -3.6858  1.3753  0.8370
  104OSM    C1110518   4.538   0.977  10.840 -0.5448  0.4703  0.0985
  104OSM   H11A10519   4.492   0.998  10.741  0.3966 -0.0119 -0.4464
  104OSM   H11B10520   4.498   1.052  10.912  0.1825 -0.6448  1.6925
  104OSM      P10521   4.518   0.728  10.773 -0.1784  0.1140  0.2306
  104OSM    O1310522   4.585   0.615  10.846  0.3195  0.1619  0.3198
  104OSM    O1410523   4.377   0.702  10.724  0.3361  0.2054 -0.3119
  104OSM    O1110524   4.603   0.784  10.648 -0.7656 -0.0164 -0.4510
  104OSM    O1210525   4.517   0.847  10.879 -0.0186  0.0643 -0.1766
  104OSM    C1S10526   4.536   0.821  10.528 -0.0472 -0.2348 -0.0987
  104OSM    H1S10527   4.479   0.917  10.527  1.4470  0.6638 -0.2538
  104OSM    H1T10528   4.455   0.746  10.511  0.2614 -0.8260  0.9994
  104OSM     NF10529   4.561   0.879  10.279  0.0734 -0.0005 -0.0185
  104OSM    HNF10530   4.560   0.818  10.201  3.9643  1.4315 -1.3162
  104OSM    C2S10531   4.633   0.839  10.399  0.0734  0.0404  0.5396
  104OSM    H2S10532   4.703   0.923  10.420  1.3934 -0.5221 -1.4027
  104OSM    C3S10533   4.719   0.715  10.375 -0.7327 -0.3603  0.1747
  104OSM    H3S10534   4.652   0.637  10.332  0.6675  0.7353 -4.3458
  104OSM     O310535   4.779   0.661  10.494 -0.5979 -0.0476  0.4542
  104OSM    HO310536   4.720   0.690  10.564 -1.4467  1.3558 -0.8270
  104OSM    C4S10537   4.828   0.740  10.272  0.0869 -0.2959 -0.1325
  104OSM    H4S10538   4.792   0.719  10.170 -1.6380  1.2676  0.1378
  104OSM    C5S10539   4.956   0.784  10.286  1.2523  0.0954  0.1297
  104OSM    H5S10540   4.995   0.810  10.386  0.8131 -1.6450  0.7660
  104OSM    C6S10541   5.060   0.801  10.179  0.9395 -0.5209 -0.2875
  104OSM    H6S10542   5.159   0.756  10.199  2.0058  0.1211 -3.7322
  104OSM    H6T10543   5.093   0.907  10.173  0.4298 -0.2940  0.7772
  104OSM    C7S10544   5.026   0.740  10.036 -0.3413 -0.3610  0.1637
  104OSM    H7S10545   4.943   0.809  10.006 -0.9150 -0.1154  2.2313
  104OSM    H7T10546   4.983   0.638  10.049 -1.3223  0.0606  0.3412
  104OSM    C8S10547   5.128   0.740   9.929  0.0281  0.6378  0.0844
  104OSM    H8S10548   5.217   0.691   9.974  1.5419  2.8181 -0.4691
  104OSM    H8T10549   5.160   0.838   9.890 -1.6676  1.1695 -0.0291
  104OSM    C9S10550   5.078   0.654   9.809 -0.7968 -0.5121 -0.5476
  104OSM    H9S10551   5.006   0.721   9.759  0.1732 -0.3538 -1.7504
  104OSM    H9T10552   5.024   0.564   9.847 -3.3033  0.8676 -0.7761
  104OSM   C10S10553   5.184   0.611   9.706  0.2854 -0.4856 -0.0233
  104OSM   H10S10554   5.277   0.567   9.749  1.3511  1.2098 -0.5389
  104OSM   H10T10555   5.208   0.705   9.653  1.4717 -1.3811 -1.1180
  104OSM   C11S10556   5.126   0.513   9.602 -0.5860  0.4235 -0.1106
  104OSM   H11S10557   5.040   0.453   9.637 -0.2777 -0.0676 -0.1926
  104OSM   H11T10558   5.208   0.445   9.571 -0.8512  0.6257 -1.2869
  104OSM   C12S10559   5.093   0.569   9.464  0.4420  0.2428  0.8857
  104OSM   H12S10560   5.182   0.620   9.422 -0.6948  0.3503 -1.4812
  104OSM   H12T10561   5.008   0.639   9.470  0.6274  0.4898  0.6625
  104OSM   C13S10562   5.055   0.458   9.363 -0.1043 -0.2784 -0.0009
  104OSM   H13S10563   4.957   0.417   9.395 -0.1111  0.3308  0.7801
  104OSM   H13T10564   5.128   0.375   9.361  0.1669 -0.0392 -0.0915
  104OSM   C14S10565   5.038   0.521   9.214 -0.7781 -0.1983 -0.3214
  104OSM   H14S10566   5.139   0.556   9.184 -1.4171  2.4663  0.5403
  104OSM   H14T10567   4.967   0.606   9.224  0.1391  0.3996  1.3095
  104OSM   C15S10568   4.992   0.420   9.109  0.0476 -0.2944 -0.5279
  104OSM   H15S10569   4.907   0.361   9.150 -0.2654  1.2543  1.1208
  104OSM   H15T10570   5.073   0.345   9.094  0.9307  0.9398 -2.0890
  104OSM   C16S10571   4.967   0.484   8.978 -0.2027  0.6947  0.3423
  104OSM   H16S10572   5.043   0.561   8.951 -0.9110  0.5513 -2.1342
  104OSM   H16T10573   4.877   0.549   8.978  0.7429  2.1971  5.0881
  104OSM   C17S10574   4.948   0.379   8.865  0.1585 -0.3770 -0.1189
  104OSM   H17S10575   4.863   0.314   8.894 -2.0178  2.5219  0.2573
  104OSM   H17T10576   5.046   0.327   8.857  0.3000 -0.5602  2.4201
  104OSM   C18S10577   4.905   0.437   8.728 -0.3583 -0.0930 -0.2258
  104OSM   H18S10578   4.823   0.511   8.742 -1.3663 -1.3018  0.4480
  104OSM   H18T10579   4.868   0.353   8.665  1.6537 -0.1385 -1.3793
  104OSM   H18U10580   4.994   0.486   8.684  0.5321 -0.7708  0.7733
  104OSM    C1F10581   4.498   0.988  10.259 -0.7264  0.0772 -0.2127
  104OSM     OF10582   4.518   1.084  10.326  0.1411  0.4422  0.0602
  104OSM    C2F10583   4.400   0.983  10.146 -0.0469 -0.0471 -0.0240
  104OSM    H2F10584   4.299   0.948  10.176 -1.0329 -0.0403 -3.1286
  104OSM    H2G10585   4.430   0.902  10.075  2.0120  2.6287 -2.3347
  104OSM    C3F10586   4.391   1.124  10.077 -0.7656  0.2221 -0.3161
  104OSM    H3F10587   4.496   1.162  10.076 -0.9731  0.7964 -1.5361
  104OSM    H3G10588   4.327   1.185  10.145 -0.2594  0.5318 -0.1129
  104OSM    C4F10589   4.341   1.126   9.932 -0.1358  0.4613 -0.0440
  104OSM    H4F10590   4.239   1.082   9.936 -0.1478  0.5483  0.6661
  104OSM    H4G10591   4.403   1.055   9.873 -0.2478  1.4394 -1.3799
  104OSM    C5F10592   4.351   1.269   9.871 -0.0992 -0.1382 -0.7346
  104OSM    H5F10593   4.447   1.316   9.902 -0.8759  1.0760 -0.1107
  104OSM    H5G10594   4.272   1.329   9.923 -1.0989 -2.2737  0.3076
  104OSM    C6F10595   4.326   1.287   9.717 -0.4480  0.8395  0.5402
  104OSM    H6F10596   4.416   1.255   9.661 -0.2300 -1.8421  2.3251
  104OSM    H6G10597   4.302   1.391   9.688 -1.0151  0.2507 -1.1759
  104OSM    C7F10598   4.218   1.201   9.662  0.3375  0.2162  0.1191
  104OSM    H7F10599   4.131   1.217   9.729  0.0689 -1.2594  0.1350
  104OSM    H7G10600   4.233   1.091   9.663  0.0641  0.1804  0.4348
  104OSM    C8F10601   4.180   1.238   9.519 -0.0580  0.4507  0.1331
  104OSM    H8F10602   4.132   1.149   9.473  0.5518  2.0297 -3.7782
  104OSM    H8G10603   4.271   1.256   9.458  0.9446  1.6019  1.9152
  104OSM    C9F10604   4.077   1.345   9.503  0.3302 -0.2501 -0.1891
  104OSM    H9F10605   4.013   1.368   9.589 -0.1368 -0.5138 -0.4631
  104OSM   C10F10606   4.065   1.430   9.392  0.2168  0.2243  0.5567
  104OSM   H10F10607   4.002   1.519   9.401  0.0365  0.1509  0.0203
  104OSM   C11F10608   4.155   1.423   9.271 -0.5302  0.1931 -0.8411
  104OSM   H11F10609   4.224   1.335   9.270  0.7095  1.1404  0.0361
  104OSM   H11G10610   4.225   1.509   9.276 -0.1510 -0.1247 -0.6339
  104OSM   C12F10611   4.095   1.415   9.125 -0.6641  0.5989 -0.4745
  104OSM   H12F10612   4.029   1.493   9.082 -0.3419 -0.2107 -2.4818
  104OSM   H12G10613   4.040   1.319   9.126  0.3782 -0.0011  1.4369
  104OSM   C13F10614   4.201   1.400   9.018 -0.2034 -0.5639  0.6780
  104OSM   H13F10615   4.268   1.313   9.036  0.5479 -0.2626 -0.5782
  104OSM   H13G10616   4.265   1.490   9.028  1.7298 -1.6119 -1.6398
  104OSM   C14F10617   4.144   1.392   8.877  0.6023 -0.0666 -0.7016
  104OSM   H14F10618   4.233   1.361   8.818  1.4562  0.8273  0.1138
  104OSM   H14G10619   4.104   1.487   8.837 -0.3128  1.0477  2.7701
  104OSM   C15F10620   4.032   1.290   8.861  0.0026  0.0523  0.0820
  104OSM   H15F10621   3.976   1.306   8.766 -1.0646 -1.4523  0.4276
  104OSM   H15G10622   3.956   1.298   8.942  0.1579 -0.8291  0.3253
  104OSM   C16F10623   4.069   1.141   8.866 -0.2230 -0.5691  0.1517
  104OSM   H16F10624   4.116   1.122   8.965 -0.6756 -0.3321  0.4144
  104OSM   H16G10625   4.146   1.118   8.789 -0.3132 -1.6499  0.3910
  104OSM   C17F10626   3.945   1.058   8.848  0.2579  0.6077  0.2402
  104OSM   H17F10627   3.893   1.098   8.759  2.7430 -0.7814 -1.9081
  104OSM   H17G10628   3.873   1.078   8.930 -1.2554  1.8414 -1.3540
  104OSM   C18F10629   3.973   0.912   8.831 -0.1855 -0.3601  0.6757
  104OSM   H18F10630   4.065   0.908   8.769  0.1291 -1.7581  1.2084
  104OSM   H18G10631   3.891   0.862   8.775 -0.4312  1.1883 -0.3641
  104OSM   H18H10632   3.993   0.866   8.931 -0.9909  0.4469  1.2218
  105OSM      N10633   1.575   3.642  10.788 -0.2136 -0.4556 -0.4355
  105OSM    C1510634   1.627   3.734  10.904  0.3371 -0.5106  0.1077
  105OSM   H15A10635   1.549   3.768  10.971  2.1762 -1.4889  2.7963
  105OSM   H15B10636   1.678   3.812  10.848 -1.8097  0.6671 -0.2714
  105OSM   H15C10637   1.690   3.676  10.969 -1.0414 -1.5904  0.4893
  105OSM    C1410638   1.485   3.542  10.837 -0.2019  0.1209  0.5279
  105OSM   H14A10639   1.416   3.592  10.903 -1.1718 -0.7436  0.1946
  105OSM   H14B10640   1.538   3.466  10.892 -0.5569 -1.3932 -1.1770
  105OSM   H14C10641   1.418   3.497  10.765  0.6897  0.0970 -0.2944
  105OSM    C1310642   1.497   3.729  10.694 -0.0207 -0.4750  0.1636
  105OSM   H13A10643   1.545   3.826  10.697 -0.0537 -0.4951  1.6438
  105OSM   H13B10644   1.395   3.747  10.724 -0.1462 -0.1033 -0.4847
  105OSM   H13C10645   1.498   3.690  10.593  1.1809  3.5592 -1.4808
  105OSM    C1210646   1.684   3.569  10.712  0.0872 -0.2959 -0.0703
  105OSM   H12A10647   1.734   3.644  10.652  2.8195 -0.9698  1.2439
  105OSM   H12B10648   1.639   3.502  10.640  1.6894  0.1640 -1.5639
  105OSM    C1110649   1.788   3.500  10.800 -0.1868 -0.1197 -0.2782
  105OSM   H11A10650   1.836   3.577  10.863 -1.0941 -2.2951  3.1986
  105OSM   H11B10651   1.874   3.463  10.740  0.1747  0.8987 -0.3920
  105OSM      P10652   1.704   3.253  10.842  0.3235 -0.2620 -0.1140
  105OSM    O1310653   1.821   3.183  10.881 -0.2118 -0.3715 -0.7012
  105OSM    O1410654   1.572   3.202  10.898  0.0299 -0.1710  0.4051
  105OSM    O1110655   1.697   3.262  10.685  0.5090 -0.2747 -0.0173
  105OSM    O1210656   1.730   3.402  10.877 -0.4949  0.4157  1.0753
  105OSM    C1S10657   1.573   3.246  10.613 -0.4215 -0.1832  0.2323
  105OSM    H1S10658   1.493   3.310  10.656 -0.6715  0.0278 -0.5323
  105OSM    H1T10659   1.530   3.144  10.625  1.1761 -1.0237 -1.0493
  105OSM     NF10660   1.461   3.317  10.400 -0.5281  0.1323  0.4581
  105OSM    HNF10661   1.396   3.260  10.349  0.1380  0.2527 -0.5423
  105OSM    C2S10662   1.588   3.268  10.461 -0.2422 -0.3192 -0.2138
  105OSM    H2S10663   1.667   3.341  10.436  2.5702 -2.6053  1.7549
  105OSM    C3S10664   1.639   3.144  10.398  0.1160  0.3676  1.0150
  105OSM    H3S10665   1.565   3.062  10.412 -1.0918  1.0589 -1.1081
  105OSM     O310666   1.762   3.100  10.451 -0.3964 -0.1580 -0.3373
  105OSM    HO310667   1.793   3.166  10.514 -0.1614 -0.1565 -0.4537
  105OSM    C4S10668   1.660   3.149  10.249  0.3973  0.0621  0.4615
  105OSM    H4S10669   1.582   3.102  10.187  0.3070  0.2689  0.4191
  105OSM    C5S10670   1.765   3.198  10.180  0.2936 -0.9416 -0.1979
  105OSM    H5S10671   1.850   3.234  10.240  0.2089  0.6890 -1.0176
  105OSM    C6S10672   1.779   3.201  10.030 -0.0170  0.5420  0.2081
  105OSM    H6S10673   1.851   3.122  10.002 -0.9348 -0.2153 -0.0441
  105OSM    H6T10674   1.825   3.298  10.001 -0.5220  0.4256 -1.0136
  105OSM    C7S10675   1.658   3.162   9.947  0.1643  0.5395 -0.1510
  105OSM    H7S10676   1.572   3.227   9.971 -1.2005 -1.3430  0.1297
  105OSM    H7T10677   1.629   3.061   9.982  0.5215  0.0806 -1.1466
  105OSM    C8S10678   1.695   3.159   9.796  0.1224  0.8185  0.0841
  105OSM    H8S10679   1.773   3.085   9.771  0.5263  1.3026 -0.0999
  105OSM    H8T10680   1.739   3.260   9.780 -0.8903  1.1151 -0.9213
  105OSM    C9S10681   1.575   3.153   9.712 -0.0778  0.5459 -0.6262
  105OSM    H9S10682   1.504   3.226   9.757 -0.1342 -0.1503  0.4100
  105OSM    H9T10683   1.533   3.051   9.717  3.2662 -0.9056 -0.4652
  105OSM   C10S10684   1.609   3.202   9.570 -0.5356 -0.4655  0.3712
  105OSM   H10S10685   1.700   3.152   9.531  0.2937 -1.2285  3.1782
  105OSM   H10T10686   1.632   3.310   9.581  0.8580 -0.7415  0.2231
  105OSM   C11S10687   1.503   3.200   9.462  0.4834 -0.4017  0.4222
  105OSM   H11S10688   1.416   3.262   9.493  1.5720  2.4097 -1.9128
  105OSM   H11T10689   1.472   3.095   9.441 -0.4605 -0.4381  1.8785
  105OSM   C12S10690   1.544   3.254   9.324  0.1646 -0.4198  0.0045
  105OSM   H12S10691   1.464   3.225   9.254 -0.5814  2.3244 -0.3592
  105OSM   H12T10692   1.642   3.221   9.283  0.2833  2.6879 -2.3609
  105OSM   C13S10693   1.538   3.406   9.323 -0.1011  0.4779 -0.2957
  105OSM   H13S10694   1.638   3.446   9.348 -0.0270 -0.0423  0.2312
  105OSM   H13T10695   1.461   3.445   9.393 -0.4667 -0.7712  0.0060
  105OSM   C14S10696   1.498   3.467   9.187 -0.4222  0.1502 -1.1030
  105OSM   H14S10697   1.542   3.397   9.112  2.9624  0.3071  0.6559
  105OSM   H14T10698   1.544   3.568   9.186 -0.0613  0.0165  0.5468
  105OSM   C15S10699   1.341   3.498   9.172 -0.4213  0.2645  0.1592
  105OSM   H15S10700   1.324   3.584   9.240  0.6117 -0.3913  1.2748
  105OSM   H15T10701   1.292   3.416   9.228  0.8167 -1.8683 -1.8233
  105OSM   C16S10702   1.305   3.525   9.028  0.0201 -0.4972 -0.0765
  105OSM   H16S10703   1.196   3.549   9.027  0.1668  0.1370 -0.9237
  105OSM   H16T10704   1.319   3.428   8.974  0.3669 -0.7917  0.5395
  105OSM   C17S10705   1.387   3.638   8.968 -0.1522  0.6881 -0.8078
  105OSM   H17S10706   1.493   3.613   8.989 -1.2714 -2.3927  1.4165
  105OSM   H17T10707   1.356   3.722   9.035  0.7389 -2.0956  3.2705
  105OSM   C18S10708   1.359   3.666   8.821  0.2156 -0.3265 -0.0381
  105OSM   H18S10709   1.256   3.636   8.796  0.5539 -0.6931 -0.9939
  105OSM   H18T10710   1.428   3.608   8.757 -0.5644 -0.7312 -0.5192
  105OSM   H18U10711   1.379   3.773   8.798 -3.5483  0.3779 -0.2623
  105OSM    C1F10712   1.419   3.440  10.431 -0.0602 -0.3302 -0.7386
  105OSM     OF10713   1.491   3.522  10.492 -0.4987  0.0162  0.0179
  105OSM    C2F10714   1.273   3.468  10.406 -0.3616  0.0649  0.0583
  105OSM    H2F10715   1.213   3.412  10.481  0.6283 -1.3583 -0.1906
  105OSM    H2G10716   1.237   3.431  10.307  0.4752  0.6577 -0.4810
  105OSM    C3F10717   1.242   3.620  10.427 -0.3113  0.3838  0.1476
  105OSM    H3F10718   1.291   3.659  10.519 -0.3119  1.8667 -0.4703
  105OSM    H3G10719   1.134   3.630  10.453 -0.6021 -0.9294 -0.5456
  105OSM    C4F10720   1.266   3.715  10.314 -0.3049  0.4207  0.1400
  105OSM    H4F10721   1.224   3.689  10.215  0.2756 -2.1668  0.5523
  105OSM    H4G10722   1.374   3.732  10.291  0.0490 -0.6596  0.9515
  105OSM    C5F10723   1.205   3.854  10.347  1.0393  1.2222 -0.6727
  105OSM    H5F10724   1.204   3.875  10.456  0.0812 -2.2462  0.0537
  105OSM    H5G10725   1.099   3.843  10.315  0.4210  1.9014  1.0452
  105OSM    C6F10726   1.252   3.972  10.268 -0.8475 -0.3772 -0.1573
  105OSM    H6F10727   1.361   3.982  10.249 -0.6079 -0.7044  1.0008
  105OSM    H6G10728   1.222   4.065  10.321 -0.2416 -0.1421 -0.2270
  105OSM    C7F10729   1.175   3.984  10.134  0.6345 -0.2048 -0.1331
  105OSM    H7F10730   1.092   3.909  10.133 -0.7973  1.3219  0.9970
  105OSM    H7G10731   1.249   3.973  10.052  0.8921 -2.7087  0.3758
  105OSM    C8F10732   1.096   4.115  10.108  0.1619  0.1585 -0.5070
  105OSM    H8F10733   1.028   4.131  10.195  0.2474 -2.8616  0.1577
  105OSM    H8G10734   1.027   4.093  10.023  0.2168 -1.8013 -0.0444
  105OSM    C9F10735   1.177   4.240  10.078  0.5860  0.1598 -1.0050
  105OSM    H9F10736   1.238   4.281  10.161 -0.0872  3.8883 -2.2429
  105OSM   C10F10737   1.191   4.303   9.963  0.2593 -0.2578 -0.1703
  105OSM   H10F10738   1.252   4.395   9.965 -1.4849  0.9865 -1.9738
  105OSM   C11F10739   1.124   4.265   9.833  0.2630 -0.0485  0.3437
  105OSM   H11F10740   1.015   4.284   9.830 -0.6531 -4.3163  2.6833
  105OSM   H11G10741   1.139   4.156   9.815 -1.0474 -0.1302 -0.2756
  105OSM   C12F10742   1.187   4.331   9.705 -0.0036  0.3191 -0.1996
  105OSM   H12F10743   1.299   4.333   9.703  0.0828  0.2835  2.6966
  105OSM   H12G10744   1.157   4.437   9.720 -3.2478 -0.5252 -0.5126
  105OSM   C13F10745   1.135   4.272   9.573  0.6909 -0.6467  0.1873
  105OSM   H13F10746   1.025   4.272   9.559  0.9071 -0.2468 -1.5949
  105OSM   H13G10747   1.157   4.164   9.565  0.4394 -0.7761  1.2124
  105OSM   C14F10748   1.193   4.345   9.448 -0.2521 -0.8297  0.0188
  105OSM   H14F10749   1.304   4.340   9.442 -0.2731  0.2707 -1.3864
  105OSM   H14G10750   1.166   4.451   9.468  0.5932 -0.4888 -0.6481
  105OSM   C15F10751   1.136   4.310   9.312 -0.5545 -0.2272 -0.3044
  105OSM   H15F10752   1.026   4.321   9.316 -0.4634  0.1961  4.3286
  105OSM   H15G10753   1.157   4.202   9.296 -1.4087 -0.3074 -0.8746
  105OSM   C16F10754   1.200   4.368   9.188 -1.1181 -0.2648 -0.2492
  105OSM   H16F10755   1.139   4.343   9.098 -4.4011  1.4548  1.4292
  105OSM   H16G10756   1.304   4.329   9.176 -0.7290  1.1422 -1.6210
  105OSM   C17F10757   1.210   4.527   9.196  0.2271 -0.0507  0.5963
  105OSM   H17F10758   1.255   4.558   9.099 -0.1260 -0.2510  0.3680
  105OSM   H17G10759   1.277   4.535   9.285  0.7853 -2.0313  0.3740
  105OSM   C18F10760   1.079   4.602   9.193 -0.6390 -0.1417 -0.5406
  105OSM   H18F10761   1.005   4.585   9.274 -0.5355 -0.4011 -0.4983
  105OSM   H18G10762   1.023   4.581   9.099 -0.7345 -0.7692 -0.3451
  105OSM   H18H10763   1.098   4.711   9.186  2.2590 -0.7174 -2.4292
  106OSM      N10764   0.462   2.578  10.525  0.3738  0.3409  0.0742
  106OSM    C1510765   0.533   2.691  10.456  0.3430 -0.2183 -0.6367
  106OSM   H15A10766   0.490   2.679  10.357 -0.4970  1.8303 -0.5560
  106OSM   H15B10767   0.640   2.692  10.464  0.1762  2.9663  2.0409
  106OSM   H15C10768   0.500   2.783  10.502 -1.8984 -0.7641 -1.0825
  106OSM    C1410769   0.462   2.459  10.445 -0.3351  0.0627  0.7048
  106OSM   H14A10770   0.413   2.378  10.497  1.0999 -0.0900  1.8788
  106OSM   H14B10771   0.563   2.428  10.426 -0.4368 -1.1847  2.0580
  106OSM   H14C10772   0.417   2.475  10.349  1.2670 -4.1049 -0.8309
  106OSM    C1310773   0.542   2.548  10.650  0.2251 -0.5114 -0.1366
  106OSM   H13A10774   0.649   2.560  10.640 -0.0100  2.1504 -0.0342
  106OSM   H13B10775   0.522   2.452  10.693  1.1876  0.1906  1.9654
  106OSM   H13C10776   0.515   2.631  10.714  0.8082 -0.6890  0.3483
  106OSM    C1210777   0.323   2.618  10.558 -0.0459 -0.1070 -0.1180
  106OSM   H12A10778   0.289   2.526  10.602 -0.4843  0.6513  1.1904
  106OSM   H12B10779   0.269   2.626  10.465 -0.4489  0.3988  0.1537
  106OSM    C1110780   0.289   2.745  10.649 -0.3081 -0.0129 -0.1815
  106OSM   H11A10781   0.331   2.725  10.750  3.4373  1.6728 -1.3118
  106OSM   H11B10782   0.180   2.758  10.663 -0.1670  0.6228  0.4066
  106OSM      P10783   0.339   3.002  10.667  0.0708  0.0486 -0.0511
  106OSM    O1310784   0.219   3.087  10.633  0.4739 -0.1656 -0.1467
  106OSM    O1410785   0.359   2.976  10.811 -0.4521 -0.1748  0.8149
  106OSM    O1110786   0.461   3.083  10.628 -0.1212  0.3506  0.1065
  106OSM    O1210787   0.337   2.868  10.587  0.0276  0.1056 -0.0081
  106OSM    C1S10788   0.519   3.072  10.500 -0.2769  0.7293 -0.5007
  106OSM    H1S10789   0.535   2.967  10.468  0.2191  0.7626 -0.3652
  106OSM    H1T10790   0.618   3.118  10.523 -0.5299  1.0041  0.0436
  106OSM     NF10791   0.506   3.133  10.249  0.2153 -0.1655 -0.1795
  106OSM    HNF10792   0.566   3.205  10.214  2.4088 -0.6841  2.3810
  106OSM    C2S10793   0.460   3.159  10.383 -0.0318  0.6144 -0.8926
  106OSM    H2S10794   0.353   3.127  10.380  0.1202 -0.9126  4.2188
  106OSM    C3S10795   0.471   3.307  10.417 -0.2408  0.7122 -0.9561
  106OSM    H3S10796   0.573   3.350  10.406  0.1495 -0.0651 -0.4023
  106OSM     O310797   0.431   3.344  10.554 -0.0539 -0.3229 -0.1156
  106OSM    HO310798   0.450   3.277  10.620 -3.3867  1.2248  2.5823
  106OSM    C4S10799   0.375   3.382  10.328  0.2052  0.0275  0.2815
  106OSM    H4S10800   0.266   3.380  10.336  0.0982  1.5280 -0.6337
  106OSM    C5S10801   0.423   3.437  10.214 -0.4547  0.0394 -0.3710
  106OSM    H5S10802   0.531   3.431  10.193 -1.0655 -1.0411 -3.3058
  106OSM    C6S10803   0.345   3.510  10.104 -1.0241 -0.2480 -0.5274
  106OSM    H6S10804   0.392   3.608  10.082  1.0918 -1.1580 -0.1992
  106OSM    H6T10805   0.238   3.519  10.129 -0.8782 -1.3762  0.5541
  106OSM    C7S10806   0.349   3.423   9.978 -0.9568  0.1105  0.7379
  106OSM    H7S10807   0.287   3.475   9.901  0.7951  0.7353 -0.2712
  106OSM    H7T10808   0.309   3.323  10.004  0.6828 -1.3163 -2.0077
  106OSM    C8S10809   0.489   3.403   9.920 -0.7785  0.7172  0.5900
  106OSM    H8S10810   0.534   3.323   9.981 -0.7014  1.3870  1.4231
  106OSM    H8T10811   0.544   3.498   9.939 -2.3049  1.6711  0.3476
  106OSM    C9S10812   0.495   3.375   9.762  0.2684  0.0569  0.3947
  106OSM    H9S10813   0.424   3.295   9.734 -0.2945  0.4698  0.6413
  106OSM    H9T10814   0.600   3.346   9.737 -0.4761 -0.7424 -1.9250
  106OSM   C10S10815   0.469   3.506   9.691 -0.3970  0.7037  0.0136
  106OSM   H10S10816   0.560   3.570   9.687 -0.4492  0.7496 -0.5019
  106OSM   H10T10817   0.383   3.558   9.740 -0.2737  1.7423 -0.8528
  106OSM   C11S10818   0.410   3.495   9.544  0.8856 -0.0951 -0.4256
  106OSM   H11S10819   0.298   3.495   9.547  0.8990 -0.1332  0.3177
  106OSM   H11T10820   0.439   3.394   9.509  0.6757 -0.6281  0.8944
  106OSM   C12S10821   0.463   3.609   9.461 -0.1866 -0.1156  0.0955
  106OSM   H12S10822   0.574   3.604   9.468 -0.1003  1.8837  0.2531
  106OSM   H12T10823   0.450   3.704   9.516 -1.1386 -0.5744  0.6713
  106OSM   C13S10824   0.419   3.617   9.311 -0.0389  0.0610  0.9802
  106OSM   H13S10825   0.310   3.621   9.295  0.1320  1.6515  0.0203
  106OSM   H13T10826   0.436   3.519   9.261 -0.1561 -0.4698  1.9811
  106OSM   C14S10827   0.484   3.723   9.221 -0.1119  0.1560  0.2676
  106OSM   H14S10828   0.592   3.728   9.245 -0.5828 -0.0276  2.4576
  106OSM   H14T10829   0.450   3.825   9.247 -0.3068  0.3231 -0.6072
  106OSM   C15S10830   0.446   3.715   9.076  0.0977 -0.1973  0.2744
  106OSM   H15S10831   0.341   3.746   9.056  1.1381  1.4641 -2.9600
  106OSM   H15T10832   0.463   3.616   9.030  1.4168  0.5412 -0.8635
  106OSM   C16S10833   0.535   3.819   8.991 -0.5231  0.3840 -0.9930
  106OSM   H16S10834   0.635   3.800   9.035 -1.2813 -1.0919  0.1255
  106OSM   H16T10835   0.492   3.918   9.019 -1.2025 -0.2738  0.3590
  106OSM   C17S10836   0.530   3.787   8.846 -0.0170 -0.0733 -0.0002
  106OSM   H17S10837   0.423   3.776   8.817 -0.5762 -0.1167  2.0125
  106OSM   H17T10838   0.584   3.690   8.836  1.4343  0.5399  1.7103
  106OSM   C18S10839   0.592   3.893   8.753 -0.1316 -0.0732  0.6919
  106OSM   H18S10840   0.524   3.979   8.738  1.3984  1.3259  1.6370
  106OSM   H18T10841   0.619   3.845   8.657  1.6527  0.3228  0.9736
  106OSM   H18U10842   0.692   3.927   8.789 -0.0460  3.7041 -2.7616
  106OSM    C1F10843   0.495   3.009  10.195  0.6622 -0.1209  0.0284
  106OSM     OF10844   0.412   2.926  10.246  0.1691 -0.3609  0.0473
  106OSM    C2F10845   0.594   2.983  10.081  0.3753  0.5030  0.0008
  106OSM    H2F10846   0.689   2.970  10.137  0.0337  0.8650  0.6747
  106OSM    H2G10847   0.601   3.080  10.026  0.1970  0.6324  0.1993
  106OSM    C3F10848   0.563   2.859   9.994 -0.1373 -0.8406  0.1758
  106OSM    H3F10849   0.521   2.781  10.062  0.2606 -1.4177 -0.2329
  106OSM    H3G10850   0.659   2.827   9.950  0.2864 -1.2265  1.3682
  106OSM    C4F10851   0.462   2.894   9.888  0.1189 -0.5408  0.1165
  106OSM    H4F10852   0.370   2.935   9.934  0.8611  1.8316 -0.4538
  106OSM    H4G10853   0.420   2.805   9.837 -0.6797  0.7065 -1.4360
  106OSM    C5F10854   0.520   2.991   9.775 -0.2082 -0.2938 -0.9246
  106OSM    H5F10855   0.630   2.977   9.767 -0.2454 -0.9872 -0.2748
  106OSM    H5G10856   0.507   3.096   9.807 -1.8120 -0.8440  0.3070
  106OSM    C6F10857   0.467   2.967   9.634 -0.4290 -0.4388 -0.1305
  106OSM    H6F10858   0.361   2.999   9.645  0.1508  2.2142 -1.8648
  106OSM    H6G10859   0.473   2.858   9.614 -0.2808 -0.6562  1.0444
  106OSM    C7F10860   0.552   3.043   9.537  1.3547  0.3829 -0.7444
  106OSM    H7F10861   0.652   2.995   9.546 -0.2277 -2.3864  3.6838
  106OSM    H7G10862   0.557   3.148   9.570  0.6775  0.9865 -2.4916
  106OSM    C8F10863   0.504   3.042   9.391  0.4560  0.1339 -0.5081
  106OSM    H8F10864   0.476   2.939   9.358 -1.5141  0.1871  0.8817
  106OSM    H8G10865   0.598   3.068   9.338 -0.1384 -0.1815 -1.7405
  106OSM    C9F10866   0.396   3.142   9.362 -0.1639 -0.0011  0.1442
  106OSM    H9F10867   0.385   3.224   9.435 -1.5064 -1.5664  1.7487
  106OSM   C10F10868   0.307   3.146   9.266  0.5318  0.4357 -0.1140
  106OSM   H10F10869   0.241   3.234   9.255  0.4021  0.4252  0.5573
  106OSM   C11F10870   0.287   3.045   9.152 -0.6023  0.5464  0.3097
  106OSM   H11F10871   0.180   3.017   9.164 -0.4441  0.3764  1.3335
  106OSM   H11G10872   0.352   2.956   9.163 -0.8605  0.4156  0.8014
  106OSM   C12F10873   0.320   3.118   9.018 -0.0903  0.6444  0.1461
  106OSM   H12F10874   0.267   3.215   9.005 -0.0462  0.6465 -0.0250
  106OSM   H12G10875   0.275   3.040   8.952 -1.1606  0.7282  0.7649
  106OSM   C13F10876   0.467   3.139   8.980  0.1913 -0.6682  0.1956
  106OSM   H13F10877   0.523   3.044   8.994 -1.7200 -1.8683 -0.0774
  106OSM   H13G10878   0.507   3.209   9.056 -0.3108 -0.0919 -0.0681
  106OSM   C14F10879   0.490   3.193   8.837 -0.2484 -0.4220  0.1705
  106OSM   H14F10880   0.437   3.120   8.772 -0.5931 -0.2069  0.2157
  106OSM   H14G10881   0.598   3.177   8.813 -0.2115  2.2572 -1.6632
  106OSM   C15F10882   0.443   3.340   8.814  0.1785  0.6646 -0.2643
  106OSM   H15F10883   0.508   3.401   8.881  0.5607 -0.2044  0.1697
  106OSM   H15G10884   0.341   3.355   8.856  0.7647 -2.8718  2.6887
  106OSM   C16F10885   0.454   3.368   8.663  0.4173  0.4583 -0.1717
  106OSM   H16F10886   0.380   3.308   8.607  1.5727  0.2488 -1.4899
  106OSM   H16G10887   0.555   3.334   8.632 -0.4578 -0.7210 -1.8143
  106OSM   C17F10888   0.436   3.513   8.613 -0.1513  0.4811 -0.1957
  106OSM   H17F10889   0.471   3.515   8.508  0.1233  0.9653 -0.0955
  106OSM   H17G10890   0.518   3.566   8.666  1.0483 -0.5117 -1.0292
  106OSM   C18F10891   0.296   3.568   8.643 -0.0981  0.8760 -0.6392
  106OSM   H18F10892   0.258   3.550   8.746  1.0119  1.6756 -0.0771
  106OSM   H18G10893   0.222   3.524   8.572  1.3968 -1.1185 -1.0031
  106OSM   H18H10894   0.303   3.679   8.642 -0.0798  0.8964  0.6663
  107OSM      N10895   3.331   0.427  10.901  0.4319  0.0391  0.7770
  107OSM    C1510896   3.244   0.311  10.883  0.1566  0.5695 -0.3412
  107OSM   H15A10897   3.213   0.272  10.979 -1.7719  0.6871 -0.8940
  107OSM   H15B10898   3.290   0.232  10.824  1.3173  2.6284 -2.2793
  107OSM   H15C10899   3.156   0.334  10.826  0.1327  1.1690 -0.0639
  107OSM    C1410900   3.258   0.533  10.977  0.1914 -0.2951  0.0045
  107OSM   H14A10901   3.317   0.612  11.021  1.0245  0.0083 -1.6238
  107OSM   H14B10902   3.208   0.491  11.064  0.8263  1.8670  1.4657
  107OSM   H14C10903   3.170   0.572  10.927  1.5518 -0.6063 -2.6760
  107OSM    C1310904   3.448   0.393  10.986  1.0064  0.0714  0.2213
  107OSM   H13A10905   3.520   0.473  10.993 -0.0536  1.1200 -0.7075
  107OSM   H13B10906   3.496   0.303  10.952  2.2022 -0.3591  2.9510
  107OSM   H13C10907   3.408   0.371  11.084 -0.6352  0.2749 -0.3755
  107OSM    C1210908   3.377   0.477  10.763  0.4832  0.0463 -0.0431
  107OSM   H12A10909   3.293   0.451  10.701  0.7339  0.4590 -0.5635
  107OSM   H12B10910   3.462   0.417  10.732  0.7936  0.2558  0.3875
  107OSM    C1110911   3.412   0.627  10.740 -0.1265  0.2958  0.0154
  107OSM   H11A10912   3.313   0.672  10.762 -0.4565 -1.3382  2.0080
  107OSM   H11B10913   3.437   0.651  10.634  1.5145  0.4474  0.4214
  107OSM      P10914   3.559   0.804  10.884 -0.0224 -0.5023  0.0334
  107OSM    O1310915   3.522   0.818  11.022 -1.1078 -0.5679 -0.2291
  107OSM    O1410916   3.701   0.831  10.845 -0.3343  0.0294  0.1819
  107OSM    O1110917   3.460   0.888  10.806 -0.2494 -0.2133 -0.4290
  107OSM    O1210918   3.518   0.667  10.826 -0.7246  0.2162 -0.1250
  107OSM    C1S10919   3.495   0.983  10.701 -0.1178  0.0080 -0.5933
  107OSM    H1S10920   3.603   0.976  10.678  0.2886  1.1207  0.8943
  107OSM    H1T10921   3.469   1.086  10.732 -0.1301 -0.1561 -0.0407
  107OSM     NF10922   3.464   1.042  10.465 -0.7149  0.6676  0.8540
  107OSM    HNF10923   3.400   1.112  10.433 -0.9591  0.6547  1.3098
  107OSM    C2S10924   3.412   0.967  10.573  0.0525 -0.1910 -0.4629
  107OSM    H2S10925   3.418   0.861  10.542  0.3714  0.3940 -2.5625
  107OSM    C3S10926   3.261   1.004  10.605 -0.0574 -0.2847 -0.0176
  107OSM    H3S10927   3.257   1.115  10.603 -1.3392 -0.3304 -0.2611
  107OSM     O310928   3.220   0.962  10.736  0.5834 -0.1707  0.1651
  107OSM    HO310929   3.297   0.925  10.779  0.8331 -0.7119 -0.7269
  107OSM    C4S10930   3.170   0.962  10.497 -0.1832  0.2588  0.1048
  107OSM    H4S10931   3.170   1.031  10.411 -2.6415  0.0763 -0.0596
  107OSM    C5S10932   3.110   0.839  10.484 -0.7815  0.1575  0.5873
  107OSM    H5S10933   3.136   0.760  10.556  0.5809  0.4876  0.4664
  107OSM    C6S10934   3.034   0.792  10.357 -0.0537 -0.3014  0.5363
  107OSM    H6S10935   2.925   0.788  10.377 -0.2790 -0.5825 -0.6781
  107OSM    H6T10936   3.064   0.693  10.316 -2.1891 -0.6838 -0.1727
  107OSM    C7S10937   3.058   0.884  10.235  0.3110  0.4158 -0.1728
  107OSM    H7S10938   3.164   0.868  10.205 -0.1586 -0.8932 -1.2008
  107OSM    H7T10939   3.045   0.990  10.265 -0.0827  0.3914 -0.2484
  107OSM    C8S10940   2.956   0.850  10.128 -0.2530 -0.0907  0.7313
  107OSM    H8S10941   2.856   0.864  10.175 -0.3710  0.7358  0.2429
  107OSM    H8T10942   2.974   0.742  10.111  0.4273 -0.1956  2.0479
  107OSM    C9S10943   2.985   0.930  10.000 -0.1044  0.2076  0.9594
  107OSM    H9S10944   3.078   0.886   9.959 -1.4283 -0.7583 -1.0956
  107OSM    H9T10945   2.992   1.041  10.009 -1.8856  0.3599  0.5840
  107OSM   C10S10946   2.873   0.893   9.901 -0.2224 -0.0205  0.4974
  107OSM   H10S10947   2.783   0.941   9.944  0.6216  3.1599 -1.1532
  107OSM   H10T10948   2.854   0.783   9.895  1.6312 -0.2613 -1.6000
  107OSM   C11S10949   2.908   0.944   9.759 -0.1342 -0.0558 -1.0314
  107OSM   H11S10950   3.007   0.908   9.723 -0.6892 -0.6769 -1.9664
  107OSM   H11T10951   2.903   1.055   9.761  0.9597  0.0629  5.1173
  107OSM   C12S10952   2.801   0.899   9.657 -0.1650 -0.8622  0.2618
  107OSM   H12S10953   2.705   0.929   9.704  0.6370 -0.9135  1.9814
  107OSM   H12T10954   2.805   0.788   9.649  1.2982 -0.8382  0.4029
  107OSM   C13S10955   2.826   0.951   9.518 -0.5309 -0.0602  0.6290
  107OSM   H13S10956   2.936   0.963   9.514 -0.6553  0.9306  0.1845
  107OSM   H13T10957   2.793   1.056   9.510  1.8031  0.5099 -2.4332
  107OSM   C14S10958   2.780   0.859   9.408 -0.4012 -0.1713 -1.1343
  107OSM   H14S10959   2.670   0.857   9.421 -0.1918 -2.8383  0.4718
  107OSM   H14T10960   2.814   0.756   9.428 -1.7821 -0.3619  0.3470
  107OSM   C15S10961   2.819   0.907   9.265 -0.1593 -0.0578 -0.0159
  107OSM   H15S10962   2.930   0.903   9.268 -0.1849 -0.3484  0.7590
  107OSM   H15T10963   2.791   1.014   9.250 -1.3926  0.0815  2.9524
  107OSM   C16S10964   2.770   0.818   9.154  0.3839  0.4223 -0.0830
  107OSM   H16S10965   2.660   0.799   9.164  0.4639 -0.1118 -0.1920
  107OSM   H16T10966   2.809   0.715   9.165  0.1322  0.2154 -1.0222
  107OSM   C17S10967   2.825   0.863   9.014 -0.1997 -1.1619  0.3561
  107OSM   H17S10968   2.934   0.883   9.022 -0.7847  1.5478  1.9734
  107OSM   H17T10969   2.778   0.959   8.983 -1.3840 -2.2312 -1.3041
  107OSM   C18S10970   2.791   0.765   8.900  0.4304  0.2151 -0.0770
  107OSM   H18S10971   2.682   0.753   8.887  0.1312  2.8162 -0.2561
  107OSM   H18T10972   2.824   0.663   8.928  1.9898 -0.0197 -2.6131
  107OSM   H18U10973   2.827   0.811   8.806 -1.7240 -3.2537 -2.7385
  107OSM    C1F10974   3.584   1.017  10.406 -0.4773 -0.2656 -0.5510
  107OSM     OF10975   3.654   0.925  10.444 -0.2922  0.2394 -0.0565
  107OSM    C2F10976   3.618   1.113  10.303 -0.6013 -0.0789  0.0727
  107OSM    H2F10977   3.644   1.212  10.346 -0.8737 -0.1034  0.2904
  107OSM    H2G10978   3.523   1.123  10.247  0.1621 -1.3831 -1.4886
  107OSM    C3F10979   3.724   1.072  10.199 -0.0785  0.3490  0.4994
  107OSM    H3F10980   3.707   0.969  10.160 -0.8663 -0.2676  2.4123
  107OSM    H3G10981   3.829   1.073  10.235 -0.0769 -0.2785  0.5266
  107OSM    C4F10982   3.733   1.170  10.076  0.1976 -0.0896 -0.5716
  107OSM    H4F10983   3.834   1.211  10.057 -0.2816  1.2153 -0.3597
  107OSM    H4G10984   3.665   1.254  10.102  1.4684  0.5102  0.8979
  107OSM    C5F10985   3.692   1.105   9.942 -0.5563 -0.4544  0.7120
  107OSM    H5F10986   3.612   1.029   9.953 -0.3254 -0.8266 -0.1383
  107OSM    H5G10987   3.778   1.052   9.895 -0.2813  0.3653  0.2730
  107OSM    C6F10988   3.649   1.210   9.837  0.0790 -0.1167  0.2117
  107OSM    H6F10989   3.718   1.297   9.823 -0.3820  0.2491  0.1823
  107OSM    H6G10990   3.552   1.243   9.879 -0.2388 -4.1270  2.9145
  107OSM    C7F10991   3.644   1.140   9.697 -0.2079 -0.7798 -0.7030
  107OSM    H7F10992   3.566   1.062   9.706 -0.6550 -0.3869 -1.1051
  107OSM    H7G10993   3.738   1.098   9.657  0.5878  0.6733 -0.4003
  107OSM    C8F10994   3.611   1.240   9.589 -0.5082  0.5192 -0.2279
  107OSM    H8F10995   3.687   1.320   9.598 -0.6774  0.8020 -1.2301
  107OSM    H8G10996   3.510   1.282   9.607 -0.1180  1.2254  0.3626
  107OSM    C9F10997   3.608   1.172   9.457 -0.5089 -0.2186 -0.3348
  107OSM    H9F10998   3.578   1.066   9.449 -2.4451  0.1163  2.2748
  107OSM   C10F10999   3.649   1.226   9.343  0.9799 -0.2358  1.0079
  107OSM   H10F11000   3.645   1.159   9.256  2.1527  1.9971 -0.8387
  107OSM   C11F11001   3.717   1.359   9.324 -0.0192 -0.1055 -0.1116
  107OSM   H11F11002   3.810   1.343   9.266  1.2475  0.3876  1.7492
  107OSM   H11G11003   3.765   1.390   9.420 -0.8948 -1.7651  0.8908
  107OSM   C12F11004   3.633   1.474   9.267 -0.4499 -0.7204  0.2888
  107OSM   H12F11005   3.688   1.564   9.302 -1.3989 -0.5607  1.4051
  107OSM   H12G11006   3.526   1.469   9.295 -0.2781 -0.7564  0.9535
  107OSM   C13F11007   3.648   1.492   9.114 -0.1419  0.1429  0.5711
  107OSM   H13F11008   3.754   1.514   9.089  0.0520 -2.7232 -1.3544
  107OSM   H13G11009   3.606   1.590   9.081  0.4558 -0.6704 -2.7484
  107OSM   C14F11010   3.587   1.370   9.042 -0.1273 -0.4375  0.8042
  107OSM   H14F11011   3.486   1.348   9.084 -0.5748 -0.6681 -0.3744
  107OSM   H14G11012   3.653   1.282   9.056  0.1153  0.0072  2.5755
  107OSM   C15F11013   3.583   1.390   8.891 -0.0226 -0.0400 -0.2687
  107OSM   H15F11014   3.688   1.406   8.857  1.1570  0.0233  3.2229
  107OSM   H15G11015   3.530   1.487   8.877 -0.5778 -0.5368 -1.6587
  107OSM   C16F11016   3.527   1.275   8.815 -0.8073 -0.2943 -1.0970
  107OSM   H16F11017   3.481   1.200   8.883  0.1663 -0.8843 -1.0798
  107OSM   H16G11018   3.604   1.222   8.756 -0.3052 -0.6314 -0.1407
  107OSM   C17F11019   3.413   1.320   8.713  0.3939 -0.1569 -0.3800
  107OSM   H17F11020   3.316   1.315   8.766  0.1907  1.7459 -0.5280
  107OSM   H17G11021   3.404   1.241   8.636 -1.5464 -0.9475  0.6283
  107OSM   C18F11022   3.431   1.452   8.642 -0.0236  0.5929 -0.2658
  107OSM   H18F11023   3.430   1.541   8.710  0.5043  0.5829 -0.2408
  107OSM   H18G11024   3.351   1.457   8.565 -2.2637 -2.8003  1.6853
  107OSM   H18H11025   3.525   1.442   8.584 -0.2710  1.2796 -0.7900
  108OSM      N11026   0.370   1.746  10.759 -0.0343  1.2585  0.2216
  108OSM    C1511027   0.451   1.624  10.748  0.3727  0.1930 -0.1827
  108OSM   H15A11028   0.485   1.612  10.646  0.1265  0.8184 -0.3381
  108OSM   H15B11029   0.393   1.533  10.761 -1.4551  1.3440 -0.0897
  108OSM   H15C11030   0.545   1.621  10.801  0.7595  0.2450 -0.8599
  108OSM    C1411031   0.266   1.717  10.858 -0.0197  0.3552  0.5764
  108OSM   H14A11032   0.204   1.634  10.827  1.0326 -0.9091  1.8005
  108OSM   H14B11033   0.197   1.796  10.881 -0.7573 -0.3470  0.8175
  108OSM   H14C11034   0.319   1.686  10.947  1.5097 -2.4689 -1.2256
  108OSM    C1311035   0.461   1.842  10.813  0.1981 -0.2769 -0.8568
  108OSM   H13A11036   0.409   1.935  10.822  0.0206 -0.5398  0.9595
  108OSM   H13B11037   0.547   1.871  10.754 -0.4583  1.7423 -0.8429
  108OSM   H13C11038   0.503   1.808  10.907 -2.0258  3.0694  1.4372
  108OSM    C1211039   0.313   1.795  10.626  0.9446  0.8838  0.4211
  108OSM   H12A11040   0.265   1.709  10.583 -1.6606  3.0899 -1.2029
  108OSM   H12B11041   0.387   1.833  10.558  0.4293  0.5897 -0.3060
  108OSM    C1111042   0.198   1.914  10.634  0.4242 -0.4909 -0.2267
  108OSM   H11A11043   0.108   1.867  10.678 -0.3079  1.5462  0.5183
  108OSM   H11B11044   0.163   1.939  10.531 -0.8374 -1.6759 -0.0954
  108OSM      P11045   0.313   2.141  10.661  0.0432 -0.4644 -0.0052
  108OSM    O1311046   0.297   2.265  10.750  0.2584 -0.1847 -0.3956
  108OSM    O1411047   0.451   2.089  10.658  0.3254 -0.1405  0.5555
  108OSM    O1111048   0.263   2.172  10.509  0.2715 -0.1625 -0.3141
  108OSM    O1211049   0.229   2.020  10.718 -0.0853  0.0304  0.3564
  108OSM    C1S11050   0.144   2.252  10.497 -0.2189  0.8087  0.1045
  108OSM    H1S11051   0.151   2.358  10.530 -0.5548  0.2232  2.0972
  108OSM    H1T11052   0.053   2.216  10.548 -1.0188  2.5846 -0.0432
  108OSM     NF11053   0.006   2.368  10.332 -0.1716 -0.3328 -0.1511
  108OSM    HNF11054  -0.081   2.322  10.349  0.1057 -1.2215 -1.0486
  108OSM    C2S11055   0.114   2.273  10.347  0.2540  0.5417  0.1521
  108OSM    H2S11056   0.200   2.312  10.289 -1.0542  0.8199 -1.6298
  108OSM    C3S11057   0.086   2.129  10.279  0.7477 -0.0707  0.6836
  108OSM    H3S11058   0.016   2.078  10.348  0.1785 -1.4999 -0.9271
  108OSM     O311059   0.197   2.034  10.263 -0.0972 -0.2737 -1.0154
  108OSM    HO311060   0.263   2.076  10.318  0.0454 -0.0263 -1.3717
  108OSM    C4S11061   0.022   2.143  10.146  0.0495 -0.2756 -0.3186
  108OSM    H4S11062   0.076   2.207  10.074 -0.9138  0.9741  0.0482
  108OSM    C5S11063  -0.093   2.090  10.097 -1.1444  0.4530 -0.1707
  108OSM    H5S11064  -0.153   2.032  10.168 -0.1630  0.7284  0.9151
  108OSM    C6S11065  -0.149   2.116   9.965  0.7940 -0.1573  0.5486
  108OSM    H6S11066  -0.196   2.217   9.961 -0.8674 -0.8966  1.1094
  108OSM    H6T11067  -0.217   2.031   9.946  0.8475 -0.5591  2.0763
  108OSM    C7S11068  -0.043   2.112   9.851 -0.1938 -0.3330 -0.0231
  108OSM    H7S11069  -0.006   2.009   9.837 -1.6270 -0.7263 -1.0466
  108OSM    H7T11070   0.040   2.179   9.881  0.2206 -1.1793  0.7587
  108OSM    C8S11071  -0.102   2.168   9.717 -0.6146  0.4853 -0.3785
  108OSM    H8S11072  -0.156   2.262   9.742 -0.4149  0.7840 -1.0509
  108OSM    H8T11073  -0.176   2.093   9.679 -0.6828 -1.0679  2.6157
  108OSM    C9S11074  -0.000   2.194   9.610 -0.7590  0.2132  0.6172
  108OSM    H9S11075   0.062   2.103   9.596 -1.0124  0.3706 -1.9137
  108OSM    H9T11076   0.072   2.276   9.632  4.6579 -4.6395  2.0820
  108OSM   C10S11077  -0.067   2.231   9.474  0.5015 -0.0405  0.2747
  108OSM   H10S11078   0.003   2.267   9.396  0.6036 -2.0539 -0.5797
  108OSM   H10T11079  -0.144   2.310   9.486  0.6505  0.0605  0.5710
  108OSM   C11S11080  -0.136   2.112   9.402 -0.6022 -0.4065  0.0928
  108OSM   H11S11081  -0.176   2.041   9.477 -2.3373  0.0565 -0.3548
  108OSM   H11T11082  -0.060   2.066   9.336  0.2650  3.9237 -2.1401
  108OSM   C12S11083  -0.256   2.151   9.319 -0.3662 -0.0169  0.2774
  108OSM   H12S11084  -0.216   2.193   9.224 -0.9596  1.3555  0.6256
  108OSM   H12T11085  -0.310   2.235   9.368  1.9094  0.6085  1.8197
  108OSM   C13S11086  -0.353   2.039   9.295  0.1507  0.2220  0.9166
  108OSM   H13S11087  -0.362   1.979   9.388  1.2210 -0.6220  0.4886
  108OSM   H13T11088  -0.301   1.974   9.222  1.0298  3.0006 -1.0243
  108OSM   C14S11089  -0.496   2.077   9.246  0.7755 -0.8510 -0.0705
  108OSM   H14S11090  -0.547   2.147   9.315  3.9823  0.8213  0.7115
  108OSM   H14T11091  -0.555   1.984   9.260 -0.8538  0.3777  1.4443
  108OSM   C15S11092  -0.488   2.109   9.103  0.4268  0.0996  0.1035
  108OSM   H15S11093  -0.400   2.058   9.058 -1.0156 -0.9082 -1.6684
  108OSM   H15T11094  -0.473   2.219   9.101  0.0334  0.1801  1.2636
  108OSM   C16S11095  -0.611   2.057   9.023  0.1721 -0.3509 -0.4183
  108OSM   H16S11096  -0.710   2.088   9.065  1.1772  1.7719  0.4792
  108OSM   H16T11097  -0.602   1.947   9.011  1.0681 -0.6657  2.6415
  108OSM   C17S11098  -0.615   2.111   8.881 -0.2614 -0.2758  0.4393
  108OSM   H17S11099  -0.523   2.086   8.823 -1.3278  0.1158 -1.4517
  108OSM   H17T11100  -0.616   2.222   8.887 -1.5116 -0.1945 -1.0086
  108OSM   C18S11101  -0.737   2.059   8.798 -0.1202 -0.5634 -0.7984
  108OSM   H18S11102  -0.756   2.126   8.711 -1.1570  0.3834  0.1236
  108OSM   H18T11103  -0.834   2.061   8.853  0.5375 -1.0701  0.3858
  108OSM   H18U11104  -0.713   1.957   8.761  3.5544 -0.0749  0.0602
  108OSM    C1F11105   0.022   2.495  10.335 -0.0370 -0.3649  0.8883
  108OSM     OF11106   0.138   2.541  10.332  0.1849 -0.4735 -0.2542
  108OSM    C2F11107  -0.100   2.587  10.339  0.3771  0.1438 -0.3614
  108OSM    H2F11108  -0.086   2.641  10.435 -1.7594 -0.8384  0.5319
  108OSM    H2G11109  -0.197   2.538  10.359  1.5093 -1.9926  0.0989
  108OSM    C3F11110  -0.111   2.693  10.229  0.7760 -0.2731 -0.4460
  108OSM    H3F11111  -0.018   2.752  10.224  1.3146 -0.9190  1.7159
  108OSM    H3G11112  -0.204   2.751  10.249  0.5234 -1.4187  1.9155
  108OSM    C4F11113  -0.119   2.627  10.088  0.5184 -0.4396 -0.3471
  108OSM    H4F11114  -0.219   2.582  10.072  1.6567 -3.9458  1.7990
  108OSM    H4G11115  -0.050   2.540  10.086  2.9666  1.4589 -2.5508
  108OSM    C5F11116  -0.097   2.725   9.978 -0.6415 -0.2332  0.0210
  108OSM    H5F11117  -0.002   2.770  10.014  1.2544 -3.3390 -0.8443
  108OSM    H5G11118  -0.174   2.804   9.977  1.5070  1.9348 -2.7714
  108OSM    C6F11119  -0.089   2.650   9.848 -0.1908 -0.6140 -0.6503
  108OSM    H6F11120  -0.084   2.715   9.758  1.0868 -1.2015 -1.0135
  108OSM    H6G11121  -0.190   2.604   9.836 -1.4383  2.1452 -1.3019
  108OSM    C7F11122   0.026   2.548   9.822  0.0094 -0.0922  0.1876
  108OSM    H7F11123  -0.002   2.502   9.725  3.1149 -2.1938  0.1929
  108OSM    H7G11124   0.039   2.466   9.896  1.6715 -1.0865 -1.1678
  108OSM    C8F11125   0.164   2.620   9.795 -0.2128  0.2978 -0.5763
  108OSM    H8F11126   0.229   2.538   9.759  0.0312 -0.9236  2.5554
  108OSM    H8G11127   0.213   2.659   9.887 -0.4776  0.8601 -0.6712
  108OSM    C9F11128   0.155   2.735   9.697  0.5607 -0.5207  0.2077
  108OSM    H9F11129   0.117   2.826   9.744  0.0436 -0.4789 -0.2894
  108OSM   C10F11130   0.179   2.736   9.562  0.1334 -0.3273 -0.1792
  108OSM   H10F11131   0.165   2.833   9.512 -0.1681 -1.1048 -1.6285
  108OSM   C11F11132   0.226   2.624   9.472 -0.2577  0.1236  0.0574
  108OSM   H11F11133   0.274   2.537   9.523 -0.3053  0.7355  1.1487
  108OSM   H11G11134   0.299   2.665   9.399 -0.5910 -1.5023 -1.2188
  108OSM   C12F11135   0.106   2.560   9.395  0.6316 -0.2489  0.0500
  108OSM   H12F11136   0.043   2.645   9.360  1.4089  0.1553 -0.4016
  108OSM   H12G11137   0.053   2.499   9.471 -0.1874  0.1905 -0.1623
  108OSM   C13F11138   0.151   2.486   9.272  0.6757  0.2485 -0.1450
  108OSM   H13F11139   0.186   2.384   9.298  0.5318 -0.3057 -2.0528
  108OSM   H13G11140   0.231   2.548   9.226 -0.0590  1.6005  0.3691
  108OSM   C14F11141   0.044   2.481   9.168  0.5237 -0.7236  0.1716
  108OSM   H14F11142   0.027   2.586   9.138 -1.8695 -0.5894  1.8314
  108OSM   H14G11143  -0.046   2.441   9.221 -1.5317  1.3121 -1.6474
  108OSM   C15F11144   0.073   2.395   9.042  0.3096  0.6234  0.0364
  108OSM   H15F11145   0.164   2.417   8.983 -0.1044 -1.1796 -1.2817
  108OSM   H15G11146  -0.009   2.418   8.971 -3.1985 -3.6922  2.4183
  108OSM   C16F11147   0.057   2.244   9.053  0.9285  0.2831 -0.5393
  108OSM   H16F11148  -0.047   2.222   9.085  2.2361 -1.0198  2.9636
  108OSM   H16G11149   0.134   2.210   9.126  0.6373  1.4254  0.3087
  108OSM   C17F11150   0.062   2.175   8.915  0.1251  0.3309  0.1244
  108OSM   H17F11151   0.130   2.239   8.854  0.4434  0.9240  1.0812
  108OSM   H17G11152  -0.039   2.190   8.872 -0.2540 -1.7981  0.2485
  108OSM   C18F11153   0.102   2.024   8.927  0.1104  1.2900 -0.0161
  108OSM   H18F11154   0.017   1.963   8.964  1.0617 -0.5558 -0.7995
  108OSM   H18G11155   0.182   2.010   9.003  0.9750 -0.6579 -1.2558
  108OSM   H18H11156   0.151   1.989   8.834  2.7832  1.6269  1.2242
  109OSM      N11157   5.162   0.267  10.999  0.0304 -0.1107  0.2479
  109OSM    C1511158   5.110   0.359  10.896  0.3492 -0.0199  0.1130
  109OSM   H15A11159   5.074   0.299  10.813 -0.9050 -0.4240  0.9394
  109OSM   H15B11160   5.179   0.439  10.875 -0.7753  1.0648  0.4907
  109OSM   H15C11161   5.023   0.411  10.932  0.9049 -0.4191  2.0660
  109OSM    C1411162   5.041   0.234  11.071 -0.3489  0.4842  0.5255
  109OSM   H14A11163   4.979   0.320  11.095  1.6339  1.8442  0.9102
  109OSM   H14B11164   5.066   0.182  11.162 -2.5554  0.7597  1.3186
  109OSM   H14C11165   4.978   0.158  11.028 -0.6761 -0.1832  2.1426
  109OSM    C1311166   5.228   0.149  10.934 -0.0069  0.1536 -0.1118
  109OSM   H13A11167   5.164   0.099  10.864 -2.8072  1.9252  1.0814
  109OSM   H13B11168   5.267   0.078  11.006  0.4160 -0.7611 -1.2362
  109OSM   H13C11169   5.317   0.180  10.881 -0.5442  0.6610 -0.7239
  109OSM    C1211170   5.267   0.338  11.072 -0.1473  1.2345  0.1781
  109OSM   H12A11171   5.342   0.378  11.006  0.3543  1.2274  0.7325
  109OSM   H12B11172   5.319   0.272  11.140 -1.8496 -0.4683 -0.1249
  109OSM    C1111173   5.229   0.463  11.159 -0.0369  0.1203 -0.3834
  109OSM   H11A11174   5.319   0.482  11.220  0.6847 -0.5340 -1.2325
  109OSM   H11B11175   5.140   0.433  11.219 -0.1565 -0.0364 -0.6360
  109OSM      P11176   5.286   0.680  11.012  0.2265 -0.1295 -0.0693
  109OSM    O1311177   5.204   0.779  10.931  0.0757  0.2912  0.3472
  109OSM    O1411178   5.390   0.726  11.113  0.0812  0.4302  0.6630
  109OSM    O1111179   5.362   0.593  10.905  0.0207  0.0614 -0.2470
  109OSM    O1211180   5.196   0.577  11.085 -0.4049 -0.3108 -0.4609
  109OSM    C1S11181   5.352   0.630  10.765 -0.1862  0.1244 -0.9859
  109OSM    H1S11182   5.356   0.740  10.751  3.4379  0.0490 -1.0238
  109OSM    H1T11183   5.256   0.599  10.719 -0.2168 -0.1851 -0.7150
  109OSM     NF11184   5.450   0.642  10.537 -0.5051  0.7642  0.2086
  109OSM    HNF11185   5.423   0.597  10.452 -1.5518 -1.1716  1.5257
  109OSM    C2S11186   5.457   0.573  10.672 -0.5939 -0.5640 -0.5795
  109OSM    H2S11187   5.552   0.616  10.711 -0.7751  2.6053 -3.3500
  109OSM    C3S11188   5.447   0.421  10.662 -0.0590  0.4670 -0.1807
  109OSM    H3S11189   5.352   0.395  10.611  0.1099  0.5527 -0.5346
  109OSM     O311190   5.424   0.364  10.790  0.2656  0.1107  0.0987
  109OSM    HO311191   5.392   0.442  10.836 -0.8449  0.1911 -0.7815
  109OSM    C4S11192   5.561   0.349  10.600  0.0494  0.3860 -0.2270
  109OSM    H4S11193   5.657   0.381  10.642 -0.6596 -0.3208  2.0054
  109OSM    C5S11194   5.552   0.246  10.518  0.3628  0.9853 -0.5512
  109OSM    H5S11195   5.453   0.201  10.501 -0.6915  2.0602  2.4070
  109OSM    C6S11196   5.663   0.171  10.454  0.0216  0.3883  0.1546
  109OSM    H6S11197   5.621   0.107  10.374 -1.7224  1.5536  0.1206
  109OSM    H6T11198   5.698   0.110  10.541 -1.5895  0.3509  0.7946
  109OSM    C7S11199   5.782   0.244  10.404  0.2431 -0.4017 -0.0411
  109OSM    H7S11200   5.862   0.168  10.392  0.5262  0.1582 -2.0303
  109OSM    H7T11201   5.824   0.315  10.479 -1.0207  1.9756 -1.5105
  109OSM    C8S11202   5.746   0.318  10.276 -0.1317 -0.2922  0.8325
  109OSM    H8S11203   5.654   0.375  10.303 -1.4783 -2.3114  0.6529
  109OSM    H8T11204   5.729   0.246  10.193  2.9499  1.2735 -1.2445
  109OSM    C9S11205   5.851   0.429  10.231 -0.5445  0.0845  0.1270
  109OSM    H9S11206   5.943   0.366  10.225 -0.4094  0.1192  1.6268
  109OSM    H9T11207   5.866   0.519  10.294  1.0004 -0.5957  0.7577
  109OSM   C10S11208   5.835   0.477  10.091 -0.9375 -0.4673 -0.3294
  109OSM   H10S11209   5.845   0.393  10.020  2.4176 -0.9180  0.6248
  109OSM   H10T11210   5.916   0.550  10.068  0.9201 -2.1989  0.5702
  109OSM   C11S11211   5.697   0.540  10.063 -0.9133  0.6076  0.0822
  109OSM   H11S11212   5.690   0.629  10.128 -0.7804  0.8530 -0.2355
  109OSM   H11T11213   5.612   0.474  10.091  0.7018 -1.7944 -0.4579
  109OSM   C12S11214   5.681   0.582   9.919 -0.4532 -0.0008  0.8665
  109OSM   H12S11215   5.784   0.590   9.878 -0.1201  2.5723  2.1123
  109OSM   H12T11216   5.628   0.679   9.912  4.2289  2.6553  0.2744
  109OSM   C13S11217   5.615   0.480   9.826  0.6496 -0.3177 -0.3953
  109OSM   H13S11218   5.506   0.471   9.845 -0.0899  4.6849 -1.5215
  109OSM   H13T11219   5.657   0.382   9.855 -0.0023 -1.2844 -2.6190
  109OSM   C14S11220   5.630   0.507   9.678  0.0500 -0.3209  0.1852
  109OSM   H14S11221   5.734   0.519   9.641 -0.1218  0.9168  0.0713
  109OSM   H14T11222   5.580   0.600   9.643 -2.1210 -0.5765  2.5277
  109OSM   C15S11223   5.561   0.395   9.605 -0.2884 -0.5466 -0.7567
  109OSM   H15S11224   5.459   0.393   9.650  0.0447 -2.8766 -0.0469
  109OSM   H15T11225   5.612   0.298   9.620  0.4149 -0.2038 -0.9240
  109OSM   C16S11226   5.559   0.413   9.452 -0.8896 -0.3267 -0.3580
  109OSM   H16S11227   5.660   0.404   9.406 -0.9799  1.9093 -1.0328
  109OSM   H16T11228   5.518   0.515   9.435 -1.5083 -0.6550 -0.8851
  109OSM   C17S11229   5.451   0.320   9.382  0.3974 -0.5711 -0.0077
  109OSM   H17S11230   5.351   0.348   9.421  1.3872  0.7428  1.6468
  109OSM   H17T11231   5.470   0.215   9.411  0.6299 -0.7744 -0.8727
  109OSM   C18S11232   5.451   0.345   9.230  0.0413  0.3767 -0.3235
  109OSM   H18S11233   5.554   0.339   9.188 -0.3295  2.0858 -1.5204
  109OSM   H18T11234   5.416   0.447   9.205  0.3344  0.6867  0.4942
  109OSM   H18U11235   5.389   0.273   9.173 -0.4060  1.2654 -0.9585
  109OSM    C1F11236   5.482   0.770  10.507 -0.0154 -0.1817 -0.2571
  109OSM     OF11237   5.522   0.845  10.594  0.6498  0.1019  0.1872
  109OSM    C2F11238   5.470   0.821  10.366 -0.6403 -0.6517 -0.2135
  109OSM    H2F11239   5.365   0.854  10.356 -0.7139 -1.2374 -1.4720
  109OSM    H2G11240   5.476   0.736  10.294 -0.9679  1.2392 -2.5461
  109OSM    C3F11241   5.564   0.931  10.320  0.2294  0.3889 -0.7080
  109OSM    H3F11242   5.670   0.905  10.301  0.2692 -0.9448  1.2711
  109OSM    H3G11243   5.566   1.004  10.404 -0.1546 -1.0745  0.5760
  109OSM    C4F11244   5.502   1.004  10.201  0.0343  0.7788 -0.3805
  109OSM    H4F11245   5.550   1.098  10.166 -0.1190  0.7041 -0.7941
  109OSM    H4G11246   5.400   1.030  10.239  1.0349  0.9917  2.2561
  109OSM    C5F11247   5.505   0.908  10.074 -0.6930 -0.4389 -0.4989
  109OSM    H5F11248   5.448   0.815  10.097  0.4997 -1.1548 -0.3751
  109OSM    H5G11249   5.609   0.875  10.053 -0.4712  0.5608 -0.9803
  109OSM    C6F11250   5.457   0.977   9.945 -0.6008  0.2529  0.0318
  109OSM    H6F11251   5.524   1.064   9.933 -0.6884  0.4417  0.9037
  109OSM    H6G11252   5.352   1.010   9.961 -1.4011 -3.1908  2.4372
  109OSM    C7F11253   5.468   0.895   9.818 -0.3973 -0.0115 -0.1510
  109OSM    H7F11254   5.420   0.799   9.850 -0.7523  0.5149  0.9263
  109OSM    H7G11255   5.574   0.873   9.796 -0.7008 -2.2036  0.4277
  109OSM    C8F11256   5.414   0.930   9.682  1.6406 -1.1482 -0.4827
  109OSM    H8F11257   5.412   0.830   9.633 -0.5178 -2.9552  3.0319
  109OSM    H8G11258   5.486   0.987   9.620 -1.4395 -0.4060 -3.4996
  109OSM    C9F11259   5.272   0.991   9.668  0.4373 -0.5011  0.5320
  109OSM    H9F11260   5.204   0.977   9.753 -0.1357  0.8854  0.3143
  109OSM   C10F11261   5.234   1.068   9.563  0.1914  0.6055  0.6873
  109OSM   H10F11262   5.133   1.111   9.573  0.9598  2.2898  1.4914
  109OSM   C11F11263   5.304   1.104   9.439  0.1532  0.0537  0.0886
  109OSM   H11F11264   5.399   1.046   9.436 -0.3566 -0.7204 -1.7707
  109OSM   H11G11265   5.333   1.212   9.444  1.4853 -0.2902 -0.1001
  109OSM   C12F11266   5.209   1.080   9.321 -0.0518  0.0488  0.2103
  109OSM   H12F11267   5.108   1.118   9.350 -0.4493 -1.3631  0.7040
  109OSM   H12G11268   5.213   0.971   9.301  5.7862  0.0817  0.3360
  109OSM   C13F11269   5.244   1.167   9.199  0.3424 -0.4890  1.3713
  109OSM   H13F11270   5.352   1.152   9.182  0.3318 -1.0835  1.7865
  109OSM   H13G11271   5.227   1.272   9.231  0.7928  0.3613 -1.0984
  109OSM   C14F11272   5.164   1.134   9.075 -0.5104  0.4725 -0.2979
  109OSM   H14F11273   5.202   1.206   8.999  1.7875 -1.6418 -1.2309
  109OSM   H14G11274   5.058   1.162   9.095 -0.1791  0.7607  1.1737
  109OSM   C15F11275   5.182   0.996   9.026  0.0241  0.0861  0.2664
  109OSM   H15F11276   5.160   0.911   9.096  1.4543  1.6749  2.7140
  109OSM   H15G11277   5.292   0.992   9.017  0.0568 -1.4547  1.0329
  109OSM   C16F11278   5.122   0.982   8.887  0.3767 -0.4347 -0.3090
  109OSM   H16F11279   5.199   0.927   8.828  0.1513  0.7319 -1.7141
  109OSM   H16G11280   5.096   1.082   8.848 -0.2524 -1.1286 -1.6759
  109OSM   C17F11281   4.987   0.899   8.881 -0.2423 -0.0806 -0.2606
  109OSM   H17F11282   4.903   0.965   8.912 -0.4164  0.3575 -1.6063
  109OSM   H17G11283   4.993   0.817   8.955 -0.0638 -0.2869 -0.5070
  109OSM   C18F11284   4.955   0.845   8.745 -0.3527  0.3840 -0.5362
  109OSM   H18F11285   5.035   0.771   8.721  0.9240  0.6065  2.7214
  109OSM   H18G11286   4.957   0.921   8.664  1.2357  0.5297 -0.3786
  109OSM   H18H11287   4.853   0.802   8.740 -1.1698  2.2895 -0.8030
  110OSM      N11288   6.584   5.864  10.646 -0.3731 -0.0426 -0.6461
  110OSM    C1511289   6.577   5.713  10.642  0.2323 -0.1708  0.4902
  110OSM   H15A11290   6.610   5.676  10.547 -1.4831  0.1082 -0.2367
  110OSM   H15B11291   6.473   5.684  10.648  0.4974 -1.5347 -1.3093
  110OSM   H15C11292   6.622   5.663  10.727  0.7504 -0.4828  0.0340
  110OSM    C1411293   6.524   5.917  10.520 -0.7471  0.5262  0.4569
  110OSM   H14A11294   6.583   5.896  10.432  0.0510 -0.9123  1.3199
  110OSM   H14B11295   6.516   6.024  10.535  1.2446  0.7177  0.2813
  110OSM   H14C11296   6.421   5.887  10.510 -1.4480  2.5461  1.1618
  110OSM    C1311297   6.514   5.911  10.774  0.5884  0.7201  0.1216
  110OSM   H13A11298   6.412   5.874  10.775  0.8901 -0.2820 -2.2537
  110OSM   H13B11299   6.505   6.018  10.787 -1.8427  0.1745  3.8422
  110OSM   H13C11300   6.557   5.871  10.865  0.6548  1.6240  0.4900
  110OSM    C1211301   6.733   5.906  10.651 -0.7406 -0.5665  0.7015
  110OSM   H12A11302   6.742   6.013  10.643 -1.7789 -0.3331  2.4338
  110OSM   H12B11303   6.771   5.851  10.566 -0.7516 -0.9497  0.9423
  110OSM    C1111304   6.810   5.864  10.780  0.4289 -0.0254 -0.2063
  110OSM   H11A11305   6.767   5.926  10.862 -0.9624 -1.6462  0.3183
  110OSM   H11B11306   6.919   5.884  10.765  0.5187  0.8686  1.4994
  110OSM      P11307   6.909   5.622  10.821  0.0528  0.4799  0.3933
  110OSM    O1311308   6.997   5.677  10.927 -0.9652 -0.2670  0.3249
  110OSM    O1411309   6.850   5.485  10.830  0.2196 -0.8536  0.5368
  110OSM    O1111310   6.984   5.645  10.687  0.2838  0.0567 -0.2651
  110OSM    O1211311   6.796   5.730  10.813  0.1655  0.6936 -0.5711
  110OSM    C1S11312   6.934   5.592  10.574  0.0892 -0.8571 -0.6107
  110OSM    H1S11313   6.824   5.610  10.568  0.0412 -0.2645  1.4932
  110OSM    H1T11314   6.955   5.483  10.567 -2.2558 -1.3323 -0.6013
  110OSM     NF11315   6.939   5.613  10.327 -0.2588  0.1961 -0.2620
  110OSM    HNF11316   6.997   5.560  10.265  0.0901  0.7980 -0.4568
  110OSM    C2S11317   6.998   5.661  10.445 -0.3660 -0.4033 -0.0879
  110OSM    H2S11318   6.979   5.770  10.448 -0.3789 -0.4014 -0.2145
  110OSM    C3S11319   7.152   5.637  10.458  0.0846  0.0266  0.1741
  110OSM    H3S11320   7.180   5.530  10.468  1.5522  0.1395 -2.1817
  110OSM     O311321   7.225   5.691  10.564 -0.3537 -1.0448  0.2678
  110OSM    HO311322   7.152   5.701  10.626  1.4506  0.5967  2.2146
  110OSM    C4S11323   7.221   5.680  10.330  0.0107 -0.0918 -0.4990
  110OSM    H4S11324   7.249   5.593  10.269  2.5887 -0.4690  1.1737
  110OSM    C5S11325   7.258   5.806  10.294 -0.0317 -0.5824  0.3517
  110OSM    H5S11326   7.242   5.889  10.364  0.2780 -1.1448  1.0961
  110OSM    C6S11327   7.335   5.840  10.170 -0.2775  0.8885  0.3912
  110OSM    H6S11328   7.382   5.745  10.137  0.0932  1.2792 -0.2132
  110OSM    H6T11329   7.429   5.896  10.190  0.6766 -0.9718  1.3420
  110OSM    C7S11330   7.260   5.899  10.053 -0.3405 -0.2761 -0.2117
  110OSM    H7S11331   7.231   6.005  10.072  0.9774  0.2735 -1.1851
  110OSM    H7T11332   7.164   5.846  10.039 -0.9395  0.9164 -0.7266
  110OSM    C8S11333   7.353   5.892   9.933  0.5200 -0.7456 -0.0026
  110OSM    H8S11334   7.372   5.785   9.910  1.4277 -0.6295  0.1742
  110OSM    H8T11335   7.450   5.944   9.952 -0.7635  0.7736  2.7034
  110OSM    C9S11336   7.290   5.953   9.804  0.1917  0.1888 -0.2539
  110OSM    H9S11337   7.267   6.059   9.829  1.1238  0.2718  0.3078
  110OSM    H9T11338   7.197   5.896   9.785  0.7373 -0.4049 -1.1911
  110OSM   C10S11339   7.370   5.936   9.677 -0.0373 -0.3601 -0.1340
  110OSM   H10S11340   7.355   5.831   9.645  0.0338 -0.4174  0.0218
  110OSM   H10T11341   7.474   5.964   9.706 -0.7121  2.6398 -0.3734
  110OSM   C11S11342   7.326   6.031   9.565 -0.3141  0.1624  0.9159
  110OSM   H11S11343   7.335   6.138   9.591  0.8190  0.0710  0.9320
  110OSM   H11T11344   7.218   6.013   9.545 -0.0272 -1.9659  1.1467
  110OSM   C12S11345   7.409   6.007   9.430 -0.9970 -0.3812 -0.7251
  110OSM   H12S11346   7.382   5.905   9.394  1.1521 -1.6359  1.1165
  110OSM   H12T11347   7.516   6.015   9.458 -0.9145 -0.6922 -0.9535
  110OSM   C13S11348   7.366   6.106   9.317  0.2270  0.3620 -0.0772
  110OSM   H13S11349   7.385   6.200   9.373  2.4810 -0.1788  0.1146
  110OSM   H13T11350   7.256   6.106   9.297  0.1314  2.5361  0.3624
  110OSM   C14S11351   7.428   6.092   9.179  0.0594  0.2121 -0.2540
  110OSM   H14S11352   7.538   6.076   9.188 -0.4387 -3.5162 -0.0861
  110OSM   H14T11353   7.415   6.185   9.119 -1.7149  1.6735  2.3303
  110OSM   C15S11354   7.372   5.978   9.094  0.7161  0.1534 -0.3772
  110OSM   H15S11355   7.262   5.993   9.088  0.2887 -2.0986  1.3291
  110OSM   H15T11356   7.379   5.878   9.143 -0.7455  0.1534 -0.1514
  110OSM   C16S11357   7.428   5.978   8.948  0.3653  0.9419  0.1354
  110OSM   H16S11358   7.538   5.993   8.954  0.8703 -1.0329 -2.6064
  110OSM   H16T11359   7.374   6.054   8.887 -1.0212 -0.1915 -0.0985
  110OSM   C17S11360   7.417   5.845   8.875 -0.2259  0.2933 -0.7223
  110OSM   H17S11361   7.488   5.775   8.923 -1.3850 -1.0452 -0.9299
  110OSM   H17T11362   7.443   5.861   8.768 -0.1716  0.0222 -0.7508
  110OSM   C18S11363   7.280   5.772   8.879  0.0215 -0.2004  0.4428
  110OSM   H18S11364   7.272   5.682   8.814 -0.2151  0.3488 -0.2974
  110OSM   H18T11365   7.201   5.840   8.842 -0.5715 -0.6207  0.9274
  110OSM   H18U11366   7.254   5.741   8.982  1.2320 -1.5224  0.3708
  110OSM    C1F11367   6.823   5.657  10.288 -0.2945  0.5821  0.6237
  110OSM     OF11368   6.766   5.735  10.359 -0.1572 -0.0561  0.4741
  110OSM    C2F11369   6.761   5.608  10.159 -0.5913  0.2909 -0.0704
  110OSM    H2F11370   6.659   5.565  10.168 -0.3354 -0.5150 -0.9436
  110OSM    H2G11371   6.826   5.534  10.108  1.5057  2.0737 -0.0391
  110OSM    C3F11372   6.749   5.726  10.058 -0.0614 -0.2570  0.5969
  110OSM    H3F11373   6.663   5.792  10.083  1.1648  1.1152  1.2244
  110OSM    H3G11374   6.719   5.693   9.957  2.3152  1.8890 -0.8666
  110OSM    C4F11375   6.879   5.796  10.038  0.1681  0.1341 -0.0778
  110OSM    H4F11376   6.938   5.759   9.952 -0.8901  1.4660 -1.3874
  110OSM    H4G11377   6.951   5.789  10.122  0.8562 -0.2157 -0.6922
  110OSM    C5F11378   6.844   5.948  10.027  0.3221 -0.0138 -0.3926
  110OSM    H5F11379   6.921   6.022  10.059  1.0309  0.0688 -2.2686
  110OSM    H5G11380   6.769   5.962  10.109 -0.5983  0.4071 -1.2976
  110OSM    C6F11381   6.788   5.978   9.885 -0.4311 -0.1763  0.3957
  110OSM    H6F11382   6.735   6.076   9.887  0.4146  0.3553 -1.6323
  110OSM    H6G11383   6.717   5.895   9.867  1.5036 -1.9446  0.7539
  110OSM    C7F11384   6.903   5.983   9.788 -0.5832 -0.2490 -0.4781
  110OSM    H7F11385   6.947   5.881   9.788 -1.5564 -0.6736 -1.2401
  110OSM    H7G11386   6.985   6.044   9.831 -0.0506 -0.6351 -0.9364
  110OSM    C8F11387   6.866   6.037   9.649 -0.1034  0.0014  0.5094
  110OSM    H8F11388   6.967   6.059   9.608 -1.6342  0.7697 -3.0541
  110OSM    H8G11389   6.799   6.124   9.669 -1.6658 -1.2091  0.6058
  110OSM    C9F11390   6.806   5.928   9.558  0.4316  0.4857 -0.1162
  110OSM    H9F11391   6.704   5.894   9.581  1.0021  0.4013  2.3976
  110OSM   C10F11392   6.857   5.871   9.450 -0.3108 -0.1447  0.1343
  110OSM   H10F11393   6.788   5.815   9.386  0.8633 -2.4734  0.8403
  110OSM   C11F11394   6.991   5.880   9.385 -0.5109  0.3738 -0.0623
  110OSM   H11F11395   7.034   5.778   9.370  1.6517  1.3035 -0.3320
  110OSM   H11G11396   7.055   5.942   9.451 -2.5498 -0.4006  2.7736
  110OSM   C12F11397   6.983   5.954   9.247  0.1600 -0.4277  0.4147
  110OSM   H12F11398   6.903   5.905   9.187  0.3478 -2.4517  1.7609
  110OSM   H12G11399   7.081   5.941   9.196  1.0642  2.2982  1.3876
  110OSM   C13F11400   6.959   6.104   9.254  0.3283 -0.0655  0.3895
  110OSM   H13F11401   7.020   6.158   9.330 -1.3221 -0.4527  2.0444
  110OSM   H13G11402   6.856   6.110   9.296 -0.0863 -3.3762 -0.0305
  110OSM   C14F11403   6.968   6.161   9.117  0.0356 -0.3526  1.1671
  110OSM   H14F11404   7.062   6.133   9.066 -1.7753 -1.3397 -1.7950
  110OSM   H14G11405   6.961   6.271   9.108 -0.1066 -0.5094 -1.0127
  110OSM   C15F11406   6.854   6.113   9.021 -0.6631 -0.2086 -0.2811
  110OSM   H15F11407   6.765   6.178   9.025 -1.5173 -1.3019 -1.0364
  110OSM   H15G11408   6.814   6.019   9.065 -1.5227 -0.0722 -0.7651
  110OSM   C16F11409   6.908   6.099   8.876  0.1994  0.0425 -0.1655
  110OSM   H16F11410   6.998   6.034   8.877 -0.3980 -0.7662  0.5345
  110OSM   H16G11411   6.937   6.205   8.859 -1.7623  0.7400  0.6511
  110OSM   C17F11412   6.800   6.045   8.769 -0.2523  0.7989 -0.3505
  110OSM   H17F11413   6.713   6.113   8.779  0.4251  1.4295  1.4770
  110OSM   H17G11414   6.764   5.944   8.798  1.0907  0.8798  1.6387
  110OSM   C18F11415   6.854   6.048   8.621  0.4911 -0.1821  0.1739
  110OSM   H18F11416   6.887   6.151   8.593  1.0104 -0.6113 -0.8086
  110OSM   H18G11417   6.775   6.030   8.546  1.6306  0.2997 -1.1697
  110OSM   H18H11418   6.934   5.972   8.604  0.5713  0.1599 -0.9688
  111OSM      N11419   0.650   3.260  10.912  0.2886  0.3674  0.1173
  111OSM    C1511420   0.718   3.179  10.813  0.7876  0.1577  0.7455
  111OSM   H15A11421   0.753   3.243  10.734 -2.0873  2.2468  1.0797
  111OSM   H15B11422   0.641   3.123  10.761  0.6859  0.6648  0.3536
  111OSM   H15C11423   0.798   3.114  10.849  1.7141  0.9228  0.0848
  111OSM    C1411424   0.550   3.171  10.986 -0.2106 -0.2517  0.7637
  111OSM   H14A11425   0.594   3.074  10.999 -0.6408 -0.4150  1.0112
  111OSM   H14B11426   0.457   3.158  10.933 -0.9512  1.8601  1.4640
  111OSM   H14C11427   0.507   3.208  11.079 -3.0910 -2.1286  0.2281
  111OSM    C1311428   0.751   3.315  11.013 -0.7330 -0.4021  0.9750
  111OSM   H13A11429   0.791   3.239  11.078  0.9681 -0.0956  0.2923
  111OSM   H13B11430   0.702   3.392  11.072  1.4678  0.7823  1.3181
  111OSM   H13C11431   0.840   3.352  10.965 -1.4502 -1.0191 -0.8642
  111OSM    C1211432   0.581   3.369  10.841 -0.7565 -0.1587  0.2761
  111OSM   H12A11433   0.549   3.441  10.915  2.2503  0.3011  1.1914
  111OSM   H12B11434   0.500   3.326  10.784 -0.8957  0.1205  0.2606
  111OSM    C1111435   0.667   3.447  10.733 -0.1617 -0.0914 -0.1506
  111OSM   H11A11436   0.589   3.505  10.680  1.0397  1.4283 -0.3042
  111OSM   H11B11437   0.715   3.381  10.657 -1.1613  0.5084 -1.3117
  111OSM      P11438   0.911   3.545  10.783 -0.1977  0.1789  0.3690
  111OSM    O1311439   0.958   3.605  10.907  0.3575  0.1841  0.0795
  111OSM    O1411440   0.959   3.408  10.748  0.1621  0.2217 -0.0351
  111OSM    O1111441   0.937   3.642  10.664 -0.3384 -0.0333 -0.0767
  111OSM    O1211442   0.755   3.545  10.789  0.0980 -0.4318  0.4850
  111OSM    C1S11443   0.841   3.746  10.634  0.4216 -0.3729  0.0235
  111OSM    H1S11444   0.872   3.843  10.678  2.1433 -0.2042 -1.5168
  111OSM    H1T11445   0.739   3.719  10.670  0.4984 -0.0277  0.5015
  111OSM     NF11446   0.752   3.901  10.448 -0.0872  0.6287 -0.2101
  111OSM    HNF11447   0.659   3.897  10.412  0.3017 -0.1689 -1.1385
  111OSM    C2S11448   0.835   3.778  10.475  0.1488  0.0287  0.2253
  111OSM    H2S11449   0.940   3.800  10.444 -0.1099  1.1801  0.1466
  111OSM    C3S11450   0.794   3.649  10.404  0.9513 -0.3727 -0.0818
  111OSM    H3S11451   0.698   3.614  10.446  1.0343  0.7271  1.0314
  111OSM     O311452   0.894   3.543  10.402 -0.0416  0.0641 -0.1730
  111OSM    HO311453   0.941   3.550  10.486 -1.9691 -1.7642  1.0954
  111OSM    C4S11454   0.786   3.686  10.254 -0.2684  0.0307 -0.4083
  111OSM    H4S11455   0.887   3.697  10.213  0.2268 -2.6144 -0.0111
  111OSM    C5S11456   0.684   3.689  10.172 -0.3159  0.4033  0.2527
  111OSM    H5S11457   0.584   3.667  10.211 -0.1761  0.3543  0.5852
  111OSM    C6S11458   0.687   3.718  10.028  0.1835 -0.6391 -0.0792
  111OSM    H6S11459   0.687   3.829  10.020 -0.7612 -0.4755  1.8353
  111OSM    H6T11460   0.603   3.673   9.972 -0.9345 -0.5379  1.4592
  111OSM    C7S11461   0.811   3.675   9.960  0.4635  0.5163  0.1210
  111OSM    H7S11462   0.813   3.565   9.973  1.1039  0.7156  1.7679
  111OSM    H7T11463   0.900   3.727  10.001  1.2157 -0.4139 -0.3042
  111OSM    C8S11464   0.814   3.697   9.809  0.8990  0.6881  0.7809
  111OSM    H8S11465   0.763   3.793   9.786 -0.1680 -0.2742 -1.0306
  111OSM    H8T11466   0.755   3.620   9.755  1.4895  1.6519 -1.2772
  111OSM    C9S11467   0.952   3.718   9.749  0.1797  0.2974 -0.3769
  111OSM    H9S11468   1.022   3.633   9.769  2.4761  2.0135 -0.8871
  111OSM    H9T11469   1.009   3.801   9.797 -0.7388 -0.2662  1.7623
  111OSM   C10S11470   0.952   3.736   9.607 -0.4674  0.0721 -0.5965
  111OSM   H10S11471   0.865   3.682   9.564 -0.1545  0.6882 -2.0693
  111OSM   H10T11472   1.050   3.700   9.570 -0.9068 -0.5505 -1.1606
  111OSM   C11S11473   0.936   3.885   9.563 -0.4491 -0.7447 -0.1578
  111OSM   H11S11474   1.036   3.935   9.559  0.3898 -2.4390 -0.8306
  111OSM   H11T11475   0.876   3.938   9.640 -1.5550 -1.7252 -0.3467
  111OSM   C12S11476   0.868   3.897   9.426  0.4214 -1.0004 -0.2492
  111OSM   H12S11477   0.763   3.863   9.437 -0.2029  0.8369 -0.3702
  111OSM   H12T11478   0.915   3.829   9.351  1.3935  0.2671 -0.8136
  111OSM   C13S11479   0.876   4.031   9.348 -0.0563 -0.0592  0.1087
  111OSM   H13S11480   0.977   4.076   9.364  0.6730 -2.3097  2.2875
  111OSM   H13T11481   0.797   4.095   9.392 -0.9403 -1.4708  0.5810
  111OSM   C14S11482   0.856   4.014   9.196  0.0079 -0.4307  0.0256
  111OSM   H14S11483   0.763   3.958   9.175 -0.3860  0.1817  0.1335
  111OSM   H14T11484   0.943   3.953   9.161  0.3904  0.0765  0.0890
  111OSM   C15S11485   0.867   4.152   9.119 -0.7550  0.6066 -0.1647
  111OSM   H15S11486   0.967   4.200   9.130 -1.6331  2.1602  1.2818
  111OSM   H15T11487   0.786   4.216   9.161 -1.3693 -1.2121  1.4398
  111OSM   C16S11488   0.839   4.140   8.961 -0.0648  0.0562  0.3465
  111OSM   H16S11489   0.738   4.092   8.964 -0.6119  1.2359  2.4129
  111OSM   H16T11490   0.914   4.080   8.905 -0.4080  0.7353 -0.8475
  111OSM   C17S11491   0.812   4.274   8.889  0.4113  0.1092 -0.5310
  111OSM   H17S11492   0.730   4.325   8.945 -1.6788 -2.5251 -1.0872
  111OSM   H17T11493   0.779   4.267   8.783 -1.8775  3.2323 -0.1016
  111OSM   C18S11494   0.930   4.374   8.898 -0.2033 -0.1644 -0.3386
  111OSM   H18S11495   0.951   4.392   9.006 -1.9480  1.0705 -0.1779
  111OSM   H18T11496   0.904   4.477   8.867  0.6925  1.4175  3.8406
  111OSM   H18U11497   1.022   4.341   8.846  0.5926 -3.0787  2.7773
  111OSM    C1F11498   0.804   4.016  10.478  0.9262  0.4595 -0.1905
  111OSM     OF11499   0.924   4.027  10.491  0.3605 -0.1503 -0.1310
  111OSM    C2F11500   0.700   4.128  10.480 -0.4295 -0.1790 -0.1358
  111OSM    H2F11501   0.673   4.158  10.584  2.9698  0.5059  0.6224
  111OSM    H2G11502   0.610   4.101  10.421 -0.6965  0.1388  0.1205
  111OSM    C3F11503   0.766   4.263  10.421  0.8468  0.6149 -0.0245
  111OSM    H3F11504   0.870   4.272  10.459 -0.2156  1.1726  2.8606
  111OSM    H3G11505   0.715   4.358  10.448 -1.8792 -0.1575 -2.2584
  111OSM    C4F11506   0.784   4.254  10.268  0.2524 -0.4320  0.1106
  111OSM    H4F11507   0.814   4.150  10.243  0.0196 -0.9845  2.0889
  111OSM    H4G11508   0.866   4.323  10.238 -0.6578  0.5784 -0.1166
  111OSM    C5F11509   0.665   4.281  10.176  0.0587 -0.2641 -0.0944
  111OSM    H5F11510   0.649   4.391  10.188 -0.5557 -0.4125  0.4751
  111OSM    H5G11511   0.582   4.215  10.210  0.2062 -0.9454 -1.0510
  111OSM    C6F11512   0.702   4.257  10.031  0.4781  0.5866  0.3281
  111OSM    H6F11513   0.734   4.151  10.018 -1.4604 -0.2118  1.8602
  111OSM    H6G11514   0.771   4.337   9.998  3.0440 -1.1266  1.3914
  111OSM    C7F11515   0.569   4.258   9.946 -0.4057 -0.2080  0.1503
  111OSM    H7F11516   0.515   4.348   9.982  0.6388  1.0344 -1.3371
  111OSM    H7G11517   0.515   4.169   9.986  1.9305 -1.0385  1.5482
  111OSM    C8F11518   0.577   4.261   9.795 -0.1077  0.0913  0.6389
  111OSM    H8F11519   0.638   4.350   9.766  1.1585 -0.3168  1.9926
  111OSM    H8G11520   0.475   4.287   9.760  0.5623  2.3731  0.2866
  111OSM    C9F11521   0.631   4.139   9.727 -0.2104  0.1516  0.3631
  111OSM    H9F11522   0.716   4.092   9.779  0.1106 -0.7515 -0.9413
  111OSM   C10F11523   0.595   4.085   9.609  0.5283  0.0289 -0.2437
  111OSM   H10F11524   0.657   4.004   9.568 -0.9546 -1.9812  1.3570
  111OSM   C11F11525   0.476   4.117   9.515 -0.1405  0.1838 -0.0556
  111OSM   H11F11526   0.424   4.206   9.557  0.0611  0.3549 -0.1682
  111OSM   H11G11527   0.411   4.028   9.530 -0.2981  0.5141  1.3362
  111OSM   C12F11528   0.504   4.134   9.365  0.4731  0.1028  0.1489
  111OSM   H12F11529   0.565   4.045   9.338  1.0091  1.1512 -2.2062
  111OSM   H12G11530   0.574   4.219   9.349  1.0425 -0.4392 -0.2474
  111OSM   C13F11531   0.397   4.156   9.259 -0.4325  0.2476  0.4411
  111OSM   H13F11532   0.330   4.238   9.293 -1.7745 -0.7614  0.2715
  111OSM   H13G11533   0.334   4.065   9.260 -2.4518  1.6017 -0.1254
  111OSM   C14F11534   0.463   4.200   9.128  0.7387  0.0803  0.5406
  111OSM   H14F11535   0.549   4.136   9.099  1.4462  0.5566  1.5707
  111OSM   H14G11536   0.510   4.300   9.138  0.1156  0.8809 -3.3899
  111OSM   C15F11537   0.377   4.215   9.007  0.2965 -0.1558  0.7939
  111OSM   H15F11538   0.284   4.262   9.045  0.2466  0.7241 -0.3719
  111OSM   H15G11539   0.347   4.118   8.962  0.3757 -0.2943  1.0422
  111OSM   C16F11540   0.430   4.312   8.896 -0.4399  0.0580  0.1943
  111OSM   H16F11541   0.534   4.282   8.869  0.5646  0.9228  2.9033
  111OSM   H16G11542   0.426   4.415   8.938 -2.8146  0.0549  0.0411
  111OSM   C17F11543   0.345   4.304   8.768  0.1739  0.4291  1.2054
  111OSM   H17F11544   0.237   4.309   8.793  0.2182  1.7029  1.2070
  111OSM   H17G11545   0.364   4.205   8.723  1.9154  0.6368  1.4429
  111OSM   C18F11546   0.371   4.409   8.666 -0.3431 -0.4061  0.6588
  111OSM   H18F11547   0.335   4.380   8.565 -0.6208  0.9675  0.3638
  111OSM   H18G11548   0.479   4.429   8.647 -0.7328  2.9471  1.7167
  111OSM   H18H11549   0.325   4.505   8.696  0.4379  1.1427 -2.8800
  112OSM      N11550   0.013   2.120  11.016 -0.7826  0.1345 -0.4795
  112OSM    C1511551   0.072   2.251  10.993  0.0483 -0.0699 -0.8918
  112OSM   H15A11552   0.117   2.300  11.078 -0.9765 -0.7364  0.0516
  112OSM   H15B11553  -0.009   2.317  10.965 -0.4961 -0.1944  0.3763
  112OSM   H15C11554   0.155   2.249  10.925  1.4537  1.5522  0.7282
  112OSM    C1411555   0.120   2.040  11.077 -0.2680 -0.1792  0.4890
  112OSM   H14A11556   0.211   2.052  11.019 -1.0038 -1.2210 -0.9042
  112OSM   H14B11557   0.100   1.934  11.083 -2.9960  0.2464 -0.3119
  112OSM   H14C11558   0.134   2.085  11.174 -0.3785  1.6161 -0.2892
  112OSM    C1311559  -0.103   2.140  11.110  0.4511 -0.0409  0.0194
  112OSM   H13A11560  -0.180   2.065  11.096  0.1464  0.2907 -0.1085
  112OSM   H13B11561  -0.153   2.233  11.087 -0.3161 -0.2186  0.9301
  112OSM   H13C11562  -0.068   2.144  11.212  1.4777 -3.6047 -0.1273
  112OSM    C1211563  -0.030   2.053  10.893 -0.2153 -0.2101 -0.1932
  112OSM   H12A11564  -0.048   1.952  10.925  2.8257 -1.2156 -1.4488
  112OSM   H12B11565   0.055   2.048  10.826 -1.0599 -1.0864 -1.2288
  112OSM    C1111566  -0.152   2.112  10.812  0.3639 -0.5442 -0.0171
  112OSM   H11A11567  -0.154   2.062  10.712  1.0264  0.6611 -0.6483
  112OSM   H11B11568  -0.134   2.220  10.793 -0.3479 -0.1743  1.3762
  112OSM      P11569  -0.381   1.989  10.872 -0.5491 -0.2475  0.0974
  112OSM    O1311570  -0.342   1.899  10.984  0.3321 -0.0842 -0.8676
  112OSM    O1411571  -0.513   2.056  10.871 -0.0635  0.3800 -0.2298
  112OSM    O1111572  -0.348   1.920  10.737 -0.2860 -0.6070  0.6715
  112OSM    O1211573  -0.282   2.115  10.875  0.2521 -0.4967  0.2706
  112OSM    C1S11574  -0.419   1.957  10.619  0.6085 -0.5386  0.4054
  112OSM    H1S11575  -0.431   2.068  10.615 -1.6258 -0.7766 -0.2744
  112OSM    H1T11576  -0.516   1.905  10.605  0.0725  0.5282  0.1113
  112OSM     NF11577  -0.440   1.923  10.385  0.1798 -0.4816  0.3728
  112OSM    HNF11578  -0.489   1.840  10.361  2.5129 -1.7128 -0.3086
  112OSM    C2S11579  -0.345   1.921  10.488  0.0099 -0.4014 -0.8130
  112OSM    H2S11580  -0.275   2.006  10.472 -0.6605  0.9016  2.8444
  112OSM    C3S11581  -0.264   1.789  10.498  0.6509 -0.4402  0.5020
  112OSM    H3S11582  -0.341   1.720  10.539  0.2589  0.0117  0.5306
  112OSM     O311583  -0.158   1.782  10.598  0.8446 -0.2719 -0.3257
  112OSM    HO311584  -0.192   1.843  10.664 -2.0953 -1.9359 -0.1886
  112OSM    C4S11585  -0.219   1.755  10.359  0.4878  0.7388  0.4745
  112OSM    H4S11586  -0.299   1.700  10.308 -2.3989  3.1497  2.1930
  112OSM    C5S11587  -0.105   1.780  10.297  0.0524  0.5526 -0.2359
  112OSM    H5S11588  -0.028   1.833  10.355 -0.1270  1.2773 -0.6502
  112OSM    C6S11589  -0.059   1.737  10.160  0.0878  1.0742  0.3965
  112OSM    H6S11590   0.022   1.661  10.168  1.9577  2.9097 -0.5977
  112OSM    H6T11591   0.006   1.816  10.116 -0.3242  0.3666 -1.5261
  112OSM    C7S11592  -0.169   1.703  10.056 -0.2598 -0.6808  0.3690
  112OSM    H7S11593  -0.258   1.769  10.068  0.5403  0.3864  0.5037
  112OSM    H7T11594  -0.208   1.602  10.083 -0.6667 -0.7164 -0.3388
  112OSM    C8S11595  -0.124   1.699   9.909  0.0739 -0.4055  0.7492
  112OSM    H8S11596  -0.028   1.643   9.901 -1.5894 -3.4926  1.6115
  112OSM    H8T11597  -0.100   1.804   9.882  2.7605 -0.5400  2.3742
  112OSM    C9S11598  -0.230   1.640   9.819  0.4760  0.4116 -0.1225
  112OSM    H9S11599  -0.331   1.682   9.838  0.7281  0.4781  1.0888
  112OSM    H9T11600  -0.238   1.532   9.844  1.4853 -0.3012 -2.7585
  112OSM   C10S11601  -0.193   1.660   9.665  0.1557  0.2063 -0.4344
  112OSM   H10S11602  -0.098   1.609   9.638  0.4667 -1.3849  3.3932
  112OSM   H10T11603  -0.171   1.768   9.653 -0.7328  0.4270 -0.0902
  112OSM   C11S11604  -0.306   1.612   9.572 -0.1546 -0.1990  0.2741
  112OSM   H11S11605  -0.401   1.653   9.612 -1.4552 -1.6888 -1.2139
  112OSM   H11T11606  -0.328   1.504   9.586 -0.7662  0.0782  1.5662
  112OSM   C12S11607  -0.280   1.642   9.423 -0.7782  0.0333 -0.4643
  112OSM   H12S11608  -0.187   1.586   9.397 -0.0353  0.6131  0.9049
  112OSM   H12T11609  -0.259   1.749   9.400  2.2656 -0.3250  0.3965
  112OSM   C13S11610  -0.398   1.599   9.339 -0.5263 -0.3317 -0.1237
  112OSM   H13S11611  -0.476   1.675   9.356  0.1811 -0.2160  2.9184
  112OSM   H13T11612  -0.416   1.495   9.376 -0.9876  0.2391  1.3026
  112OSM   C14S11613  -0.364   1.581   9.189  0.4675 -0.4550 -0.2285
  112OSM   H14S11614  -0.454   1.537   9.142  1.3446 -2.5893  0.0267
  112OSM   H14T11615  -0.287   1.501   9.178 -0.6807 -1.3889 -1.5653
  112OSM   C15S11616  -0.324   1.708   9.120 -0.5688  0.4381 -0.4761
  112OSM   H15S11617  -0.247   1.764   9.177 -0.3957 -1.2934  1.0489
  112OSM   H15T11618  -0.410   1.777   9.102 -3.0299 -2.3353  0.1271
  112OSM   C16S11619  -0.250   1.673   8.998 -0.0174 -0.1380  0.4507
  112OSM   H16S11620  -0.316   1.617   8.929  0.9791  0.4887 -1.0475
  112OSM   H16T11621  -0.162   1.609   9.022 -0.0743 -0.4305 -0.1385
  112OSM   C17S11622  -0.200   1.807   8.934 -0.2088  0.2293 -0.2746
  112OSM   H17S11623  -0.107   1.787   8.876 -0.3036  2.1932 -1.1546
  112OSM   H17T11624  -0.174   1.874   9.018  1.5716  1.2833 -1.6227
  112OSM   C18S11625  -0.300   1.882   8.844 -0.1320  0.3706  0.3143
  112OSM   H18S11626  -0.305   1.831   8.746 -2.7876  0.6022  0.2915
  112OSM   H18T11627  -0.269   1.986   8.819 -1.7154  0.7645 -0.1023
  112OSM   H18U11628  -0.406   1.885   8.876 -0.6981  1.5106 -1.5658
  112OSM    C1F11629  -0.481   2.038  10.332  0.0449 -0.4547 -0.0139
  112OSM     OF11630  -0.439   2.149  10.367  0.1161 -0.3488 -0.1119
  112OSM    C2F11631  -0.580   2.010  10.217 -0.0435 -0.3802 -0.5747
  112OSM    H2F11632  -0.658   2.088  10.226 -0.0373 -0.4890  0.5214
  112OSM    H2G11633  -0.633   1.913  10.231 -2.8287  1.2963  0.9759
  112OSM    C3F11634  -0.514   2.022  10.072 -0.0931  0.4053  0.9001
  112OSM    H3F11635  -0.428   1.951  10.080 -0.8603 -0.3627  2.7496
  112OSM    H3G11636  -0.475   2.125  10.063 -0.6953  0.3108 -3.6878
  112OSM    C4F11637  -0.612   1.975   9.968  0.1770 -0.7309 -0.0694
  112OSM    H4F11638  -0.691   2.053   9.968  1.1171  0.2483  0.2938
  112OSM    H4G11639  -0.662   1.876   9.979 -0.0337 -0.8067 -1.6502
  112OSM    C5F11640  -0.540   1.970   9.827 -0.7253 -0.3353 -0.2497
  112OSM    H5F11641  -0.449   1.906   9.825 -0.5039  0.0041 -1.2361
  112OSM    H5G11642  -0.500   2.066   9.790  1.0830 -0.3850  1.4664
  112OSM    C6F11643  -0.653   1.909   9.738 -0.6104  0.8018  0.9776
  112OSM    H6F11644  -0.741   1.976   9.742 -0.4769  0.9674  1.1137
  112OSM    H6G11645  -0.682   1.807   9.770 -0.5948  1.3888  2.9121
  112OSM    C7F11646  -0.605   1.899   9.589 -0.1358  0.0074  0.5386
  112OSM    H7F11647  -0.519   1.829   9.590 -0.8057 -0.8968  4.1388
  112OSM    H7G11648  -0.574   2.002   9.561  1.2240 -0.6763 -0.5413
  112OSM    C8F11649  -0.723   1.852   9.496  0.3755  0.1033  0.3856
  112OSM    H8F11650  -0.751   1.750   9.527  1.2230  0.4299  2.2824
  112OSM    H8G11651  -0.686   1.832   9.393 -0.6276  1.8972 -0.3604
  112OSM    C9F11652  -0.830   1.954   9.488  0.3927  0.8914  0.1086
  112OSM    H9F11653  -0.858   2.001   9.583 -0.6878  0.1523  0.1576
  112OSM   C10F11654  -0.903   1.995   9.383 -0.3007 -0.5906 -0.1632
  112OSM   H10F11655  -0.977   2.076   9.384  1.1936  0.8597  3.5933
  112OSM   C11F11656  -0.879   1.936   9.249  0.4295  0.3303  0.9964
  112OSM   H11F11657  -0.780   1.886   9.246  0.1571 -0.2253  1.2366
  112OSM   H11G11658  -0.879   2.019   9.175 -0.3241 -0.1922  0.4066
  112OSM   C12F11659  -0.988   1.834   9.206  0.1358  0.3094 -0.0831
  112OSM   H12F11660  -1.088   1.875   9.233 -0.4671 -1.0428 -0.2585
  112OSM   H12G11661  -0.992   1.747   9.275 -2.2808 -0.4884 -1.1813
  112OSM   C13F11662  -0.981   1.783   9.063 -0.3542  0.8556 -0.3718
  112OSM   H13F11663  -0.989   1.871   8.996 -1.3832  1.3637  0.3962
  112OSM   H13G11664  -1.068   1.717   9.043  0.3326 -0.6109  1.3113
  112OSM   C14F11665  -0.835   1.721   9.047  0.7333  0.2303  1.1586
  112OSM   H14F11666  -0.820   1.644   9.125 -3.7311 -0.3693  1.5241
  112OSM   H14G11667  -0.762   1.804   9.060 -0.3284  1.3787  0.0003
  112OSM   C15F11668  -0.805   1.666   8.908  0.1337  0.0574 -0.2737
  112OSM   H15F11669  -0.816   1.756   8.843 -0.5600  1.5670  1.8366
  112OSM   H15G11670  -0.883   1.590   8.887  0.5634 -0.1073 -1.2754
  112OSM   C16F11671  -0.666   1.602   8.891 -0.2203  0.1323  0.1401
  112OSM   H16F11672  -0.658   1.500   8.935 -0.4538 -0.5532 -1.3780
  112OSM   H16G11673  -0.590   1.668   8.937  0.1802 -1.1093  1.2875
  112OSM   C17F11674  -0.611   1.592   8.745 -0.3865  0.0299 -0.3998
  112OSM   H17F11675  -0.597   1.689   8.694  0.3412  1.5835  2.6115
  112OSM   H17G11676  -0.687   1.540   8.683 -1.0367 -1.1546  1.3300
  112OSM   C18F11677  -0.481   1.506   8.729  0.7838  0.3966 -0.3063
  112OSM   H18F11678  -0.475   1.448   8.634  0.7436  0.8903 -0.6104
  112OSM   H18G11679  -0.489   1.426   8.807 -0.8523  0.6193 -0.2220
  112OSM   H18H11680  -0.386   1.557   8.756  1.3970 -1.1088  0.4361
  113OSM      N11681   6.785   1.079  11.116  0.3777  0.1999 -0.3905
  113OSM    C1511682   6.724   1.141  11.235  0.5786 -0.0985 -0.0082
  113OSM   H15A11683   6.788   1.222  11.267 -0.5098  0.1640  1.5739
  113OSM   H15B11684   6.719   1.072  11.318  0.0654 -0.4099 -0.2982
  113OSM   H15C11685   6.631   1.189  11.206 -0.1475 -1.1487  0.5708
  113OSM    C1411686   6.905   1.009  11.162  0.3028  0.0725  0.0902
  113OSM   H14A11687   6.987   1.065  11.205  0.3883 -0.0219  0.0511
  113OSM   H14B11688   6.949   0.953  11.081  0.3013 -2.5607  1.8132
  113OSM   H14C11689   6.883   0.925  11.227  0.4780  0.5317  0.7480
  113OSM    C1311690   6.686   0.980  11.071  0.0494  0.6011 -0.1115
  113OSM   H13A11691   6.740   0.918  11.002 -0.1887  0.0984  0.1522
  113OSM   H13B11692   6.602   1.027  11.022  1.1856  1.3032 -1.4316
  113OSM   H13C11693   6.659   0.916  11.153  2.7952 -0.6254 -0.1164
  113OSM    C1211694   6.812   1.183  11.009 -0.3828  0.8512  0.4594
  113OSM   H12A11695   6.863   1.262  11.061  1.3024  0.3887 -0.4596
  113OSM   H12B11696   6.719   1.232  10.984 -0.4576  0.4218 -0.1100
  113OSM    C1111697   6.898   1.148  10.894  0.3078 -0.1847 -0.0263
  113OSM   H11A11698   6.890   1.226  10.814 -2.5755 -0.0331  0.3419
  113OSM   H11B11699   6.875   1.053  10.841 -0.3199  0.6980 -1.3805
  113OSM      P11700   7.141   1.267  10.929 -0.3318  0.2109  0.3446
  113OSM    O1311701   7.101   1.377  11.020 -0.1272 -0.5025  0.1081
  113OSM    O1411702   7.280   1.217  10.954  0.6402  0.6790  0.3888
  113OSM    O1111703   7.135   1.306  10.777  0.0441 -0.6200  0.2455
  113OSM    O1211704   7.036   1.148  10.933  0.2977  0.0150  0.2789
  113OSM    C1S11705   7.162   1.212  10.673  0.5087 -0.2235 -0.0083
  113OSM    H1S11706   7.166   1.108  10.711 -0.2804 -0.4393 -0.5047
  113OSM    H1T11707   7.267   1.226  10.638  0.4588  1.3572  0.4125
  113OSM     NF11708   7.111   1.113  10.456 -0.4775  0.0988 -0.0549
  113OSM    HNF11709   7.184   1.135  10.391  2.5262 -0.0064  3.0916
  113OSM    C2S11710   7.066   1.219  10.546  0.0383  0.1660 -0.1130
  113OSM    H2S11711   6.965   1.180  10.568  0.6538 -2.1340 -1.1616
  113OSM    C3S11712   7.057   1.363  10.485  0.1475  0.5110 -0.4762
  113OSM    H3S11713   7.159   1.398  10.460  0.6956 -0.0797  0.9128
  113OSM     O311714   7.007   1.454  10.582  0.2449 -0.2569 -0.1014
  113OSM    HO311715   7.031   1.402  10.660 -0.6786  1.8530  1.6599
  113OSM    C4S11716   6.982   1.352  10.359 -0.5334  0.1015  0.3637
  113OSM    H4S11717   7.044   1.316  10.276 -2.6021  0.5127 -1.4064
  113OSM    C5S11718   6.855   1.375  10.339  0.0272 -0.1072  0.6804
  113OSM    H5S11719   6.796   1.407  10.426  0.3336 -1.2617  1.3217
  113OSM    C6S11720   6.795   1.355  10.204 -0.0877  0.0452  0.0917
  113OSM    H6S11721   6.783   1.455  10.156 -0.6052  0.3541  0.8547
  113OSM    H6T11722   6.690   1.322  10.215 -0.1804  0.1597 -0.4542
  113OSM    C7S11723   6.846   1.282  10.077 -0.0547 -0.8191  0.7510
  113OSM    H7S11724   6.844   1.171  10.081 -1.5420 -0.8426 -0.3842
  113OSM    H7T11725   6.949   1.317  10.054 -0.5550  1.2193  1.4630
  113OSM    C8S11726   6.761   1.313   9.948 -0.3405 -0.1500 -0.3621
  113OSM    H8S11727   6.776   1.421   9.927 -1.2910  0.0620 -0.0045
  113OSM    H8T11728   6.653   1.295   9.971 -0.3474 -0.0132 -0.2854
  113OSM    C9S11729   6.794   1.228   9.829  0.4993 -0.3488  0.0950
  113OSM    H9S11730   6.763   1.124   9.853  1.1227 -0.8641 -1.2702
  113OSM    H9T11731   6.905   1.224   9.817  0.8554 -0.6416  2.9839
  113OSM   C10S11732   6.730   1.271   9.696 -0.9116 -0.4458 -1.1010
  113OSM   H10S11733   6.745   1.378   9.669 -1.7156 -0.1982 -0.5866
  113OSM   H10T11734   6.622   1.251   9.713 -0.4277 -0.3351  2.3997
  113OSM   C11S11735   6.786   1.186   9.582 -0.0907 -0.4219 -0.7611
  113OSM   H11S11736   6.727   1.092   9.590 -0.2739 -0.2896 -0.5467
  113OSM   H11T11737   6.894   1.166   9.593  0.3103  1.5601 -0.9552
  113OSM   C12S11738   6.743   1.248   9.458 -0.2646  0.7118 -0.6583
  113OSM   H12S11739   6.841   1.242   9.405 -1.3257 -1.3894 -2.4683
  113OSM   H12T11740   6.713   1.355   9.454 -2.6402  0.1320  0.7055
  113OSM   C13S11741   6.631   1.168   9.390  0.1542 -0.1577 -0.1070
  113OSM   H13S11742   6.530   1.199   9.424 -1.0364 -1.2392 -2.4960
  113OSM   H13T11743   6.633   1.058   9.402 -0.5231 -0.0936  0.6390
  113OSM   C14S11744   6.638   1.221   9.246 -0.4213  0.4831 -0.1156
  113OSM   H14S11745   6.725   1.187   9.187 -0.9708 -0.4480 -0.4026
  113OSM   H14T11746   6.648   1.331   9.261 -0.5051  0.6869 -1.4846
  113OSM   C15S11747   6.506   1.188   9.167 -0.1329 -0.4490  0.3360
  113OSM   H15S11748   6.405   1.223   9.199 -0.5153 -1.9592  0.8101
  113OSM   H15T11749   6.487   1.079   9.162  0.5209 -0.5224 -0.6356
  113OSM   C16S11750   6.528   1.230   9.020 -0.5805  0.3529 -0.0536
  113OSM   H16S11751   6.614   1.179   8.972 -0.4055 -0.2360  0.8903
  113OSM   H16T11752   6.536   1.341   9.014 -0.1521  0.3631  0.6733
  113OSM   C17S11753   6.414   1.197   8.926  0.0800  0.1912 -0.1123
  113OSM   H17S11754   6.443   1.211   8.820 -0.8986  4.4913  0.0837
  113OSM   H17T11755   6.332   1.268   8.949 -0.6329 -0.1784 -1.4690
  113OSM   C18S11756   6.362   1.058   8.941  0.7653 -0.0673 -0.1839
  113OSM   H18S11757   6.284   1.048   8.862  1.3046  1.3234 -0.9288
  113OSM   H18T11758   6.311   1.040   9.038  1.4074  0.5195  0.2665
  113OSM   H18U11759   6.441   0.982   8.924  1.8009  1.2634 -1.4823
  113OSM    C1F11760   7.072   0.987  10.468 -0.7859 -0.4245  0.2187
  113OSM     OF11761   7.002   0.960  10.566 -0.6263 -0.1835  0.3304
  113OSM    C2F11762   7.109   0.898  10.357 -0.0008  0.1891  0.1670
  113OSM    H2F11763   7.212   0.917  10.319 -0.2226 -0.3812 -0.7540
  113OSM    H2G11764   7.032   0.916  10.278  0.9310  1.6500 -0.4319
  113OSM    C3F11765   7.109   0.752  10.409  0.0153  0.1915 -0.4319
  113OSM    H3F11766   7.008   0.729  10.449 -1.3202  1.6341 -2.8886
  113OSM    H3G11767   7.163   0.737  10.506  1.3091  2.9553 -0.6719
  113OSM    C4F11768   7.145   0.643  10.305 -0.7136 -0.5985 -0.0696
  113OSM    H4F11769   7.087   0.664  10.213 -1.3554 -1.3220  0.1669
  113OSM    H4G11770   7.121   0.542  10.343  0.9564 -1.0094 -0.0597
  113OSM    C5F11771   7.292   0.660  10.253  0.0729  0.7094  0.0021
  113OSM    H5F11772   7.365   0.682  10.334 -1.9995  3.5841  1.2073
  113OSM    H5G11773   7.298   0.753  10.192 -0.6233  0.6972 -0.0922
  113OSM    C6F11774   7.334   0.553  10.155 -0.2759 -0.3855  0.6768
  113OSM    H6F11775   7.240   0.528  10.103  0.0224  1.2309 -0.6864
  113OSM    H6G11776   7.375   0.466  10.211  0.5425  0.0409  0.7483
  113OSM    C7F11777   7.421   0.595  10.038 -0.2206 -0.3025 -0.0642
  113OSM    H7F11778   7.502   0.659  10.078 -0.9802  1.0140 -0.5843
  113OSM    H7G11779   7.364   0.672   9.980 -0.6299 -1.1694 -0.8328
  113OSM    C8F11780   7.474   0.486   9.950 -0.1188  0.6587 -0.0074
  113OSM    H8F11781   7.541   0.420  10.009 -0.1111  0.0159 -0.7213
  113OSM    H8G11782   7.537   0.529   9.870 -0.8704 -0.1860 -1.0750
  113OSM    C9F11783   7.368   0.395   9.897 -0.4771 -0.4014 -0.0762
  113OSM    H9F11784   7.302   0.372   9.983 -0.7926  2.2386  0.4196
  113OSM   C10F11785   7.341   0.355   9.770 -0.2197 -0.6369  0.1805
  113OSM   H10F11786   7.250   0.300   9.741 -0.1623  0.4006 -2.0812
  113OSM   C11F11787   7.419   0.405   9.645  0.0262 -0.6416 -0.4132
  113OSM   H11F11788   7.519   0.359   9.628  0.9812  0.8918  0.8379
  113OSM   H11G11789   7.455   0.509   9.661 -1.0336 -0.6782  2.4421
  113OSM   C12F11790   7.348   0.406   9.512  0.0706 -0.2234  0.7240
  113OSM   H12F11791   7.310   0.301   9.502 -1.6029  0.5122 -0.9418
  113OSM   H12G11792   7.424   0.419   9.432  2.0486 -1.9452  2.2852
  113OSM   C13F11793   7.233   0.499   9.495  0.2369 -0.2095  0.4130
  113OSM   H13F11794   7.268   0.603   9.479  2.1319 -0.9392 -0.3850
  113OSM   H13G11795   7.178   0.500   9.591 -1.8406 -1.0601 -0.7291
  113OSM   C14F11796   7.126   0.461   9.392 -0.8452 -0.2182  0.4286
  113OSM   H14F11797   7.046   0.537   9.408 -1.4032 -0.9507  1.1812
  113OSM   H14G11798   7.091   0.356   9.403 -2.5128 -0.1427 -3.3113
  113OSM   C15F11799   7.181   0.466   9.252 -0.1282  0.2778  0.9505
  113OSM   H15F11800   7.250   0.380   9.245  0.7822  0.8715  2.5361
  113OSM   H15G11801   7.218   0.566   9.220  0.0601 -1.0117 -3.1501
  113OSM   C16F11802   7.078   0.458   9.142  0.3647  0.3441  1.0338
  113OSM   H16F11803   7.121   0.479   9.042 -1.9280 -0.5570 -0.1798
  113OSM   H16G11804   7.021   0.551   9.164  1.8854  1.7483 -0.8029
  113OSM   C17F11805   6.980   0.342   9.141 -0.4359 -0.1875 -0.4064
  113OSM   H17F11806   6.899   0.376   9.208 -0.7453  1.7894 -1.7371
  113OSM   H17G11807   7.025   0.256   9.195  1.0380  0.6863 -0.2097
  113OSM   C18F11808   6.936   0.297   9.006  0.0325 -0.1357  0.4293
  113OSM   H18F11809   7.024   0.268   8.945 -2.0819 -1.6332 -2.0295
  113OSM   H18G11810   6.885   0.377   8.949  2.2961  0.4927 -0.7716
  113OSM   H18H11811   6.862   0.214   9.005 -0.7984  0.5973 -2.0585
  114OSM      N11812   1.085   6.605  11.119 -0.1711  0.3002 -0.6039
  114OSM    C1511813   0.957   6.536  11.173 -0.3904  0.5102 -0.2854
  114OSM   H15A11814   0.976   6.504  11.274  2.2982 -0.0479 -0.9156
  114OSM   H15B11815   0.933   6.448  11.114  1.3694  0.2693 -0.6814
  114OSM   H15C11816   0.871   6.601  11.166 -2.1197 -1.8750 -2.4715
  114OSM    C1411817   1.083   6.625  10.979  0.2108 -0.5905 -0.2596
  114OSM   H14A11818   1.153   6.698  10.940 -0.8169  0.2958 -0.4792
  114OSM   H14B11819   0.990   6.669  10.947 -0.6221  0.0481  2.9424
  114OSM   H14C11820   1.092   6.534  10.921 -0.0827 -0.6419 -0.2246
  114OSM    C1311821   1.078   6.740  11.182  0.3819  0.0419  0.4753
  114OSM   H13A11822   0.994   6.799  11.149  1.4749 -0.4372 -3.3566
  114OSM   H13B11823   1.163   6.795  11.146 -0.9564  0.3320 -2.4024
  114OSM   H13C11824   1.084   6.738  11.290 -0.2371 -2.1221  0.5073
  114OSM    C1211825   1.215   6.529  11.169 -0.0208 -0.3108  0.3498
  114OSM   H12A11826   1.294   6.579  11.115 -0.3480 -0.1816 -0.0161
  114OSM   H12B11827   1.214   6.428  11.131 -0.5101 -0.3011  0.3251
  114OSM    C1111828   1.247   6.540  11.324 -0.1103  0.2075  0.8049
  114OSM   H11A11829   1.322   6.461  11.346 -1.5558 -1.6752 -0.8259
  114OSM   H11B11830   1.154   6.501  11.371 -0.3833 -0.9810 -0.6743
  114OSM      P11831   1.430   6.717  11.337  0.5396 -0.5208 -0.1459
  114OSM    O1311832   1.425   6.856  11.382 -0.3977 -0.1168  0.3017
  114OSM    O1411833   1.515   6.631  11.421 -0.2098 -0.2215 -0.1176
  114OSM    O1111834   1.443   6.690  11.180  0.4635 -0.3449 -0.4953
  114OSM    O1211835   1.280   6.666  11.365 -0.3015 -0.3742 -0.5582
  114OSM    C1S11836   1.572   6.719  11.126 -0.2198  0.0526  0.2357
  114OSM    H1S11837   1.651   6.655  11.171 -2.0600 -1.2341  1.7203
  114OSM    H1T11838   1.602   6.826  11.138  2.4014 -0.4036 -1.8786
  114OSM     NF11839   1.697   6.679  10.915 -0.2407  0.2456 -0.2404
  114OSM    HNF11840   1.738   6.746  10.853 -2.7777 -0.3860 -2.7057
  114OSM    C2S11841   1.565   6.692  10.977  0.1966 -0.1371 -0.9592
  114OSM    H2S11842   1.510   6.600  10.952 -0.3445  0.2966 -1.3791
  114OSM    C3S11843   1.487   6.808  10.904  0.6591 -0.0503 -0.7236
  114OSM    H3S11844   1.550   6.899  10.915 -0.0551 -0.0287  3.7990
  114OSM     O311845   1.356   6.816  10.968 -0.1230 -0.3050  0.1724
  114OSM    HO311846   1.354   6.753  11.040  0.3774 -1.2159 -0.5949
  114OSM    C4S11847   1.476   6.786  10.751  0.3519 -0.1719  0.3977
  114OSM    H4S11848   1.564   6.826  10.699  1.3331 -1.7519  0.8157
  114OSM    C5S11849   1.369   6.742  10.672  0.4468  0.2584 -0.0381
  114OSM    H5S11850   1.278   6.717  10.728  1.5757 -4.4553 -0.1385
  114OSM    C6S11851   1.369   6.728  10.526 -0.0295 -0.9680 -0.5739
  114OSM    H6S11852   1.463   6.765  10.479 -1.5423 -0.1695 -3.0633
  114OSM    H6T11853   1.288   6.792  10.485  0.8115 -0.0574 -0.8384
  114OSM    C7S11854   1.352   6.586  10.483  0.1414 -0.0218  0.7368
  114OSM    H7S11855   1.257   6.537  10.513 -0.9747  2.7175  1.8730
  114OSM    H7T11856   1.427   6.526  10.537  0.7788  0.7508  0.7144
  114OSM    C8S11857   1.365   6.563  10.329  0.0390 -0.6568 -0.6398
  114OSM    H8S11858   1.315   6.649  10.278 -0.9946 -1.3326 -0.7977
  114OSM    H8T11859   1.320   6.466  10.300 -0.2521 -0.0780 -2.2091
  114OSM    C9S11860   1.504   6.548  10.274 -0.9913  0.3546 -0.5466
  114OSM    H9S11861   1.543   6.449  10.306  1.2037  1.5560  0.6023
  114OSM    H9T11862   1.575   6.609  10.334 -1.5870  1.0111 -0.5051
  114OSM   C10S11863   1.515   6.548  10.129  0.3718 -0.4887 -0.1854
  114OSM   H10S11864   1.443   6.467  10.106  1.2848 -1.4539  0.2778
  114OSM   H10T11865   1.611   6.507  10.089  1.0416  0.8130  0.0653
  114OSM   C11S11866   1.501   6.691  10.075  1.0074  0.1994  1.4030
  114OSM   H11S11867   1.573   6.754  10.131 -0.2772  1.7413  1.3364
  114OSM   H11T11868   1.394   6.716  10.091  0.5500  0.1131 -1.2584
  114OSM   C12S11869   1.517   6.696   9.923  0.2854 -0.3936 -0.4364
  114OSM   H12S11870   1.439   6.638   9.870 -0.7283  1.1284 -0.6639
  114OSM   H12T11871   1.617   6.654   9.900  0.6380  1.7457 -3.1378
  114OSM   C13S11872   1.522   6.829   9.848 -0.1787  0.2167 -0.1017
  114OSM   H13S11873   1.617   6.879   9.878  0.9164 -1.3613 -0.8555
  114OSM   H13T11874   1.427   6.882   9.868 -2.4944 -3.4027 -1.1025
  114OSM   C14S11875   1.520   6.807   9.695 -0.3415  0.7355 -0.3948
  114OSM   H14S11876   1.446   6.730   9.665  0.1919 -0.4937  1.3657
  114OSM   H14T11877   1.621   6.767   9.674 -0.4261 -0.8385  2.0276
  114OSM   C15S11878   1.503   6.938   9.611 -0.3615  0.3981 -0.1070
  114OSM   H15S11879   1.578   7.015   9.640  0.8348 -1.3088  1.4459
  114OSM   H15T11880   1.409   6.989   9.642  0.8574  1.8328  1.3425
  114OSM   C16S11881   1.495   6.921   9.461  0.3863 -0.5657  0.5598
  114OSM   H16S11882   1.484   7.026   9.427 -1.0999 -0.5831  0.9834
  114OSM   H16T11883   1.404   6.862   9.438 -0.0503  0.0402  0.7228
  114OSM   C17S11884   1.616   6.848   9.393  0.3231 -0.0736  0.6189
  114OSM   H17S11885   1.607   6.748   9.442  0.3046 -0.6835 -0.6196
  114OSM   H17T11886   1.713   6.897   9.413  0.5294  0.0760 -0.7580
  114OSM   C18S11887   1.602   6.824   9.239  0.6365  0.0621  0.2183
  114OSM   H18S11888   1.679   6.755   9.198  0.4061  0.2381 -0.5167
  114OSM   H18T11889   1.605   6.919   9.183  0.2094 -0.2484 -0.3351
  114OSM   H18U11890   1.503   6.782   9.212 -0.2388  1.0536  1.8235
  114OSM    C1F11891   1.781   6.583  10.937  0.1242  0.4726 -0.4778
  114OSM     OF11892   1.752   6.479  10.995 -0.1724 -0.7141  0.1085
  114OSM    C2F11893   1.922   6.604  10.882 -0.0880 -0.0430 -0.3650
  114OSM    H2F11894   1.998   6.557  10.948 -0.0343 -0.3156 -0.6210
  114OSM    H2G11895   1.958   6.707  10.901  0.2285 -0.0791 -0.7806
  114OSM    C3F11896   1.935   6.550  10.742 -0.7589  0.1595 -0.6038
  114OSM    H3F11897   1.841   6.554  10.683 -0.3885 -1.4238 -1.3119
  114OSM    H3G11898   1.963   6.443  10.742  0.1530  0.3873  1.2344
  114OSM    C4F11899   2.045   6.623  10.666 -0.0752  0.0108  0.1531
  114OSM    H4F11900   2.145   6.609  10.713 -0.7198  0.7618  1.8030
  114OSM    H4G11901   2.020   6.730  10.655  0.4348  0.1189  0.0314
  114OSM    C5F11902   2.070   6.557  10.526 -0.5267  0.3899 -0.4602
  114OSM    H5F11903   2.081   6.448  10.544 -0.0566  0.3686 -0.8550
  114OSM    H5G11904   2.167   6.585  10.478  0.2991 -0.1317  0.8792
  114OSM    C6F11905   1.963   6.588  10.423  0.7382  0.2587  0.0190
  114OSM    H6F11906   1.979   6.692  10.389 -2.4170  0.4012 -1.1393
  114OSM    H6G11907   1.867   6.581  10.478  1.1723 -2.5957  0.5161
  114OSM    C7F11908   1.977   6.501  10.303 -0.0800  0.1076  0.1968
  114OSM    H7F11909   1.957   6.396  10.332 -1.3749  0.0936 -0.7196
  114OSM    H7G11910   2.082   6.507  10.269 -0.2458 -0.9133 -0.5159
  114OSM    C8F11911   1.871   6.542  10.201  0.4576 -0.1425  0.0173
  114OSM    H8F11912   1.796   6.573  10.277  1.2167 -1.6545  1.4069
  114OSM    H8G11913   1.840   6.446  10.154 -1.6450  0.6079 -0.1928
  114OSM    C9F11914   1.935   6.645  10.106  0.4889 -0.4852  0.5892
  114OSM    H9F11915   1.923   6.749  10.138 -0.6658 -0.6037  0.5552
  114OSM   C10F11916   1.984   6.616   9.983 -0.0660  0.3279  0.2998
  114OSM   H10F11917   2.040   6.698   9.935 -0.2342 -0.9638 -2.1765
  114OSM   C11F11918   1.996   6.484   9.911 -0.7285  0.3961 -0.5267
  114OSM   H11F11919   1.963   6.400   9.975 -0.1898  0.8538  0.3554
  114OSM   H11G11920   2.100   6.490   9.872 -0.4352  0.5713  0.2806
  114OSM   C12F11921   1.910   6.471   9.783 -0.1935 -0.1154  0.0099
  114OSM   H12F11922   1.811   6.435   9.820  1.2512 -1.0277  3.2211
  114OSM   H12G11923   1.960   6.400   9.714  0.3526 -0.1612  0.4517
  114OSM   C13F11924   1.871   6.594   9.707  0.0905 -1.1132  0.5878
  114OSM   H13F11925   1.965   6.651   9.692  0.2179 -0.9186  2.0753
  114OSM   H13G11926   1.796   6.653   9.763 -1.5726 -1.3296 -1.3183
  114OSM   C14F11927   1.814   6.554   9.567 -0.1051 -0.2781 -0.0503
  114OSM   H14F11928   1.777   6.645   9.517 -0.0899  0.1207  0.6589
  114OSM   H14G11929   1.715   6.509   9.591 -0.1314  0.2675  0.8900
  114OSM   C15F11930   1.895   6.453   9.480 -0.1979  0.5106  0.3469
  114OSM   H15F11931   1.882   6.350   9.517  0.6217 -0.9244 -3.1437
  114OSM   H15G11932   2.001   6.487   9.487  0.6991 -2.4755  2.2762
  114OSM   C16F11933   1.858   6.472   9.333  0.2229 -0.4042 -0.6674
  114OSM   H16F11934   1.863   6.577   9.296 -1.4673 -0.1353 -0.1848
  114OSM   H16G11935   1.750   6.452   9.314 -0.1607  0.7092  0.2948
  114OSM   C17F11936   1.932   6.385   9.238  0.2789  0.1407  0.0017
  114OSM   H17F11937   1.889   6.412   9.139  0.2095 -1.3268 -0.3781
  114OSM   H17G11938   1.897   6.281   9.259 -0.5777 -0.1441 -2.6849
  114OSM   C18F11939   2.088   6.402   9.231 -0.4916 -0.0268  0.4786
  114OSM   H18F11940   2.121   6.503   9.196  0.2323 -0.3736  0.1611
  114OSM   H18G11941   2.137   6.325   9.169  0.2953 -0.6227  1.8186
  114OSM   H18H11942   2.140   6.394   9.329  0.0231  2.2727  0.4426
  115OSM      N11943   1.542   2.701   5.881 -0.7016 -0.1331  0.7258
  115OSM    C1511944   1.652   2.801   5.894  0.3131 -0.2715  0.0521
  115OSM   H15A11945   1.746   2.760   5.927 -0.3636 -2.4469 -0.6328
  115OSM   H15B11946   1.628   2.884   5.959  3.7055  1.6108 -1.0082
  115OSM   H15C11947   1.680   2.843   5.799  0.8432 -3.9923 -1.5102
  115OSM    C1411948   1.416   2.761   5.840  0.6939  0.0860 -0.3518
  115OSM   H14A11949   1.399   2.855   5.891  2.8153 -0.0014  0.5596
  115OSM   H14B11950   1.329   2.697   5.848  1.1795 -0.5635 -0.2139
  115OSM   H14C11951   1.425   2.789   5.737  0.7157 -0.5999 -0.5382
  115OSM    C1311952   1.578   2.615   5.764 -0.1064 -0.3819 -0.4343
  115OSM   H13A11953   1.577   2.673   5.673 -1.2305  0.9828  0.4231
  115OSM   H13B11954   1.503   2.537   5.765  1.0180 -1.4894  0.0829
  115OSM   H13C11955   1.671   2.563   5.785 -1.3557 -1.8802  1.5503
  115OSM    C1211956   1.528   2.618   6.005  0.3826 -0.0963  0.1358
  115OSM   H12A11957   1.621   2.568   6.028  0.1666 -0.2087  0.7478
  115OSM   H12B11958   1.451   2.545   5.988 -0.5266  0.5281  1.5647
  115OSM    C1111959   1.488   2.687   6.138 -0.0674 -0.1040  0.1430
  115OSM   H11A11960   1.470   2.605   6.210 -0.5381  0.4809  0.7064
  115OSM   H11B11961   1.393   2.741   6.117 -1.0672 -1.0526  2.1536
  115OSM      P11962   1.694   2.728   6.288 -0.1300 -0.3037  0.1266
  115OSM    O1311963   1.761   2.604   6.241 -0.2658  0.4367  0.0576
  115OSM    O1411964   1.796   2.832   6.318  0.4296 -0.2826  0.4709
  115OSM    O1111965   1.611   2.712   6.418  0.1350  0.3349  0.1482
  115OSM    O1211966   1.586   2.778   6.185 -0.5978 -0.3070 -0.1216
  115OSM    C1S11967   1.644   2.638   6.537  0.7312 -0.1459 -0.3844
  115OSM    H1S11968   1.753   2.649   6.558  0.2700  0.7249  1.6579
  115OSM    H1T11969   1.615   2.533   6.515 -1.8251  0.7052 -1.1841
  115OSM     NF11970   1.627   2.659   6.781 -0.4736  0.0640  0.1640
  115OSM    HNF11971   1.577   2.603   6.846 -0.2923 -2.0456 -1.4930
  115OSM    C2S11972   1.568   2.697   6.657 -0.2480  0.3786 -0.0323
  115OSM    H2S11973   1.573   2.807   6.665  0.2307  0.3268  0.3956
  115OSM    C3S11974   1.421   2.656   6.635 -0.8308 -0.7342 -0.2814
  115OSM    H3S11975   1.407   2.546   6.626 -0.3826 -0.7072 -1.3305
  115OSM     O311976   1.363   2.696   6.506 -0.2023 -0.0937 -0.6374
  115OSM    HO311977   1.438   2.726   6.454  0.7847 -3.6433 -1.3942
  115OSM    C4S11978   1.338   2.705   6.747 -0.0543 -0.0637 -0.1876
  115OSM    H4S11979   1.340   2.814   6.757  1.1118  0.1097 -2.0103
  115OSM    C5S11980   1.264   2.642   6.840  0.6810 -0.1887 -0.1671
  115OSM    H5S11981   1.275   2.532   6.844  0.0696 -0.3165 -1.6947
  115OSM    C6S11982   1.178   2.704   6.948  0.1540 -0.2750  0.7725
  115OSM    H6S11983   1.070   2.679   6.943  0.4424 -1.4063  0.0827
  115OSM    H6T11984   1.181   2.815   6.952 -2.6091 -0.2235  4.5022
  115OSM    C7S11985   1.225   2.644   7.082 -0.1283 -0.5413  0.2131
  115OSM    H7S11986   1.329   2.678   7.106 -0.0046 -0.4401 -0.4522
  115OSM    H7T11987   1.235   2.535   7.064 -1.2272 -0.5381 -0.4173
  115OSM    C8S11988   1.129   2.686   7.197 -0.6486 -0.1656  0.1867
  115OSM    H8S11989   1.032   2.645   7.161 -0.4318  0.9482 -1.7441
  115OSM    H8T11990   1.119   2.797   7.198 -1.0138 -0.1710 -1.2516
  115OSM    C9S11991   1.153   2.632   7.340  0.3869 -0.4188 -0.3371
  115OSM    H9S11992   1.084   2.673   7.417 -0.4989 -1.1991 -0.7002
  115OSM    H9T11993   1.254   2.667   7.370  0.2490 -0.0972 -0.2467
  115OSM   C10S11994   1.161   2.476   7.343 -0.3358  0.3162 -0.1210
  115OSM   H10S11995   1.262   2.451   7.306 -1.4355 -1.7058 -1.8419
  115OSM   H10T11996   1.084   2.418   7.287 -0.0326 -1.7364  1.5345
  115OSM   C11S11997   1.147   2.422   7.481 -0.3321  0.2972 -0.0573
  115OSM   H11S11998   1.041   2.438   7.508 -0.9883  0.3811 -2.5614
  115OSM   H11T11999   1.213   2.491   7.538  0.8009  0.2167 -1.2315
  115OSM   C12S12000   1.194   2.281   7.489  0.0603  0.4527  0.5274
  115OSM   H12S12001   1.303   2.277   7.472  0.1818  2.0260  0.9520
  115OSM   H12T12002   1.139   2.218   7.415  1.7634 -0.2002 -0.2094
  115OSM   C13S12003   1.174   2.227   7.636  0.6576  0.3546  0.1109
  115OSM   H13S12004   1.078   2.277   7.661  0.3197 -0.7411  1.0059
  115OSM   H13T12005   1.251   2.283   7.694 -0.8605  2.3726  0.2473
  115OSM   C14S12006   1.178   2.073   7.665 -0.2392  0.1409  0.8197
  115OSM   H14S12007   1.266   2.033   7.610  0.7099  0.4656  2.0732
  115OSM   H14T12008   1.092   2.021   7.618 -0.4096  1.2320 -0.1036
  115OSM   C15S12009   1.191   2.043   7.811  0.0053  0.3167  0.3314
  115OSM   H15S12010   1.281   2.079   7.865 -1.1410  2.5120  0.8329
  115OSM   H15T12011   1.186   1.932   7.813  2.5068  0.1895  0.7944
  115OSM   C16S12012   1.074   2.102   7.887 -0.6824 -0.5799 -0.2876
  115OSM   H16S12013   0.980   2.097   7.828 -0.9863 -0.9417  0.2176
  115OSM   H16T12014   1.087   2.208   7.920 -1.2474 -0.3598 -0.7626
  115OSM   C17S12015   1.038   2.026   8.023 -0.5321 -0.2428  0.7554
  115OSM   H17S12016   1.030   1.917   8.008 -4.2378  0.2572 -1.6525
  115OSM   H17T12017   0.933   2.045   8.056 -0.9294 -1.0145 -0.0390
  115OSM   C18S12018   1.142   2.054   8.131  0.4511 -0.2457 -0.2127
  115OSM   H18S12019   1.242   2.037   8.086  0.4240 -4.1498  1.0536
  115OSM   H18T12020   1.150   1.986   8.218 -1.7362 -1.1324 -0.6546
  115OSM   H18U12021   1.133   2.162   8.154 -1.6779 -0.0407 -1.8374
  115OSM    C1F12022   1.737   2.722   6.830 -0.3132  0.4669 -0.2549
  115OSM     OF12023   1.797   2.810   6.770 -0.8596 -0.3179 -0.6127
  115OSM    C2F12024   1.758   2.697   6.976  0.0409 -0.2903 -0.9839
  115OSM    H2F12025   1.725   2.598   7.015  1.0725 -0.5935 -0.8727
  115OSM    H2G12026   1.697   2.768   7.036 -1.0677 -2.8647  1.0665
  115OSM    C3F12027   1.905   2.722   7.015  0.0957 -0.5142  0.7420
  115OSM    H3F12028   1.937   2.826   6.990  0.8327 -1.0372 -0.5435
  115OSM    H3G12029   1.961   2.647   6.955 -1.0454  0.7380 -1.9926
  115OSM    C4F12030   1.925   2.725   7.164  0.2936 -0.0295  0.0956
  115OSM    H4F12031   1.943   2.621   7.197 -1.6799 -0.0025  1.3187
  115OSM    H4G12032   1.837   2.761   7.220 -0.2848 -0.5260 -0.4943
  115OSM    C5F12033   2.058   2.785   7.206  0.4607 -0.4953  0.1131
  115OSM    H5F12034   2.036   2.893   7.189  0.9115 -0.6403 -1.4748
  115OSM    H5G12035   2.138   2.746   7.139 -0.9158 -1.1742 -1.1921
  115OSM    C6F12036   2.109   2.750   7.344  0.6330 -0.2107 -0.1062
  115OSM    H6F12037   2.195   2.817   7.363  0.0225  0.6724 -0.4251
  115OSM    H6G12038   2.159   2.651   7.345 -0.3840 -0.7276  1.0270
  115OSM    C7F12039   2.012   2.779   7.455  0.4738  0.0856  0.3093
  115OSM    H7F12040   2.045   2.738   7.552  0.7390 -2.3953 -0.7972
  115OSM    H7G12041   1.921   2.724   7.422  0.3668  1.2193 -1.3736
  115OSM    C8F12042   1.983   2.929   7.480 -0.2929  0.3780  0.1127
  115OSM    H8F12043   1.881   2.948   7.521 -0.4620  0.4634 -0.3431
  115OSM    H8G12044   1.966   2.971   7.379  2.4456 -0.6240 -0.7945
  115OSM    C9F12045   2.082   3.009   7.554 -0.0911  0.4523  0.7361
  115OSM    H9F12046   2.157   3.044   7.481 -0.0392 -1.7841 -0.3367
  115OSM   C10F12047   2.090   3.034   7.686  0.7732 -0.8290 -0.1033
  115OSM   H10F12048   2.181   3.085   7.721  0.5669 -0.7019  0.2464
  115OSM   C11F12049   1.986   2.999   7.789 -0.1411 -1.7891 -0.2412
  115OSM   H11F12050   1.879   3.011   7.761 -1.1704 -1.7557  3.4286
  115OSM   H11G12051   2.000   3.079   7.865 -0.4906  1.4498 -3.3952
  115OSM   C12F12052   2.008   2.862   7.857 -0.1508 -0.6471  0.1475
  115OSM   H12F12053   2.105   2.871   7.911  0.3900 -0.6673 -0.8034
  115OSM   H12G12054   2.025   2.784   7.780 -0.8213 -0.1181 -0.5376
  115OSM   C13F12055   1.896   2.824   7.963 -0.1513  0.4482 -0.6252
  115OSM   H13F12056   1.930   2.732   8.014  1.0554  2.5599  2.4852
  115OSM   H13G12057   1.802   2.812   7.905 -0.4300 -0.8552  0.0893
  115OSM   C14F12058   1.864   2.928   8.074 -0.6395 -0.2572  0.3310
  115OSM   H14F12059   1.757   2.942   8.101 -0.2077  3.1356  0.6138
  115OSM   H14G12060   1.898   3.028   8.040 -0.0854  0.5835  3.1658
  115OSM   C15F12061   1.934   2.896   8.214  0.9853  0.1656  0.5875
  115OSM   H15F12062   2.041   2.886   8.186  1.0966 -0.9848  1.4090
  115OSM   H15G12063   1.884   2.801   8.243  0.4435  0.5555  0.9376
  115OSM   C16F12064   1.902   3.003   8.308  0.5849 -0.1065 -0.8598
  115OSM   H16F12065   1.795   2.996   8.338  1.4166  0.3352  2.4169
  115OSM   H16G12066   1.896   3.104   8.262 -2.8518  0.3600  0.4798
  115OSM   C17F12067   1.982   3.010   8.440 -0.0787 -0.4748 -0.1685
  115OSM   H17F12068   1.944   3.102   8.488 -1.3741  0.8489 -3.5496
  115OSM   H17G12069   2.089   3.027   8.414 -0.1219  1.0443  0.6279
  115OSM   C18F12070   1.960   2.894   8.539 -0.4777 -0.0825  0.1965
  115OSM   H18F12071   1.996   2.797   8.497  0.1384  1.4014 -2.8283
  115OSM   H18G12072   1.854   2.894   8.572 -0.0978 -2.1221  1.5249
  115OSM   H18H12073   2.013   2.909   8.636 -1.1662 -2.9540  1.0663
  116OSM      N12074   0.486   0.468   5.724  0.0820 -1.0904 -0.0204
  116OSM    C1512075   0.592   0.557   5.775 -0.2898 -0.0364  0.6795
  116OSM   H15A12076   0.686   0.563   5.723  0.7706  1.1515  2.6505
  116OSM   H15B12077   0.621   0.525   5.874 -0.4758 -0.4020  0.6172
  116OSM   H15C12078   0.553   0.657   5.783  0.8430  0.6106 -1.4225
  116OSM    C1412079   0.427   0.521   5.600 -0.3985 -0.2808  0.1250
  116OSM   H14A12080   0.374   0.615   5.608  0.0309  0.0788 -1.1438
  116OSM   H14B12081   0.340   0.463   5.576 -0.3190 -1.5164  2.6500
  116OSM   H14C12082   0.484   0.524   5.508  1.1651  2.2374  1.1060
  116OSM    C1312083   0.549   0.337   5.685  0.0967  0.6674  0.3611
  116OSM   H13A12084   0.498   0.287   5.604  1.2226 -0.1273  0.1325
  116OSM   H13B12085   0.545   0.264   5.763  0.7404  1.7709  1.4444
  116OSM   H13C12086   0.652   0.347   5.652 -1.0579  0.9637 -3.4888
  116OSM    C1212087   0.376   0.446   5.832 -0.2069 -0.5360 -0.1989
  116OSM   H12A12088   0.297   0.387   5.787 -0.0207  0.2554 -1.5794
  116OSM   H12B12089   0.334   0.543   5.858 -0.1436 -0.5577 -0.0127
  116OSM    C1112090   0.435   0.384   5.966  0.5982 -0.5938  0.3800
  116OSM   H11A12091   0.493   0.291   5.951 -0.4543 -0.7743 -3.0309
  116OSM   H11B12092   0.342   0.355   6.020 -0.3669 -0.2123 -1.0546
  116OSM      P12093   0.623   0.455   6.150  0.1579  0.0919  0.3626
  116OSM    O1312094   0.732   0.398   6.070  0.1175  0.0592  0.0246
  116OSM    O1412095   0.643   0.582   6.219 -0.4610  0.0123 -0.1744
  116OSM    O1112096   0.560   0.362   6.265 -0.3873 -0.1561  0.4836
  116OSM    O1212097   0.508   0.486   6.043 -0.2478  0.7656  0.0083
  116OSM    C1S12098   0.639   0.331   6.380 -0.1239 -0.5225  0.6690
  116OSM    H1S12099   0.747   0.330   6.353 -0.4071  2.7959 -0.8417
  116OSM    H1T12100   0.613   0.228   6.410 -0.8367 -0.9450 -1.3557
  116OSM     NF12101   0.647   0.331   6.629 -0.3180  0.3550 -0.1663
  116OSM    HNF12102   0.569   0.293   6.679  0.5909  0.3537  1.2803
  116OSM    C2S12103   0.604   0.414   6.514 -0.8244 -0.5590  0.0439
  116OSM    H2S12104   0.664   0.508   6.514  2.1358 -2.3618  0.3281
  116OSM    C3S12105   0.455   0.455   6.518 -0.0442 -0.4326  1.0185
  116OSM    H3S12106   0.402   0.359   6.499  0.6667 -0.8241  0.9915
  116OSM     O312107   0.408   0.553   6.422  0.2276 -0.1302 -0.4716
  116OSM    HO312108   0.483   0.570   6.364  0.8080 -0.4327  0.1749
  116OSM    C4S12109   0.414   0.514   6.654  0.0215  0.5877  0.5270
  116OSM    H4S12110   0.492   0.580   6.695  1.6114 -0.5211 -0.6567
  116OSM    C5S12111   0.305   0.484   6.728  0.4702  0.0247 -0.5326
  116OSM    H5S12112   0.241   0.400   6.697  0.2827  0.1288 -0.4260
  116OSM    C6S12113   0.275   0.541   6.862  0.6381  0.0525  0.2185
  116OSM    H6S12114   0.328   0.476   6.934  1.0387 -1.2820 -1.2578
  116OSM    H6T12115   0.167   0.537   6.887  0.1317 -0.6096 -1.9296
  116OSM    C7S12116   0.333   0.680   6.899 -0.4330 -0.6033  0.8931
  116OSM    H7S12117   0.290   0.757   6.833  0.5394 -2.4294 -1.9933
  116OSM    H7T12118   0.438   0.689   6.864 -0.5476 -0.6589  0.5359
  116OSM    C8S12119   0.320   0.709   7.046  0.5296 -0.5137  0.8843
  116OSM    H8S12120   0.371   0.628   7.102 -2.3888 -2.4217  0.8958
  116OSM    H8T12121   0.213   0.717   7.074 -0.1230 -1.9633 -1.0999
  116OSM    C9S12122   0.384   0.849   7.078 -1.0806 -0.9001 -0.0081
  116OSM    H9S12123   0.361   0.924   6.999 -1.1715  0.8793  1.6749
  116OSM    H9T12124   0.495   0.857   7.081 -1.1847  4.0410 -2.8898
  116OSM   C10S12125   0.335   0.913   7.208 -0.0027  0.2776 -0.0045
  116OSM   H10S12126   0.225   0.921   7.207  0.0103  0.4314 -0.3630
  116OSM   H10T12127   0.378   1.014   7.228  0.0237  0.2253  0.2026
  116OSM   C11S12128   0.370   0.823   7.327 -0.7890 -0.1359  0.1540
  116OSM   H11S12129   0.479   0.799   7.317 -0.9280 -0.8214  0.2115
  116OSM   H11T12130   0.314   0.727   7.322 -1.0551 -0.0324  1.2231
  116OSM   C12S12131   0.361   0.884   7.464  0.3328  0.4576 -0.8941
  116OSM   H12S12132   0.262   0.863   7.508  1.4427  1.2972  2.0967
  116OSM   H12T12133   0.369   0.995   7.455  1.0932  0.5673  0.9692
  116OSM   C13S12134   0.468   0.838   7.572 -0.5319 -0.1681 -0.5933
  116OSM   H13S12135   0.572   0.875   7.554 -0.6982  0.4054 -0.3731
  116OSM   H13T12136   0.483   0.729   7.580 -1.4252 -0.0558  3.8141
  116OSM   C14S12137   0.426   0.884   7.709  0.1627  0.3327  0.1929
  116OSM   H14S12138   0.326   0.837   7.720  0.4438 -0.3655 -0.2180
  116OSM   H14T12139   0.431   0.995   7.717  1.2825  0.1481  2.4042
  116OSM   C15S12140   0.509   0.818   7.828  0.7882  0.2198 -0.4295
  116OSM   H15S12141   0.613   0.856   7.823  0.2628  1.8214  0.3308
  116OSM   H15T12142   0.495   0.708   7.827 -1.0365  0.4312 -3.1486
  116OSM   C16S12143   0.443   0.856   7.958  0.3097 -0.4298  0.1276
  116OSM   H16S12144   0.335   0.831   7.968  0.1282  0.7791  1.4169
  116OSM   H16T12145   0.456   0.966   7.959  0.4331 -0.4448  0.9061
  116OSM   C17S12146   0.511   0.795   8.077  0.4241  0.4672  0.0516
  116OSM   H17S12147   0.622   0.799   8.072  0.6506 -4.0927 -0.4161
  116OSM   H17T12148   0.480   0.689   8.085 -1.5556  1.1846  2.2676
  116OSM   C18S12149   0.471   0.854   8.214 -0.6498  0.5319  0.5773
  116OSM   H18S12150   0.361   0.869   8.207 -0.9027 -0.3930  2.4726
  116OSM   H18T12151   0.524   0.951   8.226  2.4193 -1.1667  1.1552
  116OSM   H18U12152   0.494   0.780   8.293  2.7241 -1.4641 -2.1058
  116OSM    C1F12153   0.771   0.288   6.658 -0.4508  0.5423  0.0268
  116OSM     OF12154   0.870   0.323   6.592 -0.2114 -0.2759  0.1582
  116OSM    C2F12155   0.777   0.173   6.766  0.3552  0.0223  0.1665
  116OSM    H2F12156   0.765   0.075   6.714 -0.2252 -0.8341  1.9034
  116OSM    H2G12157   0.691   0.192   6.833  0.8016  2.2736  0.1348
  116OSM    C3F12158   0.905   0.168   6.851  0.6302  0.5125  0.0154
  116OSM    H3F12159   0.893   0.258   6.915 -1.4995 -0.8713  1.6133
  116OSM    H3G12160   0.997   0.187   6.792  0.0132 -1.1750 -1.5241
  116OSM    C4F12161   0.926   0.040   6.927 -0.2037 -0.1156 -0.3121
  116OSM    H4F12162   1.031   0.044   6.964 -0.2815  3.2614 -0.3428
  116OSM    H4G12163   0.927  -0.048   6.859 -0.4962 -0.2298 -0.1678
  116OSM    C5F12164   0.836   0.018   7.048 -0.2047  0.1943  0.6811
  116OSM    H5F12165   0.805  -0.088   7.037 -1.7006  0.6847  0.0714
  116OSM    H5G12166   0.738   0.070   7.044 -0.0330  0.5683  1.3403
  116OSM    C6F12167   0.905   0.043   7.174  0.1478  0.2771  0.1390
  116OSM    H6F12168   0.980  -0.033   7.204  3.2953  2.9409 -0.7253
  116OSM    H6G12169   0.823   0.035   7.248 -1.1738  1.3055 -1.1853
  116OSM    C7F12170   0.970   0.180   7.190  0.2976 -0.1022 -0.4153
  116OSM    H7F12171   0.901   0.257   7.151  1.8854  1.3670 -0.3895
  116OSM    H7G12172   1.063   0.197   7.131 -0.0403 -2.0426 -1.5728
  116OSM    C8F12173   0.989   0.214   7.341 -0.0004  0.4562  0.3393
  116OSM    H8F12174   0.887   0.225   7.384 -0.2182  0.0980 -0.0770
  116OSM    H8G12175   1.024   0.319   7.336 -2.8919  1.4550 -0.1881
  116OSM    C9F12176   1.088   0.120   7.402 -0.0502 -0.0338  0.0656
  116OSM    H9F12177   1.187   0.115   7.356  0.5446  2.6726  0.9391
  116OSM   C10F12178   1.064   0.049   7.514 -0.6716 -0.9046  0.0868
  116OSM   H10F12179   1.140  -0.016   7.561 -1.8867 -2.8788 -0.5945
  116OSM   C11F12180   0.930   0.056   7.589 -0.3231 -0.3384 -0.3258
  116OSM   H11F12181   0.866  -0.026   7.550  0.4958 -0.3342 -1.7228
  116OSM   H11G12182   0.881   0.155   7.575 -0.9287 -0.4430  0.9836
  116OSM   C12F12183   0.955   0.044   7.740 -1.2036 -1.3736  0.6460
  116OSM   H12F12184   0.974  -0.064   7.761  0.5299 -1.0290  0.9308
  116OSM   H12G12185   0.869   0.069   7.805 -0.0150  0.6991  1.4910
  116OSM   C13F12186   1.071   0.125   7.797  0.6820  0.3041 -0.2264
  116OSM   H13F12187   1.064   0.229   7.758 -1.9452  0.2969  0.1757
  116OSM   H13G12188   1.168   0.101   7.748  1.3350  0.6893  0.8492
  116OSM   C14F12189   1.085   0.115   7.944 -0.3758  0.3120 -0.1992
  116OSM   H14F12190   1.119   0.013   7.974  3.1099  1.3437 -0.4466
  116OSM   H14G12191   0.988   0.141   7.992  1.3679 -0.8937  4.2135
  116OSM   C15F12192   1.184   0.212   8.006  0.0419  0.0850  0.9018
  116OSM   H15F12193   1.145   0.313   7.977  0.6474  0.0525 -0.0409
  116OSM   H15G12194   1.285   0.197   7.964 -0.8213 -1.6391 -0.5871
  116OSM   C16F12195   1.193   0.205   8.157  0.3931 -0.6067  0.1684
  116OSM   H16F12196   1.213   0.100   8.190 -0.6501  0.1898  3.5063
  116OSM   H16G12197   1.089   0.226   8.189  1.0828  2.7442  0.3187
  116OSM   C17F12198   1.300   0.294   8.227  0.5625  0.2919  0.2692
  116OSM   H17F12199   1.279   0.403   8.219 -0.0082  0.2457  0.9880
  116OSM   H17G12200   1.402   0.278   8.186  0.3793 -0.7885  0.2318
  116OSM   C18F12201   1.317   0.272   8.372 -0.3772 -0.1471 -0.1068
  116OSM   H18F12202   1.369   0.175   8.389  0.0977  0.0127 -0.6276
  116OSM   H18G12203   1.223   0.274   8.431 -0.6776 -1.3628 -0.5336
  116OSM   H18H12204   1.377   0.352   8.420 -2.3413  1.0700  0.3920
  117OSM      N12205   6.755   3.052   5.900 -0.4384 -0.1756  0.1391
  117OSM    C1512206   6.663   3.134   5.811 -0.4903 -0.2580  0.3272
  117OSM   H15A12207   6.597   3.070   5.755  0.8372 -1.7752  0.4578
  117OSM   H15B12208   6.729   3.192   5.749  1.2188  0.6817  2.9164
  117OSM   H15C12209   6.608   3.208   5.868  0.5163 -0.2126  1.2671
  117OSM    C1412210   6.777   2.933   5.820  0.2687  0.0900 -0.2825
  117OSM   H14A12211   6.683   2.900   5.779  0.3089  2.6777 -2.5520
  117OSM   H14B12212   6.818   2.841   5.859  0.7104 -0.2304 -1.4904
  117OSM   H14C12213   6.838   2.952   5.734 -2.3085  1.0666 -1.9647
  117OSM    C1312214   6.876   3.134   5.931 -0.4062  0.8039 -0.3308
  117OSM   H13A12215   6.845   3.208   6.003  1.5519  1.3561 -0.0003
  117OSM   H13B12216   6.911   3.187   5.844  1.0544 -2.7559 -2.0435
  117OSM   H13C12217   6.945   3.067   5.982 -1.3794 -0.0656 -0.1392
  117OSM    C1212218   6.686   3.015   6.025 -0.2617 -0.6435 -0.0454
  117OSM   H12A12219   6.747   2.951   6.088  0.9939  0.6757  0.1199
  117OSM   H12B12220   6.604   2.947   6.006 -0.4128 -0.1404 -1.2175
  117OSM    C1112221   6.619   3.127   6.107  0.4009 -0.3803 -0.2950
  117OSM   H11A12222   6.560   3.079   6.189  2.2949 -2.0304  0.1315
  117OSM   H11B12223   6.543   3.174   6.041  0.3580  0.1551  0.1287
  117OSM      P12224   6.665   3.354   6.224  0.1026  0.1838 -0.0187
  117OSM    O1312225   6.789   3.407   6.278  0.1026 -0.2176  0.3457
  117OSM    O1412226   6.594   3.432   6.123 -0.4780  0.5050  0.4576
  117OSM    O1112227   6.575   3.318   6.343  0.4614  0.2335  0.2439
  117OSM    O1212228   6.713   3.220   6.159 -0.0686  0.5046 -0.0158
  117OSM    C1S12229   6.633   3.236   6.445 -0.6307 -0.1811 -0.0795
  117OSM    H1S12230   6.726   3.281   6.485 -0.2718 -2.0012  1.1728
  117OSM    H1T12231   6.665   3.135   6.410 -0.1121 -0.8921  2.3990
  117OSM     NF12232   6.603   3.144   6.675  0.2350  0.3228  0.0296
  117OSM    HNF12233   6.564   3.057   6.700  2.0273 -1.1251 -2.0138
  117OSM    C2S12234   6.534   3.207   6.559  0.5983 -0.1174  0.5820
  117OSM    H2S12235   6.481   3.296   6.599 -2.9948 -1.7399 -0.3716
  117OSM    C3S12236   6.421   3.117   6.501  0.2310 -0.1411  0.3242
  117OSM    H3S12237   6.471   3.026   6.461  0.4665 -0.6734  1.7922
  117OSM     O312238   6.357   3.173   6.389 -0.1647 -0.3665  0.1804
  117OSM    HO312239   6.396   3.260   6.379  1.9126 -1.1792  0.9270
  117OSM    C4S12240   6.318   3.080   6.607  0.7253  0.0977  0.2363
  117OSM    H4S12241   6.254   3.164   6.638 -1.2618 -0.7772 -1.3155
  117OSM    C5S12242   6.297   2.960   6.660 -0.0834  0.1945  0.2982
  117OSM    H5S12243   6.351   2.869   6.630  0.2761 -0.0752  1.7321
  117OSM    C6S12244   6.185   2.930   6.754 -0.1511 -0.1319  0.2761
  117OSM    H6S12245   6.109   2.861   6.710 -0.4576 -0.7492  1.7513
  117OSM    H6T12246   6.116   3.016   6.768 -0.0406  0.2405 -1.3944
  117OSM    C7S12247   6.221   2.891   6.896  0.0018  0.0800  0.2568
  117OSM    H7S12248   6.237   2.781   6.892  1.2137  0.3146 -2.0438
  117OSM    H7T12249   6.133   2.914   6.961 -0.4425  0.1521 -0.3648
  117OSM    C8S12250   6.336   2.974   6.948 -0.0857 -0.7682  0.1508
  117OSM    H8S12251   6.340   3.076   6.904 -0.1276 -0.2136  1.3858
  117OSM    H8T12252   6.434   2.923   6.933  0.0889 -1.0425  2.0467
  117OSM    C9S12253   6.326   2.995   7.103  0.5199  0.1844 -0.3378
  117OSM    H9S12254   6.420   3.051   7.120  1.4352 -1.2955 -0.5278
  117OSM    H9T12255   6.349   2.908   7.167  0.7871  1.2079  0.9900
  117OSM   C10S12256   6.212   3.079   7.149  0.7177 -0.2605  0.8993
  117OSM   H10S12257   6.114   3.027   7.156  1.3133 -1.3901  1.0469
  117OSM   H10T12258   6.200   3.160   7.074 -3.8983 -2.0362 -0.4015
  117OSM   C11S12259   6.225   3.142   7.289 -0.5055  0.3667  0.0161
  117OSM   H11S12260   6.321   3.198   7.277 -0.6028  0.4547 -0.3484
  117OSM   H11T12261   6.229   3.069   7.373  0.8328  0.3692 -0.0325
  117OSM   C12S12262   6.113   3.243   7.331 -0.0004  0.3927  0.7073
  117OSM   H12S12263   6.034   3.213   7.259  1.2408 -2.1516  0.3299
  117OSM   H12T12264   6.146   3.347   7.307 -0.9693  0.4718 -0.3221
  117OSM   C13S12265   6.064   3.234   7.481  0.2017  0.2189 -0.5168
  117OSM   H13S12266   6.019   3.136   7.508  0.4323  0.1634 -0.3263
  117OSM   H13T12267   5.987   3.312   7.496  1.4104  1.1747  0.8835
  117OSM   C14S12268   6.169   3.255   7.590  0.8355  0.1330 -0.4276
  117OSM   H14S12269   6.222   3.350   7.567  1.2311 -0.3913 -1.7163
  117OSM   H14T12270   6.252   3.181   7.583  0.2724 -0.5493  0.0396
  117OSM   C15S12271   6.115   3.250   7.737  0.2444  0.4192  0.2890
  117OSM   H15S12272   6.201   3.239   7.806 -0.5990 -2.1962  0.9705
  117OSM   H15T12273   6.057   3.158   7.758 -0.9415  1.3487  1.1151
  117OSM   C16S12274   6.016   3.367   7.774 -0.7915 -0.1186 -0.0126
  117OSM   H16S12275   6.012   3.369   7.885 -0.3636 -0.5405  0.0095
  117OSM   H16T12276   5.913   3.355   7.734 -1.0838 -0.0863  0.7333
  117OSM   C17S12277   6.077   3.503   7.734  0.0170 -0.0137 -0.6492
  117OSM   H17S12278   6.071   3.507   7.623 -2.5102 -0.1485 -0.5417
  117OSM   H17T12279   6.181   3.517   7.770 -0.1868 -0.0566 -0.0226
  117OSM   C18S12280   5.985   3.605   7.804 -0.3856 -0.0438  0.3676
  117OSM   H18S12281   5.890   3.612   7.747 -0.2102  0.0258  0.0834
  117OSM   H18T12282   6.035   3.704   7.814  0.7774 -0.5018 -0.8413
  117OSM   H18U12283   5.962   3.576   7.908 -1.5099 -0.9724 -0.1301
  117OSM    C1F12284   6.693   3.212   6.749  0.4068  0.3512 -0.7282
  117OSM     OF12285   6.702   3.332   6.731 -0.1860 -0.2480 -0.3449
  117OSM    C2F12286   6.767   3.132   6.847 -0.3658 -0.2878 -0.2796
  117OSM    H2F12287   6.877   3.132   6.831  0.0275 -1.9924  2.1000
  117OSM    H2G12288   6.733   3.027   6.840  1.3935 -0.7058 -3.4973
  117OSM    C3F12289   6.745   3.175   6.997  0.7703 -0.0472  0.0740
  117OSM    H3F12290   6.637   3.167   7.022  0.4155  1.5683 -0.8542
  117OSM    H3G12291   6.780   3.280   7.011 -0.6645  0.4579  0.0028
  117OSM    C4F12292   6.820   3.086   7.091  0.0771  0.4432 -0.0668
  117OSM    H4F12293   6.927   3.117   7.099 -0.2672  1.3550  1.1425
  117OSM    H4G12294   6.834   2.981   7.057  1.4967  0.5202  0.2475
  117OSM    C5F12295   6.743   3.088   7.225 -0.2065  0.5532 -0.0265
  117OSM    H5F12296   6.638   3.053   7.210 -0.6620  1.6731  0.4855
  117OSM    H5G12297   6.737   3.192   7.261  4.7959  1.4052 -1.3497
  117OSM    C6F12298   6.809   3.007   7.330  0.3143 -1.4535  0.3203
  117OSM    H6F12299   6.918   3.029   7.331 -0.2821  2.2317 -2.6434
  117OSM    H6G12300   6.803   2.899   7.304  0.5229 -1.1149 -1.1982
  117OSM    C7F12301   6.759   3.025   7.469 -0.1079 -0.4770 -0.6649
  117OSM    H7F12302   6.783   3.130   7.497 -0.3972 -1.0471  1.8018
  117OSM    H7G12303   6.823   2.968   7.539  0.8320  0.7549 -0.5011
  117OSM    C8F12304   6.608   3.003   7.486  0.4427  0.2101 -0.4055
  117OSM    H8F12305   6.591   2.903   7.442 -0.6566 -0.1983  0.9213
  117OSM    H8G12306   6.556   3.089   7.437 -2.8510 -1.3151  0.2822
  117OSM    C9F12307   6.553   2.990   7.626  0.1239 -0.4147 -0.3324
  117OSM    H9F12308   6.450   2.954   7.621 -0.0119 -0.0664 -0.0667
  117OSM   C10F12309   6.602   3.032   7.749  0.3549 -1.0271 -0.6605
  117OSM   H10F12310   6.550   3.013   7.844 -0.1117  1.6048 -0.3386
  117OSM   C11F12311   6.730   3.100   7.785 -0.3978  0.0127  0.3533
  117OSM   H11F12312   6.712   3.190   7.847  0.5819 -0.0446  0.7279
  117OSM   H11G12313   6.772   3.142   7.691  1.0813 -1.6216  0.2535
  117OSM   C12F12314   6.825   3.016   7.866  0.3213 -0.2889  0.0386
  117OSM   H12F12315   6.929   3.055   7.863  0.3514 -0.4269 -0.8243
  117OSM   H12G12316   6.836   2.915   7.821  3.1045  0.6805 -1.6755
  117OSM   C13F12317   6.781   3.015   8.018  0.2922 -0.4281 -0.1185
  117OSM   H13F12318   6.704   2.935   8.014 -1.6236  1.4678 -1.7284
  117OSM   H13G12319   6.732   3.110   8.046 -0.0288 -1.1702  1.9032
  117OSM   C14F12320   6.902   2.997   8.102  0.5995  1.2650 -0.3692
  117OSM   H14F12321   6.981   3.073   8.086  0.5145  1.3576 -0.3483
  117OSM   H14G12322   6.944   2.896   8.084  1.0498  1.4186 -0.1848
  117OSM   C15F12323   6.859   2.989   8.253  0.5895 -0.6873 -0.1706
  117OSM   H15F12324   6.773   2.919   8.266  0.8071 -1.7552 -3.9359
  117OSM   H15G12325   6.830   3.093   8.277 -0.7213 -0.6486 -1.8435
  117OSM   C16F12326   6.982   2.970   8.342  0.5539 -0.4841 -0.7909
  117OSM   H16F12327   7.059   3.048   8.323  1.1934 -1.1475 -0.9353
  117OSM   H16G12328   7.021   2.870   8.313  0.1751 -1.3385  1.4886
  117OSM   C17F12329   6.947   2.961   8.497 -0.6281  0.2346 -0.3111
  117OSM   H17F12330   6.898   3.059   8.512  0.6020  1.0640 -1.6063
  117OSM   H17G12331   6.862   2.892   8.517 -0.9539  0.5123 -0.7226
  117OSM   C18F12332   7.069   2.930   8.579 -0.2329 -0.4707  0.3256
  117OSM   H18F12333   7.067   2.920   8.689  0.0807 -2.3067  0.1712
  117OSM   H18G12334   7.152   2.997   8.546 -0.4901 -0.9953 -1.4501
  117OSM   H18H12335   7.100   2.836   8.529 -0.2653  0.9729 -2.5410
  118OSM      N12336   2.490   4.546   5.954  0.5263  0.3181 -0.5621
  118OSM    C1512337   2.642   4.523   5.964  0.1385  0.9367 -1.0053
  118OSM   H15A12338   2.645   4.416   5.956 -2.1284  0.8528 -1.0455
  118OSM   H15B12339   2.685   4.562   6.054 -0.3651  1.1388 -0.8485
  118OSM   H15C12340   2.701   4.561   5.882  1.2168  0.2627 -0.5413
  118OSM    C1412341   2.478   4.693   5.982  0.8714 -0.3589  0.3313
  118OSM   H14A12342   2.553   4.747   5.925  0.3890  0.6663  0.6488
  118OSM   H14B12343   2.504   4.714   6.085  0.9340  2.5203 -0.2246
  118OSM   H14C12344   2.378   4.735   5.974  0.9672 -0.5046 -2.0537
  118OSM    C1312345   2.435   4.502   5.820 -0.2164 -0.2598 -0.8767
  118OSM   H13A12346   2.436   4.395   5.807 -0.4821 -0.8492  3.3081
  118OSM   H13B12347   2.483   4.552   5.738  2.1343  1.1389  1.2607
  118OSM   H13C12348   2.329   4.518   5.810 -0.5732 -0.7700  1.6476
  118OSM    C1212349   2.413   4.471   6.065  0.3202 -0.3325  0.0564
  118OSM   H12A12350   2.476   4.478   6.153 -0.0478  1.7496  0.1835
  118OSM   H12B12351   2.399   4.365   6.055  1.5814 -0.4470 -0.5925
  118OSM    C1112352   2.283   4.527   6.102  0.7202 -0.3585 -0.0258
  118OSM   H11A12353   2.232   4.450   6.163 -0.3902  1.0850  0.8912
  118OSM   H11B12354   2.217   4.534   6.012 -0.7852  1.5360  1.1797
  118OSM      P12355   2.184   4.764   6.176  0.6202 -0.0449 -0.4247
  118OSM    O1312356   2.185   4.861   6.286 -0.2985 -0.8467  0.1231
  118OSM    O1412357   2.192   4.814   6.037  0.5776  0.1031  0.2564
  118OSM    O1112358   2.045   4.690   6.180  0.0452 -0.5799  0.4879
  118OSM    O1212359   2.286   4.647   6.192 -0.2552  0.3466  0.0709
  118OSM    C1S12360   2.012   4.615   6.299 -0.0089 -0.3976  0.0863
  118OSM    H1S12361   2.094   4.545   6.327  2.4387  1.3086 -2.5628
  118OSM    H1T12362   1.926   4.546   6.281 -1.2670  0.9835  0.7779
  118OSM     NF12363   1.962   4.573   6.525 -0.6498  0.1112  0.2107
  118OSM    HNF12364   1.876   4.525   6.542 -0.3803 -1.2869 -2.1744
  118OSM    C2S12365   1.961   4.683   6.431  0.0356 -0.2377  0.8216
  118OSM    H2S12366   2.036   4.757   6.467  0.0850 -0.0226  0.2924
  118OSM    C3S12367   1.827   4.744   6.409 -0.0550  0.1943 -0.5982
  118OSM    H3S12368   1.761   4.677   6.350  1.1464 -2.8194  1.3767
  118OSM     O312369   1.835   4.861   6.327  0.0580  0.4193 -0.3594
  118OSM    HO312370   1.921   4.864   6.285 -0.8731  0.0863 -2.3595
  118OSM    C4S12371   1.752   4.764   6.541  0.5622  0.4636 -0.4379
  118OSM    H4S12372   1.691   4.677   6.567  1.0741 -0.0288 -0.8667
  118OSM    C5S12373   1.769   4.864   6.629  0.1524 -0.2165  0.1511
  118OSM    H5S12374   1.846   4.940   6.611 -0.5037  1.0669  2.5249
  118OSM    C6S12375   1.696   4.867   6.763 -0.1450  0.3992 -1.1144
  118OSM    H6S12376   1.588   4.878   6.740 -0.4259  2.1992  0.9358
  118OSM    H6T12377   1.726   4.963   6.811 -2.0907  1.6575 -2.3679
  118OSM    C7S12378   1.731   4.751   6.845  0.3812  0.3580  0.3876
  118OSM    H7S12379   1.714   4.657   6.788 -1.5606 -0.0785  1.6713
  118OSM    H7T12380   1.655   4.752   6.926 -1.3594  0.6092 -1.2305
  118OSM    C8S12381   1.867   4.742   6.911  0.0843 -0.4413  0.2016
  118OSM    H8S12382   1.951   4.738   6.838 -0.1663 -0.2050 -0.0996
  118OSM    H8T12383   1.868   4.642   6.960  0.4484  0.0476  1.2161
  118OSM    C9S12384   1.899   4.851   7.017 -0.5559  0.8176  0.8460
  118OSM    H9S12385   1.807   4.912   7.031  0.1173  1.7325  1.2738
  118OSM    H9T12386   1.983   4.916   6.985 -0.4127 -1.3191 -3.4642
  118OSM   C10S12387   1.928   4.788   7.152 -0.5909 -0.4007 -0.3396
  118OSM   H10S12388   2.009   4.715   7.135 -2.6815 -2.3470 -2.3248
  118OSM   H10T12389   1.844   4.728   7.192 -1.0613  1.8355  2.1571
  118OSM   C11S12390   1.974   4.898   7.250  0.4062  0.0245 -0.2325
  118OSM   H11S12391   1.896   4.971   7.280 -1.1698 -2.0342  0.8087
  118OSM   H11T12392   2.047   4.964   7.198 -0.3097  0.1627 -1.0741
  118OSM   C12S12393   2.042   4.836   7.374  0.2623 -0.5518 -0.5039
  118OSM   H12S12394   2.132   4.787   7.333  1.2243  0.7710 -0.0181
  118OSM   H12T12395   1.983   4.752   7.416  0.9939 -0.5900  0.4653
  118OSM   C13S12396   2.080   4.938   7.484  0.2097  0.4528  0.1202
  118OSM   H13S12397   1.993   4.988   7.532  0.5608  1.5726 -0.3761
  118OSM   H13T12398   2.149   5.007   7.431  0.0023 -0.5105 -1.4079
  118OSM   C14S12399   2.161   4.868   7.601  0.0055  0.4134 -0.2587
  118OSM   H14S12400   2.256   4.832   7.555 -0.7493 -1.3747 -0.4763
  118OSM   H14T12401   2.102   4.785   7.644  0.4845  2.6633  5.0265
  118OSM   C15S12402   2.207   4.959   7.719  0.0857 -0.3328 -0.4059
  118OSM   H15S12403   2.119   4.976   7.786  1.3496  1.5856  0.8133
  118OSM   H15T12404   2.216   5.065   7.685 -1.7772 -0.2438 -0.6744
  118OSM   C16S12405   2.343   4.911   7.782  0.1003 -0.8660  0.3060
  118OSM   H16S12406   2.428   4.918   7.712 -0.7209 -2.0301 -0.8465
  118OSM   H16T12407   2.327   4.804   7.806 -1.4817 -0.9322 -0.9196
  118OSM   C17S12408   2.382   4.986   7.914  0.0112 -0.2492  0.0559
  118OSM   H17S12409   2.306   4.974   7.993 -0.5654  0.6735 -0.3367
  118OSM   H17T12410   2.413   5.090   7.887  0.0068  0.4795  2.7351
  118OSM   C18S12411   2.509   4.916   7.966 -0.0254 -0.3680  1.2448
  118OSM   H18S12412   2.507   4.805   7.960 -0.3746 -0.2694 -0.7096
  118OSM   H18T12413   2.532   4.931   8.073  0.5879  1.0204  0.9237
  118OSM   H18U12414   2.598   4.944   7.906 -0.6539  1.2356  1.0546
  118OSM    C1F12415   2.076   4.539   6.590 -0.4193 -0.1441  0.0302
  118OSM     OF12416   2.187   4.571   6.550 -0.0382 -0.7904  0.0969
  118OSM    C2F12417   2.046   4.454   6.711 -0.4597 -0.2377 -0.0496
  118OSM    H2F12418   2.029   4.349   6.679  1.1566 -0.3476 -0.6213
  118OSM    H2G12419   1.959   4.496   6.765  0.6809  1.3123  0.6181
  118OSM    C3F12420   2.166   4.452   6.813  0.1358 -0.3623  0.2619
  118OSM    H3F12421   2.251   4.412   6.754 -1.7660 -0.0018 -2.8620
  118OSM    H3G12422   2.151   4.383   6.899 -3.9947 -1.2377 -1.0725
  118OSM    C4F12423   2.208   4.592   6.863  0.9984  1.2035 -0.1279
  118OSM    H4F12424   2.121   4.615   6.929  0.2502  0.8122 -0.9596
  118OSM    H4G12425   2.211   4.669   6.782  0.7205  1.6461  0.2800
  118OSM    C5F12426   2.341   4.603   6.939 -0.5385 -0.2902  0.8833
  118OSM    H5F12427   2.343   4.708   6.975  0.9600  0.5169 -1.4341
  118OSM    H5G12428   2.430   4.590   6.873  0.1644 -0.5952  1.8642
  118OSM    C6F12429   2.360   4.512   7.065  0.4900 -0.2158 -0.0468
  118OSM    H6F12430   2.355   4.403   7.046  0.6335 -0.3963  0.8923
  118OSM    H6G12431   2.282   4.524   7.144  0.7922 -2.6064  0.6510
  118OSM    C7F12432   2.499   4.529   7.120 -0.2974 -0.1907 -0.4784
  118OSM    H7F12433   2.541   4.632   7.119 -0.1252 -0.2489  0.2431
  118OSM    H7G12434   2.573   4.467   7.066 -0.2919 -1.6778  1.1880
  118OSM    C8F12435   2.498   4.478   7.264 -0.4908 -1.0249 -0.5122
  118OSM    H8F12436   2.605   4.459   7.289 -0.1685  2.2210  0.7169
  118OSM    H8G12437   2.442   4.382   7.274 -4.4412  1.0491 -1.6308
  118OSM    C9F12438   2.443   4.577   7.360 -0.8610 -0.5535  0.3385
  118OSM    H9F12439   2.352   4.630   7.328  1.6087  3.7071  0.0052
  118OSM   C10F12440   2.491   4.628   7.476 -0.2870 -0.2982  0.4212
  118OSM   H10F12441   2.438   4.713   7.523 -0.9297 -0.4083 -0.1010
  118OSM   C11F12442   2.622   4.595   7.548  0.8278  0.5887 -0.1829
  118OSM   H11F12443   2.700   4.668   7.519 -0.3598  1.7095 -0.5853
  118OSM   H11G12444   2.659   4.494   7.522 -0.6613 -0.3970  1.4212
  118OSM   C12F12445   2.608   4.602   7.703  0.7944  0.4116  0.9860
  118OSM   H12F12446   2.540   4.522   7.739  2.2143  0.0534  2.9644
  118OSM   H12G12447   2.561   4.700   7.727  1.0931  0.3843  1.6750
  118OSM   C13F12448   2.736   4.575   7.777  0.1253  0.1959 -0.0187
  118OSM   H13F12449   2.823   4.641   7.755  0.2733  0.2496  0.6963
  118OSM   H13G12450   2.771   4.478   7.735 -1.7817 -0.5963  0.1959
  118OSM   C14F12451   2.700   4.559   7.925 -0.8008 -0.1840  0.2099
  118OSM   H14F12452   2.619   4.483   7.931 -1.9945  1.0276 -0.3962
  118OSM   H14G12453   2.664   4.656   7.966  0.7471  2.1599 -3.6735
  118OSM   C15F12454   2.793   4.492   8.027  0.7172  0.8952 -0.7182
  118OSM   H15F12455   2.869   4.568   8.054  1.4892 -1.0085  2.7526
  118OSM   H15G12456   2.847   4.406   7.981 -2.1030 -2.7039  2.4098
  118OSM   C16F12457   2.719   4.429   8.151  0.0146 -0.2129  0.7409
  118OSM   H16F12458   2.677   4.334   8.111  0.6841 -0.1546 -0.1289
  118OSM   H16G12459   2.635   4.496   8.176  1.7507  1.9208  1.0339
  118OSM   C17F12460   2.803   4.405   8.272  0.4104  0.1170  0.0651
  118OSM   H17F12461   2.843   4.495   8.322  1.1323  1.5652 -3.0267
  118OSM   H17G12462   2.890   4.348   8.233 -0.0263 -0.4511 -0.0834
  118OSM   C18F12463   2.736   4.322   8.376 -0.1706 -0.0677 -0.5708
  118OSM   H18F12464   2.692   4.233   8.326 -0.5616 -0.4524  0.4429
  118OSM   H18G12465   2.654   4.381   8.422 -0.4066 -0.5189 -0.4037
  118OSM   H18H12466   2.808   4.293   8.456 -0.3704  3.0299  0.8103
  119OSM      N12467   3.472   4.277   6.109 -0.0687 -0.1232  0.2403
  119OSM    C1512468   3.375   4.396   6.110  0.0986  0.6086  0.4469
  119OSM   H15A12469   3.384   4.445   6.206  2.4635 -2.0299  1.6277
  119OSM   H15B12470   3.272   4.368   6.095 -0.2227  0.0451  3.4261
  119OSM   H15C12471   3.406   4.460   6.028  1.5938 -2.2323 -1.2556
  119OSM    C1412472   3.453   4.207   5.981 -0.0057 -0.2776  0.1996
  119OSM   H14A12473   3.509   4.256   5.903 -2.2499 -0.1164 -1.3533
  119OSM   H14B12474   3.349   4.218   5.951  0.6836  2.4897 -1.4170
  119OSM   H14C12475   3.481   4.103   5.980 -0.7173 -0.4912  1.1980
  119OSM    C1312476   3.614   4.330   6.117  0.1117 -0.2723  0.0796
  119OSM   H13A12477   3.676   4.254   6.073 -0.6605 -0.2960 -0.9781
  119OSM   H13B12478   3.648   4.335   6.220 -1.1140 -0.2989  0.4970
  119OSM   H13C12479   3.632   4.423   6.066  1.1099 -1.6111 -2.0478
  119OSM    C1212480   3.436   4.177   6.218  1.0300 -0.2309 -0.2997
  119OSM   H12A12481   3.339   4.131   6.214 -0.5376  2.5959  2.6349
  119OSM   H12B12482   3.436   4.245   6.302  0.6779  0.0314 -0.5107
  119OSM    C1112483   3.542   4.065   6.240 -0.8253 -0.1077 -0.3272
  119OSM   H11A12484   3.514   4.010   6.332 -3.1294 -0.2136 -1.0677
  119OSM   H11B12485   3.646   4.102   6.256 -0.0892 -2.0891 -0.3926
  119OSM      P12486   3.414   3.869   6.118 -0.0145 -0.1145 -0.2513
  119OSM    O1312487   3.367   3.879   5.977  0.2336  0.0648  0.2965
  119OSM    O1412488   3.453   3.731   6.157  0.2695  0.6717  0.4863
  119OSM    O1112489   3.307   3.925   6.217 -0.3153  0.4029 -0.2101
  119OSM    O1212490   3.546   3.970   6.133  0.3898 -0.0037  0.1616
  119OSM    C1S12491   3.171   3.871   6.234  0.0538  0.3592 -0.3938
  119OSM    H1S12492   3.148   3.798   6.153  1.0339  1.1642 -1.4147
  119OSM    H1T12493   3.106   3.959   6.217 -0.5309  0.4022  1.8856
  119OSM     NF12494   3.022   3.744   6.386  0.6363 -0.0041  0.2565
  119OSM    HNF12495   2.952   3.781   6.446  1.4528 -0.1083  1.2987
  119OSM    C2S12496   3.151   3.811   6.376  0.1522 -0.0800  0.7809
  119OSM    H2S12497   3.222   3.726   6.389  0.8296  0.4207  0.4102
  119OSM    C3S12498   3.166   3.922   6.482 -0.3442  0.2074  0.2198
  119OSM    H3S12499   3.090   4.001   6.464 -1.4620 -1.1181 -0.9046
  119OSM     O312500   3.291   3.992   6.480 -0.1915  0.3840 -0.1000
  119OSM    HO312501   3.317   3.963   6.392 -0.5913  1.6645 -0.6406
  119OSM    C4S12502   3.159   3.871   6.623  0.2051  0.1515  0.2262
  119OSM    H4S12503   3.234   3.794   6.645  0.8360  0.8504  0.5444
  119OSM    C5S12504   3.079   3.918   6.722 -0.5087  0.6768  0.4897
  119OSM    H5S12505   3.018   4.009   6.713 -0.9584  0.2595 -0.7159
  119OSM    C6S12506   3.066   3.861   6.866  0.5543  0.0922 -0.5861
  119OSM    H6S12507   3.100   3.933   6.944 -0.1541 -0.5764  0.3603
  119OSM    H6T12508   3.121   3.765   6.869 -2.1697 -1.5783 -1.7760
  119OSM    C7S12509   2.915   3.823   6.896  1.0394  0.0855 -0.6071
  119OSM    H7S12510   2.874   3.770   6.808 -0.3136  3.1180 -1.8912
  119OSM    H7T12511   2.849   3.912   6.904  1.7672  0.7530 -1.9449
  119OSM    C8S12512   2.893   3.735   7.013  0.3281 -0.1279 -0.1840
  119OSM    H8S12513   2.977   3.663   7.020 -0.3429 -0.9824 -0.8366
  119OSM    H8T12514   2.804   3.670   7.000  0.3772  0.1237 -1.8070
  119OSM    C9S12515   2.898   3.808   7.150  0.0509  0.9541 -0.0200
  119OSM    H9S12516   2.993   3.865   7.143  1.5879 -1.7497 -3.0200
  119OSM    H9T12517   2.918   3.722   7.218  1.9828 -1.0613 -2.9845
  119OSM   C10S12518   2.783   3.899   7.176  0.6878  0.1028 -0.9751
  119OSM   H10S12519   2.688   3.854   7.139  0.0082 -0.9278  1.8304
  119OSM   H10T12520   2.790   3.999   7.128  0.7227  0.1293 -0.9148
  119OSM   C11S12521   2.752   3.935   7.330 -0.8829  0.1657  0.7443
  119OSM   H11S12522   2.822   4.005   7.380 -0.4479 -0.1593  0.5823
  119OSM   H11T12523   2.754   3.842   7.391  1.3412  0.7107  1.5559
  119OSM   C12S12524   2.614   3.997   7.346 -0.6405  0.6128 -0.0456
  119OSM   H12S12525   2.536   3.918   7.332  0.2731 -0.3631  0.3219
  119OSM   H12T12526   2.593   4.083   7.279 -0.8465  0.1846 -0.5331
  119OSM   C13S12527   2.589   4.044   7.490 -0.5287 -0.0359 -0.5840
  119OSM   H13S12528   2.685   4.082   7.530  0.0403 -2.6027  0.6063
  119OSM   H13T12529   2.557   3.957   7.552 -1.2241 -0.0418 -0.9436
  119OSM   C14S12530   2.483   4.151   7.514 -0.4264  0.1598 -0.5081
  119OSM   H14S12531   2.387   4.104   7.486 -1.6957  2.9812 -1.0770
  119OSM   H14T12532   2.495   4.230   7.437  0.8082  2.6328  2.1053
  119OSM   C15S12533   2.471   4.207   7.661 -0.1282 -0.1298 -0.1121
  119OSM   H15S12534   2.561   4.262   7.695  0.9562 -0.8331 -1.7907
  119OSM   H15T12535   2.448   4.125   7.732  0.1131 -0.8488 -0.8554
  119OSM   C16S12536   2.358   4.311   7.679 -0.3184  0.3133  1.0682
  119OSM   H16S12537   2.267   4.257   7.645  0.9440 -0.2043 -1.6116
  119OSM   H16T12538   2.378   4.392   7.605  0.1999 -2.6288 -2.1262
  119OSM   C17S12539   2.332   4.347   7.826  0.2122 -0.3592 -0.3223
  119OSM   H17S12540   2.418   4.368   7.892  2.0820 -0.0154 -2.7711
  119OSM   H17T12541   2.273   4.267   7.875 -0.0216  0.5196  0.8263
  119OSM   C18S12542   2.242   4.468   7.838  0.3828  0.3837 -0.2041
  119OSM   H18S12543   2.241   4.496   7.946 -0.1320  1.6845 -0.5345
  119OSM   H18T12544   2.136   4.437   7.823  0.2836  0.2081  0.8437
  119OSM   H18U12545   2.274   4.556   7.779  2.4567  1.2138  2.0955
  119OSM    C1F12546   2.989   3.621   6.332  0.5612  0.5457  0.4447
  119OSM     OF12547   3.064   3.554   6.261 -0.3778 -0.3734  0.1339
  119OSM    C2F12548   2.856   3.568   6.365 -0.1425  0.3152 -0.0376
  119OSM    H2F12549   2.821   3.500   6.284 -0.2334 -0.9090  1.0130
  119OSM    H2G12550   2.795   3.659   6.380  0.4697  0.7813 -0.3182
  119OSM    C3F12551   2.846   3.483   6.498 -0.0004  0.4249 -0.2389
  119OSM    H3F12552   2.739   3.452   6.499  0.1956 -0.2642  1.3070
  119OSM    H3G12553   2.864   3.555   6.581  1.5110 -1.2424  0.9120
  119OSM    C4F12554   2.946   3.366   6.507  0.0393 -0.2038  0.7751
  119OSM    H4F12555   3.046   3.415   6.501  0.7881 -1.7236  0.7802
  119OSM    H4G12556   2.935   3.298   6.419  0.3701 -2.4363  2.4228
  119OSM    C5F12557   2.958   3.299   6.640 -0.6308  0.5200  0.1640
  119OSM    H5F12558   3.049   3.235   6.633 -0.8910  0.3386 -1.7504
  119OSM    H5G12559   2.875   3.228   6.655 -1.4479  1.2796 -0.6839
  119OSM    C6F12560   2.973   3.383   6.760 -0.2099  0.2967 -0.1856
  119OSM    H6F12561   2.876   3.410   6.806  0.1392 -2.1858  2.1236
  119OSM    H6G12562   3.032   3.477   6.747  3.2719 -1.7442  0.1302
  119OSM    C7F12563   3.059   3.306   6.874  0.0558 -0.0701 -0.2923
  119OSM    H7F12564   3.155   3.273   6.830  0.6760  0.3059  0.7416
  119OSM    H7G12565   3.002   3.212   6.889  0.5152  0.0650  2.8379
  119OSM    C8F12566   3.068   3.384   7.005  0.7121  0.1062  0.1888
  119OSM    H8F12567   3.090   3.487   6.967 -1.8970  1.1012  1.2462
  119OSM    H8G12568   3.156   3.362   7.069 -0.4230 -1.5821  1.1792
  119OSM    C9F12569   2.940   3.373   7.088 -0.2644 -0.1598  0.0220
  119OSM    H9F12570   2.844   3.372   7.036 -0.3775  1.6559  0.1464
  119OSM   C10F12571   2.931   3.376   7.225  0.8153 -0.8461  0.3745
  119OSM   H10F12572   2.831   3.365   7.269  0.3465  1.7414  0.0035
  119OSM   C11F12573   3.043   3.385   7.322 -0.2660 -0.0631 -0.0586
  119OSM   H11F12574   3.099   3.481   7.327 -0.4287 -0.0470  1.9745
  119OSM   H11G12575   3.110   3.302   7.290 -0.5988  0.2049 -1.4773
  119OSM   C12F12576   2.996   3.355   7.463 -0.8449 -0.5747 -0.0959
  119OSM   H12F12577   3.089   3.325   7.516 -0.6912 -2.2530 -1.2815
  119OSM   H12G12578   2.940   3.260   7.469 -1.1635 -0.3187  1.2687
  119OSM   C13F12579   2.924   3.482   7.516  0.3891  0.1605  0.0462
  119OSM   H13F12580   2.824   3.490   7.469  1.3537 -2.6324 -2.6542
  119OSM   H13G12581   2.982   3.576   7.503  0.9160  0.1096  1.8205
  119OSM   C14F12582   2.888   3.481   7.668 -0.8238  0.5413 -0.0428
  119OSM   H14F12583   2.837   3.384   7.686  0.1049 -0.3588 -2.1189
  119OSM   H14G12584   2.826   3.570   7.689  1.7927  2.4599 -0.2006
  119OSM   C15F12585   3.003   3.472   7.768  0.4166 -0.0346 -0.4634
  119OSM   H15F12586   3.080   3.551   7.761 -1.1860  1.8421  1.9860
  119OSM   H15G12587   3.053   3.374   7.754 -1.7496 -1.0273 -1.4450
  119OSM   C16F12588   2.949   3.471   7.915 -0.5305 -0.2870 -0.4651
  119OSM   H16F12589   3.044   3.468   7.973 -1.2360  0.6458  0.7620
  119OSM   H16G12590   2.870   3.398   7.942 -1.3099  0.5804 -0.3621
  119OSM   C17F12591   2.893   3.610   7.945 -0.0932 -0.3324 -0.7797
  119OSM   H17F12592   2.799   3.620   7.886 -2.4772  0.2827  3.0001
  119OSM   H17G12593   2.970   3.681   7.909  2.7555 -1.5471  2.5857
  119OSM   C18F12594   2.850   3.644   8.092 -0.2496  0.9710 -0.0325
  119OSM   H18F12595   2.749   3.599   8.101  0.0481  0.5723  1.3716
  119OSM   H18G12596   2.841   3.753   8.113 -0.1743  0.7446  1.1840
  119OSM   H18H12597   2.919   3.597   8.165 -0.2586  1.5071  0.3218
  120OSM      N12598   0.408   0.911   6.441 -0.2967  0.0641  0.0648
  120OSM    C1512599   0.456   0.994   6.552 -0.0834 -0.2598  0.0518
  120OSM   H15A12600   0.486   0.939   6.640  1.4012  2.4088  1.2792
  120OSM   H15B12601   0.381   1.067   6.578 -0.8564  1.0638 -5.2274
  120OSM   H15C12602   0.547   1.048   6.529  0.0444 -0.0849  0.9671
  120OSM    C1412603   0.297   0.826   6.486  0.2149  0.0575  0.0160
  120OSM   H14A12604   0.335   0.739   6.537 -1.4322  0.2266  1.5993
  120OSM   H14B12605   0.241   0.785   6.403  1.9111 -1.6819 -0.3043
  120OSM   H14C12606   0.229   0.881   6.550  1.0169 -0.3834  1.2579
  120OSM    C1312607   0.352   1.011   6.347  0.0566  0.3790 -0.7114
  120OSM   H13A12608   0.309   0.965   6.259 -1.1252  3.2648 -1.7106
  120OSM   H13B12609   0.431   1.075   6.313 -0.1020  0.4461 -0.9554
  120OSM   H13C12610   0.271   1.074   6.382  1.2141  2.4097 -1.5873
  120OSM    C1212611   0.519   0.828   6.373  0.8388 -0.4276  0.0397
  120OSM   H12A12612   0.476   0.761   6.300 -0.0611 -2.1915  2.1397
  120OSM   H12B12613   0.565   0.773   6.454 -0.4046  0.7687  1.5874
  120OSM    C1112614   0.636   0.903   6.305 -0.5176  0.1182 -0.1318
  120OSM   H11A12615   0.593   0.969   6.227 -0.9907 -1.2844 -1.0825
  120OSM   H11B12616   0.700   0.829   6.252 -0.2066 -0.1242  0.5728
  120OSM      P12617   0.860   0.997   6.424  0.2970 -0.2645 -0.5716
  120OSM    O1312618   0.921   1.015   6.293  0.3757  0.4760  0.2181
  120OSM    O1412619   0.880   1.107   6.521 -0.3075  0.6763 -0.2689
  120OSM    O1112620   0.893   0.867   6.494  0.1202 -0.8762  0.5036
  120OSM    O1212621   0.701   0.984   6.409  0.4344  0.0597  0.4950
  120OSM    C1S12622   0.981   0.844   6.601  0.2712 -0.1867  0.0508
  120OSM    H1S12623   1.052   0.928   6.616  0.0773 -0.2995  1.6383
  120OSM    H1T12624   1.054   0.762   6.583  1.7743  0.8698  1.2149
  120OSM     NF12625   1.006   0.819   6.846 -0.7742 -0.1915 -0.0286
  120OSM    HNF12626   1.020   0.726   6.881 -1.8012 -0.4279 -0.2152
  120OSM    C2S12627   0.908   0.827   6.737  0.7849  0.3562 -0.3457
  120OSM    H2S12628   0.842   0.915   6.753 -0.8127 -1.1609  1.7370
  120OSM    C3S12629   0.816   0.704   6.728 -0.2135  0.6130 -0.5408
  120OSM    H3S12630   0.862   0.616   6.679  0.7935  2.1298 -2.4174
  120OSM     O312631   0.703   0.730   6.645  0.2008  0.3618  0.0270
  120OSM    HO312632   0.737   0.789   6.578 -0.8513 -0.1679 -1.0009
  120OSM    C4S12633   0.769   0.676   6.867 -0.5547  0.1016  0.3051
  120OSM    H4S12634   0.679   0.731   6.897 -0.2007  0.7694  0.1554
  120OSM    C5S12635   0.817   0.577   6.941 -0.3059  0.2442  0.2816
  120OSM    H5S12636   0.894   0.502   6.913 -2.0687 -1.4385 -0.1738
  120OSM    C6S12637   0.751   0.552   7.075 -0.4482 -0.1465  0.0880
  120OSM    H6S12638   0.731   0.443   7.089  0.2652 -0.1360  1.3035
  120OSM    H6T12639   0.651   0.599   7.082 -0.3936  0.4359 -2.5666
  120OSM    C7S12640   0.824   0.622   7.197 -0.5226  0.7215 -0.1415
  120OSM    H7S12641   0.846   0.731   7.191  1.0879  0.4994  1.3290
  120OSM    H7T12642   0.928   0.583   7.195 -1.2342 -1.1860 -2.6223
  120OSM    C8S12643   0.752   0.587   7.323 -0.1944  1.1160 -0.5702
  120OSM    H8S12644   0.720   0.481   7.314 -0.7167  1.2700 -0.5439
  120OSM    H8T12645   0.654   0.640   7.323 -1.4644 -1.1474  0.0693
  120OSM    C9S12646   0.835   0.623   7.445 -0.5452 -0.1748 -0.6396
  120OSM    H9S12647   0.838   0.733   7.456 -1.2048 -0.1753 -0.3688
  120OSM    H9T12648   0.938   0.592   7.417  1.0026  2.4470  1.8843
  120OSM   C10S12649   0.786   0.570   7.583  0.1278 -0.4240  0.1068
  120OSM   H10S12650   0.813   0.463   7.595  2.6398  0.3198  1.4176
  120OSM   H10T12651   0.678   0.591   7.595 -0.0351 -1.1762 -0.0095
  120OSM   C11S12652   0.874   0.638   7.688  0.6360 -0.2132  0.2964
  120OSM   H11S12653   0.869   0.748   7.675  0.1576 -0.0364  1.9443
  120OSM   H11T12654   0.981   0.617   7.669  0.6406 -1.2207  1.4121
  120OSM   C12S12655   0.839   0.590   7.829 -0.4955 -0.3559 -0.5441
  120OSM   H12S12656   0.856   0.481   7.842 -0.9059 -0.0888  2.5414
  120OSM   H12T12657   0.729   0.603   7.837 -0.2340  0.2566  2.6616
  120OSM   C13S12658   0.895   0.684   7.937 -0.7316  0.2268  0.1990
  120OSM   H13S12659   0.862   0.789   7.917  2.5886  1.2866 -0.1058
  120OSM   H13T12660   1.004   0.678   7.916 -0.6985 -0.0823  0.4544
  120OSM   C14S12661   0.868   0.640   8.084 -0.7183  0.5291  0.4065
  120OSM   H14S12662   0.764   0.600   8.087 -0.7572  0.6319  0.4690
  120OSM   H14T12663   0.872   0.733   8.145  2.4319 -0.2945  1.5419
  120OSM   C15S12664   0.978   0.552   8.140  1.1591  0.4600  0.4104
  120OSM   H15S12665   1.071   0.613   8.126  1.4091 -0.5444 -2.6637
  120OSM   H15T12666   0.985   0.460   8.079  2.4661 -0.7525  2.3515
  120OSM   C16S12667   0.959   0.524   8.291 -0.4657  0.7034  0.5074
  120OSM   H16S12668   1.025   0.440   8.321  0.3986  1.8910  2.0228
  120OSM   H16T12669   0.860   0.474   8.296  0.2904 -0.8301  0.4736
  120OSM   C17S12670   0.980   0.641   8.384 -0.7119  0.1796  0.2136
  120OSM   H17S12671   0.888   0.702   8.390 -0.1253  1.1693 -0.7290
  120OSM   H17T12672   1.059   0.706   8.341  0.3747 -1.1875  0.1027
  120OSM   C18S12673   1.038   0.589   8.521  0.0919  0.4580 -0.3766
  120OSM   H18S12674   1.037   0.679   8.587 -1.7345  2.1263 -2.5683
  120OSM   H18T12675   1.141   0.549   8.525 -0.8472 -1.8951  1.3827
  120OSM   H18U12676   0.962   0.518   8.560  1.1488 -0.7053 -0.4380
  120OSM    C1F12677   1.064   0.936   6.887  0.0444  0.3472 -0.1468
  120OSM     OF12678   1.013   1.044   6.857 -0.1930  0.6821 -0.8976
  120OSM    C2F12679   1.186   0.930   6.970  0.2142 -0.1814  0.0308
  120OSM    H2F12680   1.278   0.948   6.910  0.2033 -1.7525 -0.4889
  120OSM    H2G12681   1.199   0.825   7.004 -0.4391 -0.1819  0.2836
  120OSM    C3F12682   1.171   1.017   7.088  0.5428 -0.0311 -0.3125
  120OSM    H3F12683   1.088   0.973   7.148  0.4364 -0.8786 -1.0600
  120OSM    H3G12684   1.121   1.115   7.076 -1.1799 -0.9990 -1.0980
  120OSM    C4F12685   1.302   1.026   7.167  0.3835  0.1912 -0.0847
  120OSM    H4F12686   1.372   1.084   7.103  2.2161 -1.6084  0.2197
  120OSM    H4G12687   1.356   0.931   7.188 -2.2990 -1.3001  0.2389
  120OSM    C5F12688   1.276   1.101   7.297 -0.0221 -0.1802 -0.6331
  120OSM    H5F12689   1.186   1.066   7.352 -0.6931  1.3972 -0.6893
  120OSM    H5G12690   1.242   1.205   7.275 -4.1723 -1.7159 -2.0451
  120OSM    C6F12691   1.386   1.105   7.404  0.2322  0.0103 -0.1622
  120OSM    H6F12692   1.477   1.149   7.360 -0.1684 -0.7330 -1.7874
  120OSM    H6G12693   1.409   0.998   7.426  0.5925 -0.2347 -1.7360
  120OSM    C7F12694   1.329   1.177   7.529  0.0448 -0.4065 -0.6365
  120OSM    H7F12695   1.236   1.125   7.561 -0.7136  1.4262  0.2313
  120OSM    H7G12696   1.298   1.280   7.500 -1.1452 -0.6859 -0.4014
  120OSM    C8F12697   1.452   1.187   7.628  0.6521  0.5685  0.3322
  120OSM    H8F12698   1.438   1.261   7.710 -2.2426 -1.1973  1.5029
  120OSM    H8G12699   1.535   1.208   7.557  1.7606 -0.7800  1.2104
  120OSM    C9F12700   1.478   1.060   7.708 -0.8861  0.5453  0.3703
  120OSM    H9F12701   1.571   1.007   7.682 -0.4195  1.5941 -0.1068
  120OSM   C10F12702   1.401   1.004   7.808 -0.4375 -0.1659  0.3755
  120OSM   H10F12703   1.437   0.906   7.842  0.0142 -0.0523  0.2330
  120OSM   C11F12704   1.272   1.053   7.878  0.9167  0.6518  0.2419
  120OSM   H11F12705   1.204   0.968   7.903  3.9021 -1.6160  0.8538
  120OSM   H11G12706   1.231   1.114   7.794  0.2423 -0.9010 -0.5892
  120OSM   C12F12707   1.303   1.144   8.006 -0.1837  0.3494 -0.1897
  120OSM   H12F12708   1.353   1.236   7.969 -0.0972  0.4220  0.1072
  120OSM   H12G12709   1.383   1.096   8.066 -1.6718 -0.4362  1.2148
  120OSM   C13F12710   1.182   1.164   8.104 -0.2034 -0.0450 -0.2158
  120OSM   H13F12711   1.095   1.180   8.037 -0.2511  2.2617  0.3711
  120OSM   H13G12712   1.216   1.257   8.154  1.3638 -1.8320  2.1812
  120OSM   C14F12713   1.168   1.040   8.195 -0.5593 -0.0458 -0.3831
  120OSM   H14F12714   1.258   0.993   8.240  0.2636  1.5322 -0.3391
  120OSM   H14G12715   1.121   0.959   8.136 -1.9724  0.6792 -0.2793
  120OSM   C15F12716   1.067   1.055   8.322 -0.5212  0.1587  0.3561
  120OSM   H15F12717   1.084   0.964   8.383 -1.1522  0.9984  1.8289
  120OSM   H15G12718   0.965   1.055   8.279 -0.2993 -0.7026 -0.1758
  120OSM   C16F12719   1.094   1.172   8.415 -0.6431 -1.0163  0.2276
  120OSM   H16F12720   1.055   1.267   8.373 -0.6909 -2.0135 -2.0576
  120OSM   H16G12721   1.199   1.195   8.441 -0.4980 -0.0336 -1.2282
  120OSM   C17F12722   1.035   1.153   8.561  0.2571  0.0010  0.8558
  120OSM   H17F12723   1.079   1.063   8.610 -1.4475 -2.8270 -2.6192
  120OSM   H17G12724   0.926   1.143   8.542  0.8851  1.6025 -4.2841
  120OSM   C18F12725   1.048   1.271   8.654 -0.0567 -0.1967  0.0533
  120OSM   H18F12726   1.007   1.241   8.753 -2.9487  0.5106 -0.8764
  120OSM   H18G12727   0.993   1.364   8.626  0.7764  0.1265 -0.5229
  120OSM   H18H12728   1.155   1.299   8.666 -0.2962  0.3682  0.8869
  121OSM      N12729   2.887   2.983   5.693  0.0278  0.4019 -0.4822
  121OSM    C1512730   2.782   3.009   5.596 -1.0596 -0.2270 -0.0320
  121OSM   H15A12731   2.753   3.110   5.618 -0.7080  0.5307 -2.8067
  121OSM   H15B12732   2.690   2.952   5.607 -2.1842  1.4309 -0.5815
  121OSM   H15C12733   2.806   2.999   5.491 -2.8332 -2.2780 -0.2941
  121OSM    C1412734   2.986   2.874   5.652  0.0196 -0.5253  0.4227
  121OSM   H14A12735   2.937   2.780   5.631  1.5092 -1.3474  0.5691
  121OSM   H14B12736   3.061   2.868   5.729 -1.8032 -0.7947  2.2309
  121OSM   H14C12737   3.024   2.898   5.554  1.9400  1.6903  1.6700
  121OSM    C1312738   2.970   3.106   5.722 -0.4296 -0.2748  0.3231
  121OSM   H13A12739   3.035   3.105   5.807 -0.8230  0.1100  0.6342
  121OSM   H13B12740   2.895   3.177   5.754  1.6702  1.4711  1.4585
  121OSM   H13C12741   3.022   3.128   5.630 -1.0719 -1.5996 -0.3767
  121OSM    C1212742   2.822   2.954   5.827 -0.0439 -0.8506 -0.2045
  121OSM   H12A12743   2.898   2.948   5.903 -1.7732 -1.4618  1.5122
  121OSM   H12B12744   2.789   2.851   5.823 -0.2362 -0.7406 -2.0014
  121OSM    C1112745   2.708   3.042   5.867  0.0074 -0.1866 -1.2362
  121OSM   H11A12746   2.617   3.002   5.818 -1.1826 -0.5779  1.2475
  121OSM   H11B12747   2.722   3.148   5.834 -2.4643  0.6839  0.3819
  121OSM      P12748   2.625   3.116   6.105 -0.2342 -0.6530 -0.4573
  121OSM    O1312749   2.658   3.252   6.062 -0.2373 -0.4590  0.0059
  121OSM    O1412750   2.480   3.080   6.110  0.5130  0.3962  0.3261
  121OSM    O1112751   2.699   3.082   6.241  0.0360  0.3464 -0.5440
  121OSM    O1212752   2.695   3.023   6.007  0.5752  0.3480 -0.2135
  121OSM    C1S12753   2.812   2.997   6.250 -0.8056  0.0007  0.2063
  121OSM    H1S12754   2.902   3.041   6.201  1.3753 -2.2646  2.0106
  121OSM    H1T12755   2.791   2.905   6.191  0.3945 -0.0940 -0.0830
  121OSM     NF12756   2.963   2.869   6.405  0.4748 -0.6148  0.2469
  121OSM    HNF12757   2.940   2.781   6.446 -2.3375  0.2234  0.5565
  121OSM    C2S12758   2.844   2.957   6.393 -0.3534  0.0020 -0.1077
  121OSM    H2S12759   2.863   3.056   6.439  3.3213 -0.4046 -0.5798
  121OSM    C3S12760   2.721   2.905   6.469  0.1250 -0.1149  0.8820
  121OSM    H3S12761   2.694   2.800   6.444 -0.3950 -0.1882  1.7484
  121OSM     O312762   2.600   2.969   6.450 -0.1617 -0.0971  0.5728
  121OSM    HO312763   2.613   3.028   6.375 -0.1431 -0.1610  0.5262
  121OSM    C4S12764   2.754   2.900   6.617  0.4064  0.1253 -0.1642
  121OSM    H4S12765   2.789   2.802   6.652  1.5283  0.4013 -0.5156
  121OSM    C5S12766   2.738   3.000   6.708 -0.3124 -0.7054 -0.1464
  121OSM    H5S12767   2.702   3.096   6.668 -1.0921 -0.6564  0.6358
  121OSM    C6S12768   2.769   2.994   6.859 -0.7265 -0.3231  0.4233
  121OSM    H6S12769   2.856   3.058   6.888 -2.2619  1.7201  0.6520
  121OSM    H6T12770   2.795   2.894   6.900  0.4610  0.1760  0.9081
  121OSM    C7S12771   2.638   3.023   6.938  0.0885 -0.9969  0.4954
  121OSM    H7S12772   2.562   2.942   6.932  0.3373 -1.1219 -1.0220
  121OSM    H7T12773   2.590   3.115   6.898 -1.1070 -1.7578  0.1515
  121OSM    C8S12774   2.675   3.033   7.086  0.0965  0.2440 -0.6632
  121OSM    H8S12775   2.758   3.106   7.091 -0.1741  0.4110  1.9285
  121OSM    H8T12776   2.718   2.932   7.106  2.2247  0.8774 -1.9830
  121OSM    C9S12777   2.551   3.064   7.169 -0.1171 -0.6888  0.0004
  121OSM    H9S12778   2.480   2.980   7.154 -0.3511 -0.2454 -1.4446
  121OSM    H9T12779   2.506   3.158   7.130 -0.3626 -0.4139  0.9544
  121OSM   C10S12780   2.580   3.089   7.317 -0.1038 -0.4755  0.9889
  121OSM   H10S12781   2.622   3.192   7.324 -1.1409  0.0561 -0.3943
  121OSM   H10T12782   2.657   3.021   7.358  0.4855 -0.8027 -0.5967
  121OSM   C11S12783   2.459   3.079   7.403  0.0769 -0.5208 -0.3683
  121OSM   H11S12784   2.420   2.977   7.419  1.3894 -1.5974 -3.7128
  121OSM   H11T12785   2.378   3.131   7.348  0.5865 -0.6696 -1.2635
  121OSM   C12S12786   2.475   3.136   7.549 -0.1065 -0.2208  0.1895
  121OSM   H12S12787   2.377   3.131   7.601 -0.6721  0.7768 -0.7407
  121OSM   H12T12788   2.490   3.245   7.531 -0.8057 -0.0336  0.7113
  121OSM   C13S12789   2.600   3.093   7.628 -0.4720  0.2613 -0.5520
  121OSM   H13S12790   2.696   3.114   7.576 -0.2503  0.9748  0.1338
  121OSM   H13T12791   2.593   2.983   7.643 -0.5791  0.0799 -1.8676
  121OSM   C14S12792   2.607   3.139   7.779 -0.2168  0.0358  0.2770
  121OSM   H14S12793   2.607   3.250   7.771 -1.9136 -0.0071 -0.5198
  121OSM   H14T12794   2.697   3.100   7.832 -1.2164 -1.3679  0.9832
  121OSM   C15S12795   2.478   3.107   7.860  1.2305 -0.1984  0.4767
  121OSM   H15S12796   2.442   3.005   7.835  0.4721  0.1518  0.1230
  121OSM   H15T12797   2.396   3.174   7.826  1.7132  1.2110  2.0084
  121OSM   C16S12798   2.489   3.126   8.009 -0.0008  0.2350  0.2661
  121OSM   H16S12799   2.515   3.233   8.026 -0.0132  0.1190  1.0642
  121OSM   H16T12800   2.570   3.063   8.050  0.1566  0.8101  0.8530
  121OSM   C17S12801   2.351   3.100   8.081 -0.6504  0.6349  0.4701
  121OSM   H17S12802   2.327   2.992   8.070 -1.2154  0.7663  0.4120
  121OSM   H17T12803   2.274   3.162   8.031 -3.0849 -1.4915  1.5028
  121OSM   C18S12804   2.358   3.134   8.228  0.5767 -0.2304  0.1697
  121OSM   H18S12805   2.366   3.244   8.221  1.3251 -0.3501 -1.0303
  121OSM   H18T12806   2.454   3.092   8.265  0.4590  0.2812  1.0690
  121OSM   H18U12807   2.275   3.102   8.295 -0.0978  1.6048  0.2167
  121OSM    C1F12808   3.084   2.903   6.366 -0.2217  0.7394  0.2127
  121OSM     OF12809   3.108   3.006   6.304  0.2681  0.0572 -0.1554
  121OSM    C2F12810   3.196   2.804   6.388  1.0144 -0.0856  0.0663
  121OSM    H2F12811   3.263   2.799   6.300 -0.1710  2.3154 -1.0132
  121OSM    H2G12812   3.160   2.700   6.403 -0.3418  0.5699  1.5152
  121OSM    C3F12813   3.273   2.842   6.520  0.0473 -0.1112  0.6542
  121OSM    H3F12814   3.315   2.943   6.503 -0.0895 -0.3326 -1.0654
  121OSM    H3G12815   3.360   2.776   6.542  0.8911  0.0410 -2.1200
  121OSM    C4F12816   3.180   2.853   6.648  1.1488 -0.3346  0.4086
  121OSM    H4F12817   3.129   2.756   6.664 -0.7218  0.4093 -0.9675
  121OSM    H4G12818   3.096   2.922   6.626  1.8372  0.2529 -0.3842
  121OSM    C5F12819   3.242   2.910   6.778 -0.0865  0.3796  0.6696
  121OSM    H5F12820   3.277   3.015   6.767  0.1090  0.2607  0.1319
  121OSM    H5G12821   3.333   2.855   6.810 -2.1924 -2.7681  1.5017
  121OSM    C6F12822   3.146   2.921   6.892  0.7970  0.2276  0.0846
  121OSM    H6F12823   3.099   2.825   6.920 -0.3947  1.0621  1.0321
  121OSM    H6G12824   3.062   2.987   6.860 -0.2566 -0.5950  1.1087
  121OSM    C7F12825   3.200   2.999   7.014 -0.6576 -0.5845  0.6767
  121OSM    H7F12826   3.237   3.100   6.988  1.5413 -1.2596  1.1550
  121OSM    H7G12827   3.292   2.948   7.047  1.0345  1.8539 -0.1414
  121OSM    C8F12828   3.102   3.008   7.132  0.1738  0.2117 -0.2499
  121OSM    H8F12829   3.011   3.062   7.096  0.9631  0.1535 -2.4093
  121OSM    H8G12830   3.158   3.062   7.211  0.4923  0.6780 -0.7976
  121OSM    C9F12831   3.061   2.876   7.187 -0.1488 -0.2579 -0.1639
  121OSM    H9F12832   3.031   2.807   7.107  0.0040  1.1268 -1.4272
  121OSM   C10F12833   3.055   2.836   7.318 -0.1123  0.0451  0.7843
  121OSM   H10F12834   3.017   2.734   7.335 -0.7996  0.1124 -0.3105
  121OSM   C11F12835   3.103   2.915   7.436 -0.1114 -0.2073 -0.6730
  121OSM   H11F12836   3.138   3.017   7.409  2.6648 -0.2094  2.5502
  121OSM   H11G12837   3.199   2.866   7.464 -1.4385 -1.5908  1.5815
  121OSM   C12F12838   3.003   2.934   7.554  0.3134  0.7547 -0.1817
  121OSM   H12F12839   2.944   2.839   7.555 -0.1048  1.0041 -0.6462
  121OSM   H12G12840   2.933   3.014   7.523 -0.2567  0.2599 -0.1998
  121OSM   C13F12841   3.069   2.979   7.685  0.3985 -0.0634  0.1954
  121OSM   H13F12842   3.100   3.085   7.673  2.2480 -0.6777 -0.5465
  121OSM   H13G12843   3.160   2.918   7.699 -0.1566 -0.8598  0.3934
  121OSM   C14F12844   2.979   2.963   7.804 -0.2058  0.3605 -0.3643
  121OSM   H14F12845   2.965   2.855   7.825  2.4950 -0.1503 -1.0152
  121OSM   H14G12846   2.878   3.002   7.779  0.6662  1.6317 -2.0102
  121OSM   C15F12847   3.014   3.034   7.935 -0.9794 -0.2605 -0.3271
  121OSM   H15F12848   3.008   3.145   7.922  1.9699  0.2598  2.0247
  121OSM   H15G12849   3.121   3.011   7.956 -1.7162 -1.9680  1.5932
  121OSM   C16F12850   2.923   2.996   8.056 -0.2948 -0.1915  0.1129
  121OSM   H16F12851   2.927   2.886   8.075  1.9395  0.0153  0.9852
  121OSM   H16G12852   2.818   3.025   8.035  0.7154  0.8418 -4.0271
  121OSM   C17F12853   2.961   3.051   8.192 -0.3493 -0.3022  0.1589
  121OSM   H17F12854   2.944   3.160   8.201  1.4098  0.3278 -3.2320
  121OSM   H17G12855   3.071   3.046   8.210 -0.1332  0.3421 -0.9125
  121OSM   C18F12856   2.881   3.002   8.315  0.0803  0.1991  0.7546
  121OSM   H18F12857   2.773   3.028   8.319 -0.0592 -0.2615  0.0422
  121OSM   H18G12858   2.922   3.032   8.414  1.1085 -0.9893  0.6990
  121OSM   H18H12859   2.890   2.892   8.308 -0.9141  0.2266 -1.3274
  122OSM      N12860   1.449   4.985   5.785  0.9609 -0.0271 -1.1031
  122OSM    C1512861   1.458   5.095   5.678  0.0912  0.1457 -0.0172
  122OSM   H15A12862   1.416   5.060   5.585 -0.2989  0.7403 -0.0611
  122OSM   H15B12863   1.559   5.130   5.662  0.7506 -1.3901  0.6963
  122OSM   H15C12864   1.414   5.182   5.724 -2.1359 -0.9932  0.0558
  122OSM    C1412865   1.311   4.987   5.851 -0.2582 -0.1056  0.5464
  122OSM   H14A12866   1.241   4.979   5.768  1.8306  2.7762 -1.6061
  122OSM   H14B12867   1.291   5.075   5.911  0.3880 -1.0513  2.1625
  122OSM   H14C12868   1.292   4.903   5.916 -2.5384  0.6995  0.9966
  122OSM    C1312869   1.478   4.856   5.712  0.7986  0.3118 -0.1183
  122OSM   H13A12870   1.466   4.777   5.785 -2.8297  2.7553  2.1572
  122OSM   H13B12871   1.577   4.851   5.671  0.2850  1.6100 -1.5546
  122OSM   H13C12872   1.409   4.850   5.629 -0.3090 -0.1214  0.8021
  122OSM    C1212873   1.550   5.006   5.887 -0.2338 -0.0431 -0.8790
  122OSM   H12A12874   1.587   4.915   5.932  1.6238  0.8393 -0.5429
  122OSM   H12B12875   1.511   5.055   5.974  1.7437  2.2986 -1.2558
  122OSM    C1112876   1.680   5.087   5.854 -0.5177  0.6979 -0.2859
  122OSM   H11A12877   1.721   5.046   5.759  0.6691  1.0041  0.0994
  122OSM   H11B12878   1.764   5.071   5.924  0.1345  1.8702 -0.7921
  122OSM      P12879   1.659   5.327   5.966  0.1780  0.2962  0.1704
  122OSM    O1312880   1.800   5.376   5.981 -0.3273 -0.1316  0.3178
  122OSM    O1412881   1.556   5.429   5.937 -0.5893 -0.5324 -0.2340
  122OSM    O1112882   1.619   5.242   6.101  0.6405 -0.0133  1.0572
  122OSM    O1212883   1.652   5.225   5.845  0.2351 -0.1924 -0.3669
  122OSM    C1S12884   1.713   5.197   6.193  0.4144 -0.1883  0.3012
  122OSM    H1S12885   1.799   5.266   6.199 -1.5141  2.5913 -2.3006
  122OSM    H1T12886   1.757   5.101   6.159 -1.6733 -0.1468 -2.7312
  122OSM     NF12887   1.790   5.137   6.408  0.2996  0.3981  0.0890
  122OSM    HNF12888   1.817   5.041   6.402  1.5582  0.7470  0.0477
  122OSM    C2S12889   1.669   5.172   6.339  0.7426  0.7567 -0.5642
  122OSM    H2S12890   1.624   5.262   6.386 -2.7059 -0.2518 -1.8110
  122OSM    C3S12891   1.546   5.078   6.341  0.9855  0.1751  0.4591
  122OSM    H3S12892   1.573   4.979   6.299 -3.5908 -1.0746  0.3056
  122OSM     O312893   1.443   5.115   6.245  0.4729  0.1267 -0.5724
  122OSM    HO312894   1.503   5.170   6.194  0.6884 -0.8944 -1.4375
  122OSM    C4S12895   1.497   5.064   6.484 -0.3297 -0.1844 -0.3165
  122OSM    H4S12896   1.520   4.975   6.543 -2.8582 -0.5058  0.2000
  122OSM    C5S12897   1.416   5.154   6.540  0.7504  0.0223 -0.1630
  122OSM    H5S12898   1.376   5.238   6.480  0.4700 -0.9155 -1.3045
  122OSM    C6S12899   1.364   5.140   6.682  0.3303 -0.1169 -0.2420
  122OSM    H6S12900   1.326   5.036   6.691  0.3591 -0.1762 -0.7857
  122OSM    H6T12901   1.274   5.204   6.689  0.4565 -0.1393  1.7953
  122OSM    C7S12902   1.461   5.165   6.800 -0.5886 -0.2914  0.8429
  122OSM    H7S12903   1.461   5.275   6.815 -2.2458  0.1498 -1.9545
  122OSM    H7T12904   1.564   5.142   6.766 -0.4582  0.0869  0.9749
  122OSM    C8S12905   1.424   5.085   6.924 -0.4996  0.0009 -0.3511
  122OSM    H8S12906   1.473   4.987   6.907  1.5515  0.8168  0.7612
  122OSM    H8T12907   1.315   5.070   6.942 -0.1519 -0.8668  1.0862
  122OSM    C9S12908   1.500   5.137   7.047  0.2887  0.0618 -0.1295
  122OSM    H9S12909   1.466   5.237   7.083 -0.0406 -1.1555  3.1668
  122OSM    H9T12910   1.609   5.149   7.030  0.1506 -0.5585 -1.4794
  122OSM   C10S12911   1.485   5.038   7.159 -0.0403 -0.4599  0.0771
  122OSM   H10S12912   1.522   4.940   7.122  3.3976  1.6113 -2.2761
  122OSM   H10T12913   1.380   5.035   7.194 -0.6718  0.2759 -1.6884
  122OSM   C11S12914   1.570   5.061   7.292  0.2217 -0.2972 -0.1576
  122OSM   H11S12915   1.516   5.135   7.355  1.0596  0.1310  0.0655
  122OSM   H11T12916   1.672   5.099   7.272  1.1287 -2.2068  0.7313
  122OSM   C12S12917   1.573   4.945   7.387  0.3608  0.3921  0.4657
  122OSM   H12S12918   1.627   4.866   7.331 -3.0898 -0.8800 -1.2238
  122OSM   H12T12919   1.468   4.908   7.394  0.3301  0.1804 -0.9825
  122OSM   C13S12920   1.639   4.982   7.520 -0.7226  0.4587  0.7260
  122OSM   H13S12921   1.716   5.059   7.500 -0.8569 -0.3125 -2.9638
  122OSM   H13T12922   1.684   4.889   7.562  1.6030  1.6147  0.8636
  122OSM   C14S12923   1.531   5.023   7.621 -0.4136 -0.2739  0.2931
  122OSM   H14S12924   1.457   4.940   7.629  1.0990 -1.8989 -2.0341
  122OSM   H14T12925   1.487   5.117   7.581  0.2536  1.4036  3.2956
  122OSM   C15S12926   1.576   5.054   7.756 -0.2817 -0.1496 -0.0930
  122OSM   H15S12927   1.663   5.120   7.740  0.1631 -0.6526  0.2410
  122OSM   H15T12928   1.619   4.962   7.801 -2.2373 -2.0939 -2.0880
  122OSM   C16S12929   1.459   5.109   7.833 -0.4349  0.4341 -0.2434
  122OSM   H16S12930   1.383   5.029   7.839 -0.0273 -0.0191 -1.0877
  122OSM   H16T12931   1.414   5.193   7.777 -0.9421 -0.0871 -0.6128
  122OSM   C17S12932   1.488   5.144   7.980  0.8103 -0.8566  0.0150
  122OSM   H17S12933   1.573   5.216   7.983  0.0912 -0.0635  2.1155
  122OSM   H17T12934   1.517   5.050   8.032 -1.3297 -2.1122 -0.9926
  122OSM   C18S12935   1.370   5.214   8.049 -0.6248 -0.1652  0.2023
  122OSM   H18S12936   1.328   5.285   7.976  2.8936  1.9718  0.1234
  122OSM   H18T12937   1.403   5.275   8.135 -0.2702 -0.5299  0.3290
  122OSM   H18U12938   1.303   5.133   8.085 -0.6283  0.0816  0.7534
  122OSM    C1F12939   1.874   5.235   6.455 -1.4087  0.3387 -1.3514
  122OSM     OF12940   1.845   5.354   6.452  0.3459  0.2611 -0.2866
  122OSM    C2F12941   2.000   5.179   6.516  0.4862  0.0457 -0.3642
  122OSM    H2F12942   2.086   5.229   6.468 -0.6371 -0.4680 -3.0344
  122OSM    H2G12943   2.010   5.069   6.504  0.0578 -0.3380  2.3532
  122OSM    C3F12944   2.006   5.200   6.669  0.0033  0.1011  0.3067
  122OSM    H3F12945   1.923   5.143   6.716 -0.6298 -1.9942 -3.1812
  122OSM    H3G12946   1.991   5.308   6.692 -3.2232  0.1585 -1.7169
  122OSM    C4F12947   2.133   5.151   6.738 -0.1258 -0.0718 -0.2559
  122OSM    H4F12948   2.173   5.058   6.692 -2.6892 -0.1648 -2.4052
  122OSM    H4G12949   2.109   5.135   6.845 -1.2787 -0.6622 -0.5958
  122OSM    C5F12950   2.248   5.253   6.745  0.0600  0.0516 -0.1223
  122OSM    H5F12951   2.202   5.354   6.740 -1.3106 -0.5780 -0.4698
  122OSM    H5G12952   2.301   5.255   6.648  1.2943 -1.8917  0.4841
  122OSM    C6F12953   2.341   5.237   6.860 -0.3132 -0.5013  0.5289
  122OSM    H6F12954   2.290   5.276   6.952 -0.9029 -0.0786  0.0330
  122OSM    H6G12955   2.427   5.304   6.842 -1.3322  1.2679  2.0063
  122OSM    C7F12956   2.405   5.090   6.870  0.2555  0.1584 -0.9090
  122OSM    H7F12957   2.475   5.100   6.783  0.5637  0.6114 -0.6090
  122OSM    H7G12958   2.319   5.022   6.854  1.6144 -1.5131 -1.2103
  122OSM    C8F12959   2.466   5.063   7.013 -0.1935  0.1256  0.7838
  122OSM    H8F12960   2.551   5.135   7.014  0.9307 -1.1749  0.8484
  122OSM    H8G12961   2.513   4.962   7.010  1.0433  0.7121 -0.7813
  122OSM    C9F12962   2.363   5.074   7.116 -0.2401  0.0927 -0.3032
  122OSM    H9F12963   2.259   5.086   7.084  0.1650  0.0720 -1.6840
  122OSM   C10F12964   2.401   5.112   7.239  0.7973 -0.2377  0.7099
  122OSM   H10F12965   2.321   5.130   7.313 -0.8607  1.7920 -1.4981
  122OSM   C11F12966   2.542   5.143   7.281  0.0503  0.1339 -0.0821
  122OSM   H11F12967   2.560   5.252   7.265 -1.5637  0.3298 -0.6492
  122OSM   H11G12968   2.613   5.087   7.216 -1.3821 -2.1300  0.2791
  122OSM   C12F12969   2.580   5.093   7.427  0.0749 -0.2104 -0.5935
  122OSM   H12F12970   2.688   5.107   7.409 -0.1988  0.5801 -1.7339
  122OSM   H12G12971   2.550   4.986   7.432 -1.2451 -0.0104 -3.0014
  122OSM   C13F12972   2.510   5.181   7.535  0.4633 -0.4194  0.3412
  122OSM   H13F12973   2.407   5.142   7.551  0.5116 -0.0966  1.4939
  122OSM   H13G12974   2.501   5.283   7.492 -0.6009 -0.2933  0.8272
  122OSM   C14F12975   2.601   5.185   7.663 -0.1148 -1.3437 -0.5125
  122OSM   H14F12976   2.706   5.211   7.637  0.2205  0.5671  2.5863
  122OSM   H14G12977   2.603   5.083   7.706 -0.4773 -1.0078  0.3025
  122OSM   C15F12978   2.572   5.294   7.770  0.2837 -0.4605 -0.3882
  122OSM   H15F12979   2.628   5.256   7.859 -0.9656  0.3127  0.7590
  122OSM   H15G12980   2.463   5.281   7.783  0.5787 -1.0752  1.6959
  122OSM   C16F12981   2.607   5.439   7.732  0.0953 -0.5113 -0.2421
  122OSM   H16F12982   2.552   5.476   7.642 -0.8386 -1.8480 -0.2384
  122OSM   H16G12983   2.717   5.444   7.717  0.1207  1.0811  0.3640
  122OSM   C17F12984   2.565   5.546   7.830 -0.3281 -0.0847 -0.2553
  122OSM   H17F12985   2.469   5.507   7.870 -0.1645 -0.4716 -0.2359
  122OSM   H17G12986   2.548   5.643   7.779 -1.4142 -0.7787 -1.2480
  122OSM   C18F12987   2.665   5.581   7.944 -0.0095  0.8021  0.0459
  122OSM   H18F12988   2.763   5.613   7.904  0.3506  0.1625  0.4192
  122OSM   H18G12989   2.691   5.500   8.014  1.7947  0.1905 -1.2929
  122OSM   H18H12990   2.621   5.670   7.994 -0.3786 -0.3599  1.8356
  123OSM      N12991   5.993   0.694   6.475  0.7636  0.0592 -0.2010
  123OSM    C1512992   5.942   0.715   6.614  0.3983  0.1509 -0.1048
  123OSM   H15A12993   5.902   0.625   6.659  1.1874  0.5764  1.4852
  123OSM   H15B12994   5.857   0.780   6.627  0.2655  0.4901 -2.4814
  123OSM   H15C12995   6.032   0.748   6.664  0.2140  1.8099 -0.8357
  123OSM    C1412996   6.094   0.591   6.491  0.0476  0.0396  0.0997
  123OSM   H14A12997   6.168   0.628   6.561  1.2115 -0.0185 -1.0758
  123OSM   H14B12998   6.139   0.568   6.396  2.9821 -0.5083  1.5783
  123OSM   H14C12999   6.048   0.502   6.529  0.4061 -0.2902 -0.2417
  123OSM    C1313000   5.877   0.661   6.390  0.4199 -0.0684 -0.4087
  123OSM   H13A13001   5.810   0.744   6.378 -2.0188 -2.0665 -1.0506
  123OSM   H13B13002   5.835   0.568   6.428  1.0200  0.1809  0.9154
  123OSM   H13C13003   5.907   0.627   6.292 -0.3280 -0.7818 -0.3998
  123OSM    C1213004   6.060   0.821   6.414  0.2967  0.0146 -0.5609
  123OSM   H12A13005   5.984   0.898   6.419 -0.7400 -0.9339 -1.6674
  123OSM   H12B13006   6.067   0.799   6.309  0.8819 -1.2710 -0.2613
  123OSM    C1113007   6.182   0.883   6.473 -0.2484  0.6382 -0.4290
  123OSM   H11A13008   6.170   0.880   6.583  3.5899 -0.4383  0.0305
  123OSM   H11B13009   6.199   0.990   6.450  0.6129  0.1554 -2.1132
  123OSM      P13010   6.415   0.770   6.525  0.1031 -0.0110 -0.3235
  123OSM    O1313011   6.368   0.643   6.584  0.0679 -0.7370  0.0506
  123OSM    O1413012   6.540   0.779   6.444  0.3326  0.0386 -0.0662
  123OSM    O1113013   6.431   0.881   6.640 -0.3821  0.1323  0.7768
  123OSM    O1213014   6.299   0.812   6.428  0.4297 -0.0932  0.1091
  123OSM    C1S13015   6.540   0.867   6.731 -0.3227  0.6557  0.4849
  123OSM    H1S13016   6.619   0.936   6.695  2.2683 -2.1083  0.6770
  123OSM    H1T13017   6.592   0.770   6.745 -1.1207  0.3168  1.1713
  123OSM     NF13018   6.636   0.927   6.950 -0.0170  0.1111 -0.0642
  123OSM    HNF13019   6.646   0.855   7.018 -0.1707  0.2832  0.1401
  123OSM    C2S13020   6.507   0.916   6.871  0.2213  0.4600 -0.5092
  123OSM    H2S13021   6.454   1.014   6.875  0.7843  0.7698 -0.4584
  123OSM    C3S13022   6.395   0.824   6.929  0.4581  0.4754  0.1829
  123OSM    H3S13023   6.429   0.719   6.928 -2.3279 -0.4708 -2.9853
  123OSM     O313024   6.280   0.832   6.853  0.3632 -0.2973  0.1440
  123OSM    HO313025   6.308   0.888   6.780  0.8958 -0.9864 -0.1802
  123OSM    C4S13026   6.371   0.856   7.076 -0.0090 -0.1765  0.4582
  123OSM    H4S13027   6.406   0.767   7.131  1.0642  0.6335  1.1162
  123OSM    C5S13028   6.307   0.959   7.132  0.4394 -0.4901  0.3063
  123OSM    H5S13029   6.266   1.044   7.075  0.4227 -1.1643 -0.7096
  123OSM    C6S13030   6.285   0.968   7.277  0.7716 -0.4906  0.1162
  123OSM    H6S13031   6.331   1.062   7.314  0.6052  1.3459 -4.0874
  123OSM    H6T13032   6.339   0.884   7.326  2.8543  0.1877 -0.9184
  123OSM    C7S13033   6.137   0.965   7.323  0.3119 -0.2771 -0.7505
  123OSM    H7S13034   6.098   0.866   7.290 -1.8017  0.4244 -0.3748
  123OSM    H7T13035   6.079   1.039   7.265 -3.7175 -2.4635  0.2647
  123OSM    C8S13036   6.114   0.981   7.475  0.2773  0.2557  0.1551
  123OSM    H8S13037   6.009   0.961   7.502  0.2344  0.5365  0.1950
  123OSM    H8T13038   6.134   1.083   7.513  0.1082  1.6169 -3.1989
  123OSM    C9S13039   6.193   0.892   7.574  0.7824  0.4971 -0.2648
  123OSM    H9S13040   6.302   0.903   7.557  0.4906  0.7447 -2.0097
  123OSM    H9T13041   6.163   0.787   7.553  1.9478  0.1156 -0.0711
  123OSM   C10S13042   6.158   0.926   7.721 -0.0829 -0.2728  0.1839
  123OSM   H10S13043   6.051   0.910   7.744 -0.2663  2.9087  1.7253
  123OSM   H10T13044   6.181   1.034   7.730 -0.5835 -0.2314  0.8963
  123OSM   C11S13045   6.239   0.850   7.817  0.1847 -0.6619 -0.1511
  123OSM   H11S13046   6.348   0.859   7.800  0.0458  1.4962 -0.1107
  123OSM   H11T13047   6.212   0.743   7.804 -0.6858 -0.8501  2.7850
  123OSM   C12S13048   6.216   0.909   7.958 -0.3135  0.3227 -0.1173
  123OSM   H12S13049   6.214   1.020   7.955 -0.1996  0.2986 -1.8765
  123OSM   H12T13050   6.296   0.874   8.027 -0.4394 -1.3721 -0.8116
  123OSM   C13S13051   6.079   0.865   8.010 -0.0864  0.8109 -0.3532
  123OSM   H13S13052   6.079   0.755   8.022 -0.8480  0.7953 -0.5230
  123OSM   H13T13053   5.996   0.896   7.944 -0.5603 -0.0855 -0.1715
  123OSM   C14S13054   6.049   0.933   8.147  0.4568 -0.8534  0.4877
  123OSM   H14S13055   6.036   1.041   8.124  1.1612 -1.2286 -1.7624
  123OSM   H14T13056   6.139   0.934   8.213  0.1255  1.5507  0.9371
  123OSM   C15S13057   5.924   0.885   8.217  0.1690 -0.2199 -0.9351
  123OSM   H15S13058   5.953   0.809   8.293 -0.3805  2.0405  1.6499
  123OSM   H15T13059   5.862   0.847   8.134  0.2430  0.4893 -1.3202
  123OSM   C16S13060   5.852   1.009   8.286  0.2344  0.1811 -0.2562
  123OSM   H16S13061   5.786   1.064   8.216  1.4241  0.9218 -0.8112
  123OSM   H16T13062   5.926   1.074   8.338  0.3842 -0.4305  0.2955
  123OSM   C17S13063   5.753   0.973   8.400  0.2286 -0.3342  0.1702
  123OSM   H17S13064   5.726   1.069   8.450  1.8883 -0.6177  1.6678
  123OSM   H17T13065   5.806   0.905   8.470  0.9071 -0.1322 -0.1404
  123OSM   C18S13066   5.621   0.900   8.365  0.3870  0.2362 -0.4666
  123OSM   H18S13067   5.641   0.811   8.301 -1.0512  0.3793 -1.1289
  123OSM   H18T13068   5.555   0.971   8.311  0.7643  0.6249 -0.4169
  123OSM   H18U13069   5.573   0.864   8.458  3.9614 -2.7396  0.3702
  123OSM    C1F13070   6.738   1.012   6.924 -0.2248  0.5032 -0.1725
  123OSM     OF13071   6.726   1.101   6.843 -0.1870 -0.3812  0.2876
  123OSM    C2F13072   6.854   0.986   7.010 -0.1741 -0.8526  0.0882
  123OSM    H2F13073   6.911   0.911   6.952  0.7870  0.8995 -1.2903
  123OSM    H2G13074   6.830   0.931   7.104  1.9378 -4.5052 -1.3904
  123OSM    C3F13075   6.936   1.118   7.042 -0.5474  1.1428  0.4409
  123OSM    H3F13076   6.915   1.203   6.974 -2.3081  1.3993  1.2660
  123OSM    H3G13077   7.046   1.109   7.042 -0.6471 -0.2065 -0.8158
  123OSM    C4F13078   6.898   1.164   7.184 -0.0516 -0.2344  0.3466
  123OSM    H4F13079   6.969   1.242   7.218  0.5901 -1.7656  2.6533
  123OSM    H4G13080   6.919   1.086   7.260 -1.4130 -0.4610  0.5038
  123OSM    C5F13081   6.759   1.233   7.189 -0.6648 -0.6590  0.3198
  123OSM    H5F13082   6.669   1.173   7.165 -1.7442  1.0215  0.1045
  123OSM    H5G13083   6.759   1.311   7.110 -0.7136 -1.3840 -0.3924
  123OSM    C6F13084   6.729   1.298   7.330  0.7487 -0.0664  0.3871
  123OSM    H6F13085   6.631   1.346   7.310  1.4625  0.5807 -1.7503
  123OSM    H6G13086   6.806   1.374   7.358  2.5237 -1.6625 -0.0355
  123OSM    C7F13087   6.695   1.193   7.439 -0.0213  0.2623  0.3465
  123OSM    H7F13088   6.791   1.157   7.481  0.8366 -0.4896 -2.1791
  123OSM    H7G13089   6.647   1.100   7.403  2.1875 -0.8495  0.2193
  123OSM    C8F13090   6.586   1.243   7.532  0.0367 -0.2571  0.5569
  123OSM    H8F13091   6.559   1.158   7.599 -2.6801 -1.3367 -1.7843
  123OSM    H8G13092   6.491   1.279   7.486  1.2101  0.0847 -1.6403
  123OSM    C9F13093   6.626   1.361   7.618 -0.1315  0.0583  0.1043
  123OSM    H9F13094   6.640   1.449   7.553  0.3060  0.8261  1.2247
  123OSM   C10F13095   6.656   1.376   7.753  0.6025 -0.5016  0.0491
  123OSM   H10F13096   6.686   1.478   7.783 -1.6791 -0.0776  1.0446
  123OSM   C11F13097   6.656   1.270   7.858 -0.4857  0.2698  0.4526
  123OSM   H11F13098   6.764   1.245   7.869 -0.7464 -1.2656 -0.3393
  123OSM   H11G13099   6.608   1.183   7.808  2.1962  0.7576 -3.1618
  123OSM   C12F13100   6.593   1.313   7.995 -0.0255 -0.7595  0.4164
  123OSM   H12F13101   6.490   1.353   7.995  1.1326  2.4554 -0.1828
  123OSM   H12G13102   6.647   1.398   8.043 -0.0463  0.5813 -1.8655
  123OSM   C13F13103   6.595   1.195   8.099 -0.5274 -0.3330  0.1582
  123OSM   H13F13104   6.692   1.181   8.152  0.2231  1.5216 -0.6792
  123OSM   H13G13105   6.568   1.105   8.040 -1.9046  0.6836 -0.7816
  123OSM   C14F13106   6.479   1.198   8.207  0.4494 -0.2333 -0.3729
  123OSM   H14F13107   6.380   1.204   8.156  1.0214 -0.1556 -1.4819
  123OSM   H14G13108   6.488   1.287   8.273 -1.5414  0.2757 -0.7586
  123OSM   C15F13109   6.487   1.078   8.307 -0.1541 -0.1517  0.3005
  123OSM   H15F13110   6.586   1.076   8.357 -0.7288  0.7180  1.4895
  123OSM   H15G13111   6.461   0.985   8.253  2.6857  0.3782 -2.1134
  123OSM   C16F13112   6.393   1.101   8.425 -0.2325 -0.5849  0.1110
  123OSM   H16F13113   6.286   1.080   8.401  0.2724 -1.5324 -1.3560
  123OSM   H16G13114   6.406   1.206   8.458 -1.9959  0.4043 -2.2010
  123OSM   C17F13115   6.436   1.024   8.550  0.7529  0.3231  0.2923
  123OSM   H17F13116   6.373   1.052   8.638  0.0147 -0.6051  0.0710
  123OSM   H17G13117   6.541   1.046   8.577  0.5417  2.8231 -0.8084
  123OSM   C18F13118   6.444   0.873   8.528 -0.6273 -0.6469 -0.0601
  123OSM   H18F13119   6.392   0.824   8.613 -1.8106  0.5967 -0.0388
  123OSM   H18G13120   6.547   0.832   8.528  0.2782  1.5403  0.6087
  123OSM   H18H13121   6.398   0.848   8.430 -0.7586 -0.3602 -0.0733
  124OSM      N13122   6.687   3.789   6.216  1.0018  0.3155  0.3429
  124OSM    C1513123   6.832   3.739   6.205  0.5290  0.4470 -0.6690
  124OSM   H15A13124   6.836   3.631   6.204 -3.2203  0.2131  1.0291
  124OSM   H15B13125   6.883   3.770   6.295 -0.6375 -4.6016  1.8722
  124OSM   H15C13126   6.880   3.767   6.112  1.3058 -2.1154 -1.0676
  124OSM    C1413127   6.604   3.733   6.098 -0.0638 -0.2667  0.2625
  124OSM   H14A13128   6.510   3.780   6.074  0.6046  0.1260 -1.7012
  124OSM   H14B13129   6.572   3.632   6.118 -1.6601 -0.1007 -1.3523
  124OSM   H14C13130   6.662   3.753   6.009 -2.5792  3.7719 -0.5855
  124OSM    C1313131   6.628   3.730   6.339 -0.0312 -0.0673  0.3553
  124OSM   H13A13132   6.661   3.774   6.432 -1.3183 -2.3923  1.9779
  124OSM   H13B13133   6.651   3.624   6.337  2.0896  0.4041 -0.8302
  124OSM   H13C13134   6.520   3.736   6.337 -0.1975 -2.7167 -1.3130
  124OSM    C1213135   6.660   3.938   6.225 -0.3136  0.4449 -0.1151
  124OSM   H12A13136   6.691   3.980   6.319 -0.9852 -0.6662  0.6214
  124OSM   H12B13137   6.553   3.950   6.217 -0.4587 -1.3790 -1.3533
  124OSM    C1113138   6.738   4.020   6.123 -0.2058 -0.4104 -0.5161
  124OSM   H11A13139   6.699   3.993   6.022 -1.0766  1.2754 -0.6507
  124OSM   H11B13140   6.845   3.991   6.130 -0.9624 -3.4911 -1.0070
  124OSM      P13141   6.782   4.262   6.238  0.2435  0.3291 -0.0779
  124OSM    O1313142   6.862   4.355   6.161  0.1531  0.6342 -0.5388
  124OSM    O1413143   6.689   4.319   6.340 -0.1593 -0.4740  0.2979
  124OSM    O1113144   6.888   4.156   6.314 -0.4463  0.6628 -0.0773
  124OSM    O1213145   6.718   4.160   6.133 -0.0698 -0.3288 -0.3863
  124OSM    C1S13146   6.961   4.207   6.428  0.1572 -0.7776 -0.0594
  124OSM    H1S13147   6.939   4.307   6.470 -1.5149 -0.9774 -0.4441
  124OSM    H1T13148   7.068   4.213   6.396 -0.1639  0.1307 -0.9723
  124OSM     NF13149   7.005   4.178   6.681 -0.1380 -0.2198  0.5148
  124OSM    HNF13150   7.103   4.179   6.701 -0.3700  2.1855  1.7050
  124OSM    C2S13151   6.961   4.112   6.556  0.7984  0.2960  0.6106
  124OSM    H2S13152   6.855   4.082   6.573  0.4731  1.1528  0.1089
  124OSM    C3S13153   7.051   3.993   6.511  0.0275 -0.3190  0.4068
  124OSM    H3S13154   7.159   4.018   6.513  0.0232 -0.2698  0.0730
  124OSM     O313155   7.010   3.934   6.389  1.1180  0.2264  0.4380
  124OSM    HO313156   6.947   4.001   6.363  0.1281 -0.1804  1.7211
  124OSM    C4S13157   7.043   3.886   6.613 -0.1360  0.0465  0.7062
  124OSM    H4S13158   6.947   3.832   6.610 -1.1033  1.6324  2.1929
  124OSM    C5S13159   7.143   3.835   6.683 -0.0270  0.8219  0.2111
  124OSM    H5S13160   7.245   3.876   6.684  0.6890 -0.8425 -1.5817
  124OSM    C6S13161   7.141   3.717   6.778 -0.0939 -0.4232 -0.0584
  124OSM    H6S13162   7.056   3.723   6.849 -0.0838  1.3660 -0.1741
  124OSM    H6T13163   7.232   3.723   6.841 -0.9906  1.7746  1.0550
  124OSM    C7S13164   7.124   3.577   6.708  0.1640 -1.0523 -0.0759
  124OSM    H7S13165   7.202   3.568   6.630 -0.1880 -1.6342 -0.3595
  124OSM    H7T13166   7.024   3.582   6.660  0.5411 -0.9488 -0.8579
  124OSM    C8S13167   7.155   3.460   6.798  0.3336 -0.0147 -0.3279
  124OSM    H8S13168   7.265   3.459   6.809  0.2032  1.2892  1.1327
  124OSM    H8T13169   7.120   3.363   6.755  0.1257 -0.0852 -0.0004
  124OSM    C9S13170   7.085   3.466   6.934 -0.0748  0.1427  0.3016
  124OSM    H9S13171   6.979   3.499   6.935 -0.1945 -0.2423  0.6142
  124OSM    H9T13172   7.147   3.537   6.994  0.5095 -0.0028 -0.1297
  124OSM   C10S13173   7.081   3.336   7.006  0.0538  0.3396  0.1368
  124OSM   H10S13174   7.169   3.276   6.974  1.7757  3.0658 -0.3756
  124OSM   H10T13175   6.993   3.278   6.971  0.1163  1.1808 -1.4256
  124OSM   C11S13176   7.086   3.353   7.156  0.2442  0.5031 -0.2150
  124OSM   H11S13177   7.187   3.382   7.191  1.8070 -1.8517 -2.6123
  124OSM   H11T13178   7.075   3.248   7.193 -1.6237  0.5344 -0.6472
  124OSM   C12S13179   6.985   3.454   7.217 -0.1946  0.3481  0.2273
  124OSM   H12S13180   6.880   3.424   7.195  0.5373 -0.7571 -1.9199
  124OSM   H12T13181   7.005   3.556   7.177  0.6920 -0.3773 -1.2326
  124OSM   C13S13182   7.023   3.481   7.362  0.1362  0.4497 -0.0702
  124OSM   H13S13183   6.935   3.528   7.410 -0.3754  0.1863 -0.7524
  124OSM   H13T13184   7.113   3.548   7.360 -1.2122  2.3190  0.3699
  124OSM   C14S13185   7.038   3.355   7.442  0.6567  0.0516  0.3105
  124OSM   H14S13186   7.114   3.284   7.404  0.3522  0.7344 -1.6406
  124OSM   H14T13187   6.948   3.292   7.428 -0.0855  1.5775 -2.1331
  124OSM   C15S13188   7.077   3.384   7.594  0.3172  0.1850  0.4662
  124OSM   H15S13189   6.989   3.414   7.654  1.5823  0.5937  2.1815
  124OSM   H15T13190   7.150   3.468   7.593 -0.1080  0.5589  0.6548
  124OSM   C16S13191   7.136   3.264   7.664  0.2422  0.0159  0.5109
  124OSM   H16S13192   7.224   3.226   7.608  0.3852  1.5817 -0.3467
  124OSM   H16T13193   7.060   3.184   7.662 -2.1940  2.2476  0.3413
  124OSM   C17S13194   7.186   3.287   7.808  0.8226 -0.1350  0.3434
  124OSM   H17S13195   7.277   3.350   7.795 -1.2074  2.3061 -2.9966
  124OSM   H17T13196   7.212   3.193   7.860  0.9563  1.0751  2.5305
  124OSM   C18S13197   7.099   3.361   7.906  0.0330 -0.2953  0.1883
  124OSM   H18S13198   7.153   3.364   8.003  0.9228  3.2229 -0.3527
  124OSM   H18T13199   7.000   3.313   7.922 -0.9697  1.4794 -0.6002
  124OSM   H18U13200   7.086   3.466   7.874 -0.0706 -0.8892 -1.8214
  124OSM    C1F13201   6.939   4.270   6.755 -0.1880  0.1470 -0.3881
  124OSM     OF13202   6.833   4.314   6.710  0.4304 -0.4504  0.1644
  124OSM    C2F13203   6.979   4.289   6.898 -0.2140 -0.0960 -0.4294
  124OSM    H2F13204   7.011   4.193   6.944  0.4057  0.7334  0.9366
  124OSM    H2G13205   6.890   4.320   6.957  0.8778  0.3258  1.0458
  124OSM    C3F13206   7.104   4.378   6.916 -0.2619 -0.2424 -0.1068
  124OSM    H3F13207   7.103   4.462   6.844  1.5625  0.2175  0.3856
  124OSM    H3G13208   7.184   4.307   6.887 -0.1491 -0.6069  1.0697
  124OSM    C4F13209   7.132   4.432   7.059 -0.1623 -0.6986  0.2268
  124OSM    H4F13210   7.041   4.487   7.089  0.3479 -0.1786  0.8388
  124OSM    H4G13211   7.215   4.506   7.062 -0.1381 -0.7078 -0.1077
  124OSM    C5F13212   7.156   4.322   7.165 -0.3668 -0.3365  0.0499
  124OSM    H5F13213   7.230   4.256   7.113  0.5096  1.1189 -0.5777
  124OSM    H5G13214   7.073   4.256   7.197 -0.0654 -1.0472 -0.6130
  124OSM    C6F13215   7.226   4.369   7.297  0.6536 -0.1782 -0.1388
  124OSM    H6F13216   7.149   4.433   7.345  1.7922  1.3152 -0.2738
  124OSM    H6G13217   7.319   4.425   7.275 -0.5497  1.6354 -0.7605
  124OSM    C7F13218   7.249   4.265   7.408  0.1660  0.3336  0.3307
  124OSM    H7F13219   7.328   4.198   7.368  0.1058  0.0196  0.7311
  124OSM    H7G13220   7.154   4.206   7.412  0.8340 -1.2471 -4.3492
  124OSM    C8F13221   7.294   4.331   7.545  0.4404  0.2938  0.1014
  124OSM    H8F13222   7.270   4.271   7.635 -1.1539 -0.0578 -0.5517
  124OSM    H8G13223   7.224   4.417   7.553  1.2201  1.0053 -0.6040
  124OSM    C9F13224   7.442   4.358   7.539  0.0472 -0.7369 -0.1083
  124OSM    H9F13225   7.468   4.442   7.471 -0.1761 -0.7982 -0.2690
  124OSM   C10F13226   7.551   4.312   7.598 -0.0106  0.0997 -0.1881
  124OSM   H10F13227   7.650   4.346   7.562 -0.6528  1.3948 -0.7752
  124OSM   C11F13228   7.558   4.204   7.708 -0.2537  0.7582  0.2097
  124OSM   H11F13229   7.456   4.166   7.730 -0.7850  1.5576 -0.8469
  124OSM   H11G13230   7.611   4.249   7.795  0.8047 -0.1260  0.0343
  124OSM   C12F13231   7.652   4.088   7.661  0.1626  0.0386 -0.0367
  124OSM   H12F13232   7.757   4.121   7.670 -0.0630  0.4264  1.4689
  124OSM   H12G13233   7.638   4.064   7.554 -3.0720  1.0684  0.0753
  124OSM   C13F13234   7.645   3.956   7.746  0.0573 -0.3159  0.6932
  124OSM   H13F13235   7.719   3.882   7.708  0.6740 -0.2360  1.7164
  124OSM   H13G13236   7.550   3.901   7.726  0.8568 -0.6348 -2.5108
  124OSM   C14F13237   7.671   3.965   7.897  0.2841  0.0543  0.5830
  124OSM   H14F13238   7.608   4.047   7.936 -0.2244  0.7075 -1.5361
  124OSM   H14G13239   7.774   4.006   7.892 -0.1898  1.0752 -1.5705
  124OSM   C15F13240   7.669   3.829   7.976 -0.8622 -0.6380 -0.3443
  124OSM   H15F13241   7.671   3.841   8.086 -1.2781 -1.8826 -0.1990
  124OSM   H15G13242   7.749   3.772   7.923  0.6967  2.9806 -2.0827
  124OSM   C16F13243   7.537   3.754   7.963 -0.0886 -0.0670 -0.2654
  124OSM   H16F13244   7.518   3.724   7.857 -2.7116 -2.5762  0.8277
  124OSM   H16G13245   7.454   3.818   7.999  1.1827  3.1135 -2.8159
  124OSM   C17F13246   7.539   3.631   8.060  0.2663  0.5114 -0.0185
  124OSM   H17F13247   7.505   3.661   8.161 -1.5973 -0.8665 -0.2217
  124OSM   H17G13248   7.631   3.568   8.058 -1.2484 -1.7810  1.2490
  124OSM   C18F13249   7.425   3.525   8.008 -0.4071 -0.1909 -0.3430
  124OSM   H18F13250   7.420   3.449   8.088 -1.0998 -0.8108 -0.9692
  124OSM   H18G13251   7.445   3.492   7.904  1.2910  0.8400 -0.3739
  124OSM   H18H13252   7.324   3.570   7.998  0.8829  2.7234 -1.1769
  125OSM      N13253   2.666   2.264   5.977  0.6654  0.0011  0.3330
  125OSM    C1513254   2.686   2.294   6.122  0.4542 -0.2323  0.6460
  125OSM   H15A13255   2.747   2.216   6.164  2.9251  0.1515 -2.1097
  125OSM   H15B13256   2.590   2.310   6.170  0.3706 -0.0424  0.4197
  125OSM   H15C13257   2.746   2.383   6.133  1.3170  0.1024 -5.0823
  125OSM    C1413258   2.550   2.170   5.958  0.3348  0.7646 -0.0664
  125OSM   H14A13259   2.515   2.168   5.855 -1.0825  0.9900  0.3979
  125OSM   H14B13260   2.465   2.179   6.023  1.0088 -2.2793  1.3045
  125OSM   H14C13261   2.593   2.076   5.988  1.1293 -0.1760 -3.8106
  125OSM    C1313262   2.635   2.394   5.908  0.0912 -0.0394 -0.2698
  125OSM   H13A13263   2.626   2.382   5.801 -0.7575  0.0220 -0.2152
  125OSM   H13B13264   2.716   2.465   5.911  0.7772 -0.8642  0.4613
  125OSM   H13C13265   2.544   2.439   5.945 -1.1247 -0.7373 -2.2958
  125OSM    C1213266   2.784   2.191   5.912  0.4077  0.2467  0.3722
  125OSM   H12A13267   2.867   2.259   5.904  0.6076 -0.0117  0.2364
  125OSM   H12B13268   2.769   2.163   5.809 -1.4897  1.9253  0.1611
  125OSM    C1113269   2.830   2.077   6.006 -0.1789 -0.0832 -0.7915
  125OSM   H11A13270   2.884   2.008   5.937  0.0185 -1.0123  0.2832
  125OSM   H11B13271   2.739   2.027   6.046 -0.2852  0.9404  0.2730
  125OSM      P13272   3.065   2.162   6.088  0.3302  0.3262  0.0262
  125OSM    O1313273   3.130   2.048   6.026 -0.0263 -0.6389  0.2598
  125OSM    O1413274   3.082   2.295   6.022 -0.4964  0.0175  0.5901
  125OSM    O1113275   3.117   2.178   6.234  0.3037  0.4424  0.1446
  125OSM    O1213276   2.918   2.123   6.112  0.4313 -0.0626  0.5687
  125OSM    C1S13277   3.046   2.178   6.354  0.9803  0.1407  0.8207
  125OSM    H1S13278   3.014   2.073   6.370  1.2834 -0.3116 -1.3748
  125OSM    H1T13279   2.965   2.254   6.351  1.6838  0.8466 -0.8776
  125OSM     NF13280   3.108   2.174   6.606  0.1497 -0.0365 -0.1253
  125OSM    HNF13281   3.076   2.235   6.678 -1.5098 -0.6943 -0.2859
  125OSM    C2S13282   3.141   2.224   6.474 -0.0127  0.1273  0.5677
  125OSM    H2S13283   3.239   2.182   6.444 -0.1297  0.8421 -0.8303
  125OSM    C3S13284   3.153   2.375   6.455 -0.1542 -0.8835  0.8992
  125OSM    H3S13285   3.057   2.427   6.477 -0.0811  0.4064 -1.6174
  125OSM     O313286   3.191   2.404   6.323 -0.1274 -0.3268 -0.1724
  125OSM    HO313287   3.175   2.322   6.275  0.4540 -0.1500 -0.6650
  125OSM    C4S13288   3.253   2.428   6.550 -0.0753  0.1818 -0.2154
  125OSM    H4S13289   3.212   2.419   6.652 -1.8974  2.0690 -0.7411
  125OSM    C5S13290   3.376   2.476   6.531 -0.4506 -0.1836 -0.4675
  125OSM    H5S13291   3.430   2.466   6.436 -1.0917  0.1095 -0.8667
  125OSM    C6S13292   3.471   2.523   6.641  0.3499 -0.0689  0.2054
  125OSM    H6S13293   3.517   2.620   6.613 -0.7917 -0.2063 -2.2539
  125OSM    H6T13294   3.557   2.453   6.653  0.3852 -0.1810 -0.6390
  125OSM    C7S13295   3.394   2.534   6.775 -0.5863 -0.3635  0.1186
  125OSM    H7S13296   3.350   2.440   6.814  0.7441 -0.9472  0.2570
  125OSM    H7T13297   3.317   2.612   6.761  0.1021  0.3381  0.1651
  125OSM    C8S13298   3.472   2.589   6.897  0.2993  0.0680  0.1332
  125OSM    H8S13299   3.486   2.699   6.885  1.1565 -0.0988 -0.3932
  125OSM    H8T13300   3.570   2.541   6.914  0.2008 -0.2243 -0.1246
  125OSM    C9S13301   3.398   2.585   7.036  0.3952 -0.2888 -0.1429
  125OSM    H9S13302   3.345   2.487   7.040  0.8303 -0.5783 -1.2153
  125OSM    H9T13303   3.322   2.666   7.048 -0.3932 -1.0850  0.3397
  125OSM   C10S13304   3.488   2.606   7.158 -0.6286 -0.3430  0.8531
  125OSM   H10S13305   3.539   2.705   7.160  0.0727 -0.6410 -0.9379
  125OSM   H10T13306   3.571   2.531   7.163  0.5337  0.8944  0.5320
  125OSM   C11S13307   3.425   2.591   7.297  0.4646 -1.1128 -0.0207
  125OSM   H11S13308   3.385   2.488   7.301 -1.2956 -0.5134 -1.8962
  125OSM   H11T13309   3.342   2.664   7.307  0.1450 -0.9847 -3.2041
  125OSM   C12S13310   3.509   2.632   7.412 -0.3492  0.7225 -0.0939
  125OSM   H12S13311   3.534   2.738   7.390  0.1909  0.1321 -2.5052
  125OSM   H12T13312   3.609   2.584   7.418 -0.1682  1.2349  0.9750
  125OSM   C13S13313   3.445   2.629   7.552  0.6437  0.7005 -0.5817
  125OSM   H13S13314   3.419   2.522   7.569 -0.4537  0.9091 -0.9024
  125OSM   H13T13315   3.355   2.694   7.542 -0.4775 -0.3565  2.0231
  125OSM   C14S13316   3.533   2.688   7.659 -0.7442  0.3686 -0.2235
  125OSM   H14S13317   3.574   2.789   7.639 -1.5680  0.8524  0.4704
  125OSM   H14T13318   3.614   2.612   7.661  1.3150  2.5518  0.1207
  125OSM   C15S13319   3.458   2.713   7.794  0.2040  0.0222  0.0308
  125OSM   H15S13320   3.447   2.617   7.849  0.4185  0.5288  0.9643
  125OSM   H15T13321   3.366   2.770   7.772  2.0714  2.3265 -2.2050
  125OSM   C16S13322   3.552   2.794   7.885  0.3541  0.1504  0.2009
  125OSM   H16S13323   3.582   2.892   7.841 -0.8438  1.0896  1.4118
  125OSM   H16T13324   3.650   2.743   7.892  0.6680  0.8779  1.3351
  125OSM   C17S13325   3.499   2.816   8.024 -0.6706 -0.3124 -0.3439
  125OSM   H17S13326   3.581   2.865   8.082  1.4162  0.4960 -3.8064
  125OSM   H17T13327   3.484   2.718   8.075 -0.9821 -1.6644 -2.9337
  125OSM   C18S13328   3.366   2.894   8.038 -0.4124 -0.0268  1.5210
  125OSM   H18S13329   3.330   2.877   8.142 -2.2366 -0.5346  0.8069
  125OSM   H18T13330   3.286   2.864   7.967  1.0563 -0.4772  0.0302
  125OSM   H18U13331   3.385   3.003   8.023 -1.7557  0.0458  0.3061
  125OSM    C1F13332   3.107   2.040   6.635 -0.0944 -0.0853 -0.3369
  125OSM     OF13333   3.178   1.958   6.571 -0.6016 -0.0835  0.3475
  125OSM    C2F13334   3.018   2.006   6.748 -0.1629 -0.0672 -0.5992
  125OSM    H2F13335   2.911   2.007   6.719 -0.6028  1.1548  0.9691
  125OSM    H2G13336   3.017   2.093   6.817 -3.3680  1.0511 -1.9166
  125OSM    C3F13337   3.045   1.868   6.813 -0.6166  0.0914  0.4450
  125OSM    H3F13338   3.151   1.834   6.822 -0.9475 -1.3135 -0.8526
  125OSM    H3G13339   3.011   1.789   6.743  1.8382 -2.2712  1.8221
  125OSM    C4F13340   2.951   1.850   6.935  0.1996  0.2918 -0.5603
  125OSM    H4F13341   2.938   1.741   6.948  1.0962  0.0267 -1.7929
  125OSM    H4G13342   2.851   1.891   6.912  0.6686  0.1653 -2.8988
  125OSM    C5F13343   2.994   1.921   7.062 -0.2234  0.7104  0.6413
  125OSM    H5F13344   3.034   2.017   7.021 -1.7112  2.0045  2.1294
  125OSM    H5G13345   3.088   1.882   7.105 -0.8502 -1.4725  0.1015
  125OSM    C6F13346   2.885   1.944   7.166 -0.2780  0.1804  0.9087
  125OSM    H6F13347   2.795   1.988   7.118 -0.8935 -0.5014  1.4417
  125OSM    H6G13348   2.932   2.026   7.225  0.2520  0.7022 -0.2085
  125OSM    C7F13349   2.864   1.817   7.246 -0.2911 -0.1267  0.3749
  125OSM    H7F13350   2.855   1.732   7.176  2.1122 -1.5530  1.7173
  125OSM    H7G13351   2.776   1.823   7.314  2.9047 -1.2420  4.9055
  125OSM    C8F13352   2.977   1.770   7.343  0.5818  0.4007  0.1709
  125OSM    H8F13353   3.072   1.776   7.286  1.5631  1.2261  1.8381
  125OSM    H8G13354   2.963   1.663   7.371 -0.3957  0.3925 -0.3452
  125OSM    C9F13355   2.986   1.850   7.470  0.2291  0.0572 -0.1488
  125OSM    H9F13356   3.024   1.952   7.457  0.1581  0.3252  1.5853
  125OSM   C10F13357   2.925   1.814   7.581  0.4341 -0.1646 -0.2997
  125OSM   H10F13358   2.946   1.874   7.671 -2.6937  0.4361  0.0977
  125OSM   C11F13359   2.839   1.693   7.608  0.0315 -0.2709 -0.1295
  125OSM   H11F13360   2.853   1.613   7.532 -1.3434 -0.1639 -0.5139
  125OSM   H11G13361   2.730   1.715   7.599  0.3820  1.4118 -0.3843
  125OSM   C12F13362   2.869   1.630   7.748 -0.8241 -0.0718 -0.1275
  125OSM   H12F13363   2.977   1.617   7.766 -0.9686  0.0271  0.8232
  125OSM   H12G13364   2.831   1.526   7.754 -0.8009 -0.0193  0.9658
  125OSM   C13F13365   2.823   1.703   7.876 -0.6985  0.3259 -0.0267
  125OSM   H13F13366   2.713   1.718   7.873 -0.2986  4.0430  1.0458
  125OSM   H13G13367   2.869   1.804   7.886 -0.0766  0.1464 -1.0081
  125OSM   C14F13368   2.853   1.612   8.003  0.2279  0.1446  0.4209
  125OSM   H14F13369   2.963   1.597   7.998  0.1678 -0.4407  0.8861
  125OSM   H14G13370   2.817   1.511   7.974  1.4792 -0.1888 -0.0029
  125OSM   C15F13371   2.787   1.670   8.132 -0.2924 -0.1074  0.0007
  125OSM   H15F13372   2.680   1.683   8.106  0.0604  2.0109 -0.5042
  125OSM   H15G13373   2.826   1.772   8.151  0.2823 -0.3328  0.0733
  125OSM   C16F13374   2.803   1.578   8.254 -1.0117  0.0234 -0.8121
  125OSM   H16F13375   2.911   1.569   8.280 -0.5754  1.1172 -2.1709
  125OSM   H16G13376   2.781   1.479   8.211  1.3391  0.7580 -3.8621
  125OSM   C17F13377   2.712   1.610   8.363 -0.4975  0.1593  0.8718
  125OSM   H17F13378   2.696   1.525   8.433 -0.4589 -1.0098 -0.5103
  125OSM   H17G13379   2.611   1.622   8.319 -0.3699 -0.4151  0.4153
  125OSM   C18F13380   2.741   1.740   8.440 -0.2520 -0.1333 -0.6369
  125OSM   H18F13381   2.823   1.717   8.512  0.7205  1.4547 -1.2052
  125OSM   H18G13382   2.656   1.775   8.503  1.2373  1.4061  0.5745
  125OSM   H18H13383   2.774   1.823   8.374  3.5937 -2.0026 -1.2230
  126OSM      N13384   0.414   6.429   6.243 -0.3666 -0.4335  0.2085
  126OSM    C1513385   0.311   6.533   6.250  0.1271  0.4451  0.1203
  126OSM   H15A13386   0.225   6.490   6.298  0.5501 -2.0636 -1.2788
  126OSM   H15B13387   0.270   6.563   6.155  1.9098  4.8728  0.6360
  126OSM   H15C13388   0.337   6.616   6.313  0.4670  0.6391 -0.2714
  126OSM    C1413389   0.370   6.310   6.156  0.1836 -0.2074 -0.0389
  126OSM   H14A13390   0.275   6.273   6.191  0.6312  0.8673  2.4461
  126OSM   H14B13391   0.442   6.230   6.153 -0.9802 -1.2396 -0.9689
  126OSM   H14C13392   0.364   6.348   6.055  0.7311 -0.4211 -0.1546
  126OSM    C1313393   0.541   6.487   6.174  0.6237 -0.5229 -0.1882
  126OSM   H13A13394   0.615   6.408   6.164  1.2661  0.2597 -1.8962
  126OSM   H13B13395   0.581   6.577   6.218 -0.5181 -0.1421  0.0744
  126OSM   H13C13396   0.521   6.521   6.074  1.0876  0.2926 -0.0144
  126OSM    C1213397   0.454   6.373   6.381 -0.1906 -0.4366 -0.7741
  126OSM   H12A13398   0.533   6.300   6.369 -0.5114 -1.2544  1.9057
  126OSM   H12B13399   0.375   6.313   6.423 -1.7414  0.3170 -2.5366
  126OSM    C1113400   0.526   6.473   6.480  0.3624 -0.2759 -0.2010
  126OSM   H11A13401   0.627   6.507   6.449 -0.0344  1.2453  0.1492
  126OSM   H11B13402   0.536   6.421   6.578  1.5052  0.9193  0.3302
  126OSM      P13403   0.495   6.735   6.509 -0.2966  0.3944 -0.0682
  126OSM    O1313404   0.616   6.752   6.419  0.2897 -0.7064  0.3502
  126OSM    O1413405   0.380   6.822   6.478  0.8937  0.1961 -0.0642
  126OSM    O1113406   0.533   6.752   6.666  0.7857  0.3667  0.4327
  126OSM    O1213407   0.442   6.584   6.501 -0.4397  0.6049 -0.2076
  126OSM    C1S13408   0.444   6.698   6.764  0.3913 -0.4034  0.3264
  126OSM    H1S13409   0.481   6.595   6.785  1.7944 -0.0437 -0.2997
  126OSM    H1T13410   0.342   6.681   6.724  0.6938 -1.2193 -0.1098
  126OSM     NF13411   0.349   6.707   6.986  0.1145 -0.3401  0.7290
  126OSM    HNF13412   0.251   6.717   6.972  0.2945 -1.3331 -1.2929
  126OSM    C2S13413   0.434   6.780   6.894  0.0902 -0.8331 -0.2916
  126OSM    H2S13414   0.536   6.786   6.939 -0.2790  0.5346  0.3950
  126OSM    C3S13415   0.378   6.922   6.862 -0.2893 -0.3404 -0.3104
  126OSM    H3S13416   0.275   6.907   6.825 -0.3633 -1.0485  0.1665
  126OSM     O313417   0.439   6.992   6.755 -0.8699 -0.9336 -0.7979
  126OSM    HO313418   0.463   6.912   6.707  0.8844  0.6570 -2.6995
  126OSM    C4S13419   0.368   7.006   6.987 -0.8039 -0.6395 -0.1712
  126OSM    H4S13420   0.274   6.982   7.039 -1.3194 -1.5232 -1.4802
  126OSM    C5S13421   0.455   7.095   7.038  0.2640 -0.6072  0.2148
  126OSM    H5S13422   0.542   7.134   6.984 -1.7212 -0.6375 -3.1364
  126OSM    C6S13423   0.437   7.172   7.163 -0.1424  0.6372  0.8865
  126OSM    H6S13424   0.332   7.191   7.195 -0.8725 -2.6359  0.6271
  126OSM    H6T13425   0.482   7.271   7.142 -0.4475  0.6122  0.0784
  126OSM    C7S13426   0.497   7.117   7.295 -0.2668  0.3301 -1.1819
  126OSM    H7S13427   0.607   7.100   7.291  0.1644  1.6239  3.0572
  126OSM    H7T13428   0.444   7.022   7.318  2.0374 -1.2128 -1.9833
  126OSM    C8S13429   0.465   7.202   7.425  0.0053  0.5915  0.1514
  126OSM    H8S13430   0.356   7.194   7.444  0.0684  1.5623  0.9868
  126OSM    H8T13431   0.488   7.310   7.428 -1.0613  0.8332 -0.2300
  126OSM    C9S13432   0.533   7.135   7.555 -0.3256 -0.7300  0.2435
  126OSM    H9S13433   0.641   7.160   7.548 -0.9359  2.8289  2.4600
  126OSM    H9T13434   0.535   7.024   7.547 -1.0150 -0.6252 -1.7541
  126OSM   C10S13435   0.472   7.188   7.687  0.2971 -0.5087 -0.1891
  126OSM   H10S13436   0.375   7.136   7.703  1.3748 -2.1458  1.4030
  126OSM   H10T13437   0.479   7.298   7.683 -1.5968 -0.4067 -0.9714
  126OSM   C11S13438   0.566   7.146   7.805 -0.4382  0.5111  0.8338
  126OSM   H11S13439   0.657   7.205   7.780  0.6458 -0.8342  1.5998
  126OSM   H11T13440   0.591   7.038   7.805 -0.3534  0.5304  1.5975
  126OSM   C12S13441   0.513   7.180   7.945 -0.3626  0.1605  0.2550
  126OSM   H12S13442   0.422   7.120   7.970  0.4159 -1.3418 -0.4557
  126OSM   H12T13443   0.484   7.287   7.947 -4.0220 -0.7712  1.4266
  126OSM   C13S13444   0.618   7.155   8.048  0.0994 -0.6151 -0.0188
  126OSM   H13S13445   0.707   7.219   8.026 -0.1255  0.3833  1.8512
  126OSM   H13T13446   0.640   7.047   8.060 -0.2986 -0.9156 -1.8948
  126OSM   C14S13447   0.569   7.198   8.193 -0.0974  0.0192  0.4003
  126OSM   H14S13448   0.542   7.306   8.191 -1.2667 -0.2974 -2.1875
  126OSM   H14T13449   0.652   7.175   8.264  0.5531 -4.5552 -1.6996
  126OSM   C15S13450   0.443   7.123   8.234  0.2537 -0.8224  0.0559
  126OSM   H15S13451   0.476   7.017   8.243 -0.4471 -0.9325  1.4657
  126OSM   H15T13452   0.365   7.123   8.155  0.3153  2.1021 -0.0561
  126OSM   C16S13453   0.383   7.176   8.362 -0.3250  0.6348  0.3452
  126OSM   H16S13454   0.338   7.277   8.358 -1.2688  0.1658 -1.5764
  126OSM   H16T13455   0.466   7.180   8.435  1.1004 -0.8951 -1.1353
  126OSM   C17S13456   0.276   7.078   8.409 -0.0771 -0.4374  0.5154
  126OSM   H17S13457   0.296   6.969   8.402 -1.4506 -0.8047  1.9731
  126OSM   H17T13458   0.193   7.090   8.335 -1.7566 -1.5395  2.1814
  126OSM   C18S13459   0.218   7.095   8.550 -0.6959 -0.0598 -0.1928
  126OSM   H18S13460   0.128   7.030   8.556  0.2217 -1.4192 -0.8208
  126OSM   H18T13461   0.165   7.192   8.562 -1.5820 -0.9804  4.0568
  126OSM   H18U13462   0.286   7.064   8.632 -0.5377  0.1906 -0.2310
  126OSM    C1F13463   0.394   6.596   7.039 -0.7579  0.9805 -0.5887
  126OSM     OF13464   0.519   6.569   7.022  0.6947 -0.4840  0.3862
  126OSM    C2F13465   0.297   6.500   7.109  0.4243 -0.4715 -0.0699
  126OSM    H2F13466   0.314   6.394   7.080 -0.8341 -0.3237 -1.3974
  126OSM    H2G13467   0.195   6.538   7.088  0.2838 -1.7593 -1.8010
  126OSM    C3F13468   0.301   6.511   7.267  0.1075 -0.2268 -0.1986
  126OSM    H3F13469   0.251   6.606   7.297 -0.4199 -1.6389  3.7555
  126OSM    H3G13470   0.409   6.512   7.295  0.2616 -2.6948 -0.5726
  126OSM    C4F13471   0.231   6.396   7.334 -0.6168 -0.8116  0.2674
  126OSM    H4F13472   0.264   6.293   7.307 -0.2165 -0.6308  0.0537
  126OSM    H4G13473   0.124   6.398   7.306 -0.3714 -4.2745 -1.1031
  126OSM    C5F13474   0.244   6.417   7.485 -0.4732 -0.2815  0.0673
  126OSM    H5F13475   0.214   6.522   7.503 -0.0370 -0.6097  2.8092
  126OSM    H5G13476   0.351   6.412   7.513 -1.2441 -2.6574  2.8158
  126OSM    C6F13477   0.155   6.323   7.568 -0.2240 -0.0492  0.4724
  126OSM    H6F13478   0.215   6.237   7.606  0.9268  0.5659  0.0737
  126OSM    H6G13479   0.064   6.292   7.514  0.2374 -0.1067 -0.2815
  126OSM    C7F13480   0.103   6.404   7.696 -0.0437  0.2597 -0.5204
  126OSM    H7F13481   0.019   6.354   7.749  1.1459 -0.6059  0.5799
  126OSM    H7G13482   0.057   6.497   7.657  0.1510  0.8910  0.7314
  126OSM    C8F13483   0.209   6.438   7.798  0.2723  0.9107 -0.4516
  126OSM    H8F13484   0.170   6.523   7.859  1.5861  2.1882 -1.3497
  126OSM    H8G13485   0.299   6.481   7.747  0.6255  0.4793 -0.1970
  126OSM    C9F13486   0.255   6.320   7.885 -0.1662 -0.0405 -0.2994
  126OSM    H9F13487   0.326   6.247   7.842 -1.8911 -1.5376 -0.6684
  126OSM   C10F13488   0.211   6.291   8.006 -0.2485  0.2767  0.0010
  126OSM   H10F13489   0.261   6.208   8.058 -1.0833  0.5272  1.2290
  126OSM   C11F13490   0.104   6.359   8.086  0.2084 -0.2828  0.6524
  126OSM   H11F13491   0.022   6.288   8.113  0.5676 -0.9217  0.0841
  126OSM   H11G13492   0.063   6.435   8.016 -2.2276  0.6709  3.0146
  126OSM   C12F13493   0.159   6.431   8.212  0.0857 -0.3522 -0.0611
  126OSM   H12F13494   0.205   6.523   8.170  0.8855 -1.6109 -2.0090
  126OSM   H12G13495   0.232   6.373   8.274  1.2729  0.2317 -0.8869
  126OSM   C13F13496   0.049   6.474   8.316  0.3906 -0.3145 -0.3877
  126OSM   H13F13497   0.002   6.375   8.336  2.7265 -0.8208  2.9174
  126OSM   H13G13498  -0.026   6.530   8.257  0.0742 -1.6561 -1.3001
  126OSM   C14F13499   0.110   6.556   8.434 -0.2945  0.2282  0.3881
  126OSM   H14F13500   0.140   6.658   8.402 -2.0517  0.8098  0.5491
  126OSM   H14G13501   0.205   6.510   8.470 -0.6203  0.4642  1.5910
  126OSM   C15F13502   0.018   6.577   8.550 -0.2579  0.1863 -0.5296
  126OSM   H15F13503  -0.018   6.474   8.572 -2.9163  1.4261  1.0944
  126OSM   H15G13504  -0.074   6.635   8.532 -2.2297 -2.2584  1.3001
  126OSM   C16F13505   0.090   6.627   8.679  0.3052 -0.4484 -1.2873
  126OSM   H16F13506   0.176   6.559   8.697  0.1315 -0.2354  0.3442
  126OSM   H16G13507   0.021   6.625   8.766 -0.1295 -1.2466 -1.6416
  126OSM   C17F13508   0.140   6.777   8.677 -0.7739  0.4267  0.0677
  126OSM   H17F13509   0.058   6.849   8.656 -1.4202 -0.0285  1.0073
  126OSM   H17G13510   0.222   6.779   8.602 -2.0080 -1.1758 -1.3464
  126OSM   C18F13511   0.208   6.802   8.818 -0.1442  0.1956 -0.6298
  126OSM   H18F13512   0.121   6.799   8.887 -1.5064 -1.4553 -2.4057
  126OSM   H18G13513   0.248   6.905   8.834  0.0677 -0.2624  2.0499
  126OSM   H18H13514   0.287   6.726   8.833 -0.9163 -0.3657  0.6929
  127OSM      N13515   6.677   1.177   6.203  0.0273 -0.0411  0.5854
  127OSM    C1513516   6.815   1.143   6.161 -1.1432  0.3936  0.6075
  127OSM   H15A13517   6.830   1.136   6.054  1.4291 -0.0091  0.9835
  127OSM   H15B13518   6.853   1.056   6.213  1.4166  0.3377 -1.2938
  127OSM   H15C13519   6.881   1.224   6.186 -0.5724  0.2655 -0.4805
  127OSM    C1413520   6.642   1.300   6.130  0.5707 -0.1603 -0.1163
  127OSM   H14A13521   6.723   1.370   6.129 -0.0227  0.6013 -3.7793
  127OSM   H14B13522   6.543   1.331   6.162  0.0312 -1.4721 -0.4584
  127OSM   H14C13523   6.633   1.279   6.024  1.2684  2.2136 -0.6763
  127OSM    C1313524   6.584   1.070   6.158  0.0508  0.1057  0.5478
  127OSM   H13A13525   6.480   1.081   6.184 -1.1613 -1.1515 -3.4014
  127OSM   H13B13526   6.619   0.970   6.178  5.2233  1.8639  0.8633
  127OSM   H13C13527   6.586   1.065   6.050  0.5964 -1.0653  0.6085
  127OSM    C1213528   6.669   1.185   6.356 -0.1309 -0.7352  0.8692
  127OSM   H12A13529   6.736   1.257   6.400 -1.2949  0.7458  0.2558
  127OSM   H12B13530   6.707   1.090   6.389  1.0455 -0.1359  1.2576
  127OSM    C1113531   6.532   1.195   6.419  0.4416  0.2792  0.1610
  127OSM   H11A13532   6.549   1.187   6.528  3.1774 -3.5808 -0.4335
  127OSM   H11B13533   6.461   1.114   6.391  0.7705  0.1919 -0.4431
  127OSM      P13534   6.322   1.331   6.366  0.1512 -0.1441 -0.4933
  127OSM    O1313535   6.275   1.466   6.414  0.1004  1.1360 -0.0524
  127OSM    O1413536   6.295   1.302   6.225 -0.7046  0.7455 -0.2096
  127OSM    O1113537   6.245   1.229   6.457  0.1487  0.0405  0.1772
  127OSM    O1213538   6.472   1.319   6.399 -0.2543 -0.6066  0.6360
  127OSM    C1S13539   6.256   1.227   6.597  0.3976 -0.4803 -0.7426
  127OSM    H1S13540   6.354   1.267   6.630 -0.1876  1.5826 -1.4662
  127OSM    H1T13541   6.253   1.124   6.638  1.1537 -0.8915 -1.6991
  127OSM     NF13542   6.174   1.315   6.811 -0.4994 -0.4620 -0.1951
  127OSM    HNF13543   6.140   1.242   6.869 -1.9804  0.3317 -0.0590
  127OSM    C2S13544   6.137   1.305   6.664  0.4986 -0.5345 -0.1005
  127OSM    H2S13545   6.129   1.412   6.634 -0.9483 -0.6494 -0.1464
  127OSM    C3S13546   6.001   1.238   6.645 -0.0252 -0.1328 -1.0197
  127OSM    H3S13547   5.990   1.152   6.715  1.3603  1.6313  1.4097
  127OSM     O313548   5.980   1.202   6.509  0.0492  0.1484  0.0097
  127OSM    HO313549   6.069   1.184   6.480  0.1111  1.1395 -0.4605
  127OSM    C4S13550   5.896   1.331   6.680 -0.0497  0.2882 -0.0073
  127OSM    H4S13551   5.912   1.432   6.639  1.9583  0.6205  1.4837
  127OSM    C5S13552   5.806   1.312   6.773  0.0815  0.1139  0.2379
  127OSM    H5S13553   5.797   1.215   6.824 -0.4209  0.8444  1.5627
  127OSM    C6S13554   5.704   1.418   6.806 -0.6569 -0.3485  0.0041
  127OSM    H6S13555   5.598   1.391   6.790 -0.6239 -0.8208  0.5441
  127OSM    H6T13556   5.712   1.512   6.747 -3.8125 -0.8794 -1.3568
  127OSM    C7S13557   5.705   1.456   6.955 -0.2097 -0.1414  0.3998
  127OSM    H7S13558   5.690   1.357   7.002 -3.7203 -0.0063 -0.2246
  127OSM    H7T13559   5.614   1.513   6.984  0.0129  1.5861 -2.1200
  127OSM    C8S13560   5.829   1.527   7.005 -0.6935 -0.5132  0.6670
  127OSM    H8S13561   5.820   1.637   6.998 -1.7390 -0.6451 -0.2361
  127OSM    H8T13562   5.910   1.502   6.932 -2.4841 -0.0673 -1.5256
  127OSM    C9S13563   5.862   1.499   7.148 -0.3886  0.5441 -0.0415
  127OSM    H9S13564   5.957   1.556   7.154  0.8605 -1.3769 -1.2315
  127OSM    H9T13565   5.878   1.395   7.185 -1.0807  0.4339 -0.0456
  127OSM   C10S13566   5.757   1.570   7.241 -0.0379 -0.2343  0.8809
  127OSM   H10S13567   5.654   1.528   7.252 -2.0645  4.2658  0.0418
  127OSM   H10T13568   5.748   1.674   7.204 -0.1574 -0.4654  0.2492
  127OSM   C11S13569   5.808   1.579   7.384  0.0360  1.0536 -0.2700
  127OSM   H11S13570   5.918   1.590   7.382  0.4759 -2.7204  0.5591
  127OSM   H11T13571   5.797   1.485   7.442  3.3458  0.8494  0.1012
  127OSM   C12S13572   5.744   1.697   7.456  0.0360 -0.2693 -0.1058
  127OSM   H12S13573   5.637   1.676   7.477 -0.6973  1.7490 -1.6138
  127OSM   H12T13574   5.749   1.792   7.398 -1.3366  0.9440  1.6840
  127OSM   C13S13575   5.821   1.732   7.587 -0.4995  0.5728  0.2319
  127OSM   H13S13576   5.787   1.830   7.626  0.2309  0.6474  0.6891
  127OSM   H13T13577   5.926   1.746   7.554 -0.1803 -0.9481  0.5700
  127OSM   C14S13578   5.817   1.625   7.700 -0.3539  0.0480  0.3362
  127OSM   H14S13579   5.882   1.545   7.658  1.1260  1.0428  0.7146
  127OSM   H14T13580   5.718   1.573   7.707 -0.2941  0.1873  2.4362
  127OSM   C15S13581   5.853   1.686   7.836 -0.3015  0.2800  0.3379
  127OSM   H15S13582   5.927   1.768   7.825  0.6510 -0.1213  3.3455
  127OSM   H15T13583   5.899   1.600   7.889  0.0453  0.6614  0.6534
  127OSM   C16S13584   5.727   1.734   7.916  0.1339 -0.3352  0.6470
  127OSM   H16S13585   5.664   1.647   7.947  0.6546 -1.9585 -2.6562
  127OSM   H16T13586   5.669   1.805   7.854 -0.9843 -1.1155  0.7726
  127OSM   C17S13587   5.772   1.796   8.046 -0.3524 -0.4526 -0.3308
  127OSM   H17S13588   5.814   1.898   8.033  0.6688 -0.6594  1.0796
  127OSM   H17T13589   5.860   1.739   8.084 -0.1462 -1.8793 -2.8955
  127OSM   C18S13590   5.660   1.819   8.149 -0.0619 -0.0017  0.5075
  127OSM   H18S13591   5.695   1.834   8.254 -0.0068  1.9242  0.2233
  127OSM   H18T13592   5.582   1.740   8.147 -1.6999  1.5912  1.0502
  127OSM   H18U13593   5.613   1.918   8.136 -0.7751 -0.4124 -0.0563
  127OSM    C1F13594   6.277   1.386   6.849  0.0723  0.2968  0.5112
  127OSM     OF13595   6.324   1.472   6.775  0.1074 -0.2361  0.2073
  127OSM    C2F13596   6.344   1.366   6.985  0.2642  0.6040 -0.0126
  127OSM    H2F13597   6.438   1.425   6.976  0.9519 -0.6411 -1.2256
  127OSM    H2G13598   6.380   1.262   7.004 -0.1148  0.7674  1.6597
  127OSM    C3F13599   6.246   1.405   7.095  0.1135 -0.0549  0.8434
  127OSM    H3F13600   6.152   1.346   7.093 -0.9369  1.5320  2.3343
  127OSM    H3G13601   6.208   1.507   7.076  0.1666 -0.4046 -1.3569
  127OSM    C4F13602   6.302   1.413   7.234  0.3219  0.0098 -0.1554
  127OSM    H4F13603   6.375   1.496   7.239  1.1438 -0.7489  0.6491
  127OSM    H4G13604   6.362   1.326   7.269  0.9936  0.2941 -0.5912
  127OSM    C5F13605   6.188   1.435   7.340 -0.4820  0.0381  0.2288
  127OSM    H5F13606   6.107   1.358   7.343  0.3232 -0.8662 -0.8542
  127OSM    H5G13607   6.140   1.531   7.314 -0.2445 -0.1770 -1.0246
  127OSM    C6F13608   6.236   1.444   7.484 -0.1389  0.0609 -0.0563
  127OSM    H6F13609   6.303   1.533   7.485 -0.8285  0.5796  1.1788
  127OSM    H6G13610   6.290   1.349   7.500  1.3612  1.1378  1.3757
  127OSM    C7F13611   6.132   1.470   7.591  1.0179  0.1332 -0.1719
  127OSM    H7F13612   6.071   1.377   7.595  0.1742  0.6876 -0.0855
  127OSM    H7G13613   6.072   1.555   7.553  1.4065 -0.0881 -1.3136
  127OSM    C8F13614   6.175   1.509   7.737 -0.3411  0.6156 -0.0368
  127OSM    H8F13615   6.083   1.527   7.796  1.7971  0.8943  3.3323
  127OSM    H8G13616   6.226   1.607   7.726  1.2243 -0.0940  0.7061
  127OSM    C9F13617   6.267   1.410   7.806 -0.1281  0.0581 -0.1132
  127OSM    H9F13618   6.375   1.433   7.802 -0.0034 -0.1068  1.8457
  127OSM   C10F13619   6.233   1.318   7.894  0.2363 -0.0130  0.0105
  127OSM   H10F13620   6.303   1.253   7.949  0.8416 -1.1925 -2.0713
  127OSM   C11F13621   6.097   1.281   7.932  0.0069 -0.5810  0.5688
  127OSM   H11F13622   6.076   1.180   7.890 -0.2412 -0.1241 -0.4138
  127OSM   H11G13623   6.020   1.343   7.880  0.9742 -1.4757 -2.0239
  127OSM   C12F13624   6.055   1.283   8.079  0.1846  0.5710  0.2823
  127OSM   H12F13625   6.138   1.224   8.125  0.1935  1.0073  0.8451
  127OSM   H12G13626   5.961   1.225   8.080  1.1480 -1.0433 -0.3989
  127OSM   C13F13627   6.050   1.427   8.140  0.9108 -0.1483  0.3855
  127OSM   H13F13628   5.991   1.496   8.076  1.1165  1.0805  1.4932
  127OSM   H13G13629   6.151   1.470   8.158  0.3638  1.2484  0.2409
  127OSM   C14F13630   5.975   1.428   8.280  0.0238  0.2968 -0.1658
  127OSM   H14F13631   5.874   1.383   8.276 -0.4271  1.1769  1.1375
  127OSM   H14G13632   5.958   1.537   8.296 -0.5676  0.0162  1.1795
  127OSM   C15F13633   6.059   1.381   8.397 -0.5571  0.1619 -0.2734
  127OSM   H15F13634   6.141   1.446   8.434 -0.8605  0.2852  0.1757
  127OSM   H15G13635   6.112   1.287   8.370 -0.0794  0.4666 -0.4049
  127OSM   C16F13636   5.963   1.366   8.519  0.3293 -0.6775 -0.2424
  127OSM   H16F13637   5.864   1.322   8.492 -0.2923  1.9503 -2.4067
  127OSM   H16G13638   5.941   1.473   8.541  2.3623  0.9239 -5.3888
  127OSM   C17F13639   6.007   1.299   8.648  0.4243 -0.3561  0.1641
  127OSM   H17F13640   5.969   1.353   8.737 -2.3905 -1.8995 -0.0438
  127OSM   H17G13641   6.117   1.312   8.648  0.2583  1.2468 -1.3156
  127OSM   C18F13642   5.972   1.151   8.670 -0.5914 -0.1034  0.0913
  127OSM   H18F13643   6.023   1.118   8.764  1.0433  3.4866  0.5593
  127OSM   H18G13644   6.012   1.090   8.587  0.0669 -0.2726  0.5223
  127OSM   H18H13645   5.862   1.139   8.664 -0.4992 -0.9547 -0.0295
  128OSM      N13646   5.540   5.043   6.125  1.0378  0.1754 -0.1647
  128OSM    C1513647   5.658   5.132   6.152  0.3794  0.6276 -0.9845
  128OSM   H15A13648   5.689   5.112   6.254 -0.0692 -0.2214 -1.0151
  128OSM   H15B13649   5.639   5.238   6.145 -1.5803  0.4044  0.5450
  128OSM   H15C13650   5.741   5.104   6.088  0.3648  0.9700 -1.1523
  128OSM    C1413651   5.511   5.041   5.981  0.3190 -0.4458 -0.6671
  128OSM   H14A13652   5.592   5.039   5.910 -0.2011  1.0886 -1.3446
  128OSM   H14B13653   5.470   5.139   5.961 -0.5228 -0.6761 -0.0813
  128OSM   H14C13654   5.424   4.981   5.958  0.6419 -1.9199  1.8014
  128OSM    C1313655   5.580   4.907   6.163 -0.0319  0.3398 -0.0705
  128OSM   H13A13656   5.503   4.832   6.150 -0.3861  1.1750 -3.4077
  128OSM   H13B13657   5.608   4.894   6.266 -1.4044  0.6280  0.3550
  128OSM   H13C13658   5.662   4.872   6.102 -0.6984 -0.0962 -0.7318
  128OSM    C1213659   5.414   5.085   6.208  0.2763  0.1480  0.5012
  128OSM   H12A13660   5.407   5.192   6.200 -0.3525  0.0234 -0.8538
  128OSM   H12B13661   5.427   5.055   6.310 -0.3601 -0.2360  0.4756
  128OSM    C1113662   5.279   5.023   6.157  0.1134  0.4057  0.0664
  128OSM   H11A13663   5.258   5.070   6.058  1.5497  1.5355  0.2838
  128OSM   H11B13664   5.197   5.057   6.224  0.2837 -3.1227  2.1961
  128OSM      P13665   5.241   4.777   6.275 -0.0412 -0.9728  0.0161
  128OSM    O1313666   5.094   4.764   6.296 -0.4073  0.6510  0.2709
  128OSM    O1413667   5.317   4.649   6.260  0.3855 -0.4419  0.1672
  128OSM    O1113668   5.301   4.856   6.406  0.0681 -0.3470  0.5017
  128OSM    O1213669   5.281   4.872   6.159  0.3199 -0.0804 -0.0449
  128OSM    C1S13670   5.251   4.810   6.529  0.9271 -0.5053  0.0488
  128OSM    H1S13671   5.216   4.704   6.535 -0.5916 -0.0820 -1.2015
  128OSM    H1T13672   5.170   4.877   6.561  0.3585  0.8786 -4.0590
  128OSM     NF13673   5.303   4.754   6.754 -0.2328 -0.6464 -0.0772
  128OSM    HNF13674   5.274   4.821   6.822 -1.8075 -1.1129 -0.2688
  128OSM    C2S13675   5.361   4.816   6.636  0.4120  0.1545 -0.3087
  128OSM    H2S13676   5.449   4.756   6.607 -0.6218 -1.1182 -0.8445
  128OSM    C3S13677   5.411   4.966   6.650  0.0223 -0.6185 -0.7088
  128OSM    H3S13678   5.320   5.023   6.680  0.4918 -0.8202  1.1849
  128OSM     O313679   5.461   5.024   6.529 -0.1323 -0.2187 -0.1169
  128OSM    HO313680   5.440   4.954   6.467 -0.1256  2.0754 -2.8013
  128OSM    C4S13681   5.508   4.986   6.762  0.2094  0.7344 -0.0019
  128OSM    H4S13682   5.449   4.986   6.854  1.0125  1.1880  0.5240
  128OSM    C5S13683   5.644   4.988   6.764 -0.1511 -0.3003  0.1584
  128OSM    H5S13684   5.698   4.968   6.670 -0.7991  0.1433 -0.3094
  128OSM    C6S13685   5.722   5.005   6.897  0.2346  0.4408 -0.9602
  128OSM    H6S13686   5.771   5.105   6.904 -0.1543  0.4145  2.9953
  128OSM    H6T13687   5.804   4.934   6.876 -0.3453 -0.2709 -0.8402
  128OSM    C7S13688   5.654   4.995   7.034  0.6387  0.3009  0.5034
  128OSM    H7S13689   5.588   4.906   7.033 -1.5276  1.8891 -0.9179
  128OSM    H7T13690   5.577   5.072   7.059  2.0986  1.1400  2.6004
  128OSM    C8S13691   5.740   4.987   7.159  0.1227 -0.0768 -0.7223
  128OSM    H8S13692   5.814   5.070   7.166 -0.6731  0.4881  1.6901
  128OSM    H8T13693   5.804   4.897   7.149 -0.0955 -0.1201 -1.7542
  128OSM    C9S13694   5.650   4.980   7.276  0.2821  0.2213 -0.3125
  128OSM    H9S13695   5.553   4.932   7.252  1.1497 -1.4598 -0.5814
  128OSM    H9T13696   5.630   5.084   7.309 -0.9494 -0.0282 -0.2519
  128OSM   C10S13697   5.723   4.901   7.387  0.5887 -0.1069 -0.5337
  128OSM   H10S13698   5.831   4.926   7.386  0.8595 -1.1017  1.8540
  128OSM   H10T13699   5.718   4.792   7.365 -0.2072  0.4478 -3.3761
  128OSM   C11S13700   5.660   4.897   7.526 -0.4626  0.7181  0.1198
  128OSM   H11S13701   5.646   5.000   7.563  0.6898  0.8349  0.2494
  128OSM   H11T13702   5.729   4.841   7.593 -1.1861 -1.4602 -0.8964
  128OSM   C12S13703   5.528   4.832   7.532 -0.9799  0.0288 -0.0511
  128OSM   H12S13704   5.526   4.745   7.463 -1.8477  1.2521 -1.6162
  128OSM   H12T13705   5.452   4.907   7.499 -2.2207 -1.0570  0.3378
  128OSM   C13S13706   5.501   4.765   7.661 -0.1998  0.2614 -0.0495
  128OSM   H13S13707   5.556   4.669   7.672 -1.4480 -0.2464  2.2636
  128OSM   H13T13708   5.394   4.737   7.672  0.1271 -0.4626  1.4529
  128OSM   C14S13709   5.534   4.846   7.789  0.0233 -0.4692  0.7924
  128OSM   H14S13710   5.501   4.951   7.776 -3.6500 -1.9517 -2.8091
  128OSM   H14T13711   5.645   4.849   7.796 -0.1269  2.2387  2.6863
  128OSM   C15S13712   5.494   4.775   7.918  0.9409  0.1568 -0.7165
  128OSM   H15S13713   5.535   4.672   7.921  2.1840  0.6213 -1.2156
  128OSM   H15T13714   5.386   4.793   7.937  0.8861 -0.3248 -0.5708
  128OSM   C16S13715   5.550   4.847   8.045 -1.2044  0.6258 -0.1320
  128OSM   H16S13716   5.545   4.953   8.015  1.8017  0.6619 -0.5951
  128OSM   H16T13717   5.659   4.825   8.044 -0.3549  4.4693  0.5851
  128OSM   C17S13718   5.481   4.818   8.181  0.2331 -0.1642 -0.6716
  128OSM   H17S13719   5.376   4.856   8.187  0.4327  0.7238 -2.4369
  128OSM   H17T13720   5.530   4.878   8.261 -0.1675 -1.9801  0.9928
  128OSM   C18S13721   5.485   4.669   8.228 -0.4625  0.7317  0.3320
  128OSM   H18S13722   5.580   4.635   8.275 -2.1019 -3.2019  1.0324
  128OSM   H18T13723   5.460   4.600   8.145  2.4245 -0.5082  0.4223
  128OSM   H18U13724   5.406   4.646   8.303  0.7613 -0.7867  1.1773
  128OSM    C1F13725   5.280   4.619   6.776  0.8465 -0.1420 -0.0420
  128OSM     OF13726   5.310   4.541   6.681  0.4914 -0.6871 -0.1701
  128OSM    C2F13727   5.209   4.573   6.896 -0.1618 -0.9748 -0.3637
  128OSM    H2F13728   5.106   4.535   6.883 -1.1093  1.3508 -0.0270
  128OSM    H2G13729   5.193   4.661   6.962  3.3936 -0.5467  0.0675
  128OSM    C3F13730   5.311   4.475   6.963 -0.0303 -0.1282  0.2124
  128OSM    H3F13731   5.403   4.531   6.987 -0.6551  1.5798 -1.3138
  128OSM    H3G13732   5.349   4.407   6.884  0.7804 -0.7571  1.1278
  128OSM    C4F13733   5.258   4.395   7.075 -0.6391 -0.6459 -0.0490
  128OSM    H4F13734   5.329   4.313   7.101  0.0171  0.7561  2.7065
  128OSM    H4G13735   5.168   4.337   7.045 -0.8718 -0.5775  0.5227
  128OSM    C5F13736   5.230   4.465   7.204  0.7660 -0.2231  0.7716
  128OSM    H5F13737   5.158   4.549   7.199  1.3221  0.3367  2.0236
  128OSM    H5G13738   5.329   4.499   7.241  1.7128 -2.6004  0.4897
  128OSM    C6F13739   5.170   4.370   7.310 -0.0027  0.0521  0.7041
  128OSM    H6F13740   5.222   4.272   7.315  1.4503  0.8422  1.4447
  128OSM    H6G13741   5.066   4.349   7.277  0.1240  2.0688 -1.0914
  128OSM    C7F13742   5.157   4.441   7.452 -0.5419  0.8851  0.8187
  128OSM    H7F13743   5.112   4.542   7.439 -0.8387  0.6247 -0.2235
  128OSM    H7G13744   5.253   4.465   7.503 -0.6062  1.3951  0.7103
  128OSM    C8F13745   5.054   4.366   7.540 -0.0035  0.4674  0.1366
  128OSM    H8F13746   5.100   4.287   7.603 -0.5160  1.6804  2.0892
  128OSM    H8G13747   4.980   4.303   7.487  0.2044  0.7374 -0.4774
  128OSM    C9F13748   4.977   4.457   7.638  0.1902 -0.2241 -0.2908
  128OSM    H9F13749   4.876   4.486   7.606  0.7987 -0.1304 -2.1804
  128OSM   C10F13750   5.025   4.523   7.745 -0.1803 -0.0219 -0.4315
  128OSM   H10F13751   4.956   4.590   7.799  0.2126  1.9506 -2.2840
  128OSM   C11F13752   5.166   4.524   7.790  1.0208  0.1974 -0.0712
  128OSM   H11F13753   5.227   4.593   7.728  0.1335  0.4795 -0.6271
  128OSM   H11G13754   5.208   4.422   7.778 -1.2276 -0.8067  0.3228
  128OSM   C12F13755   5.186   4.554   7.942 -0.0911  0.1356 -0.4877
  128OSM   H12F13756   5.139   4.650   7.974 -0.0557  0.0289 -0.1064
  128OSM   H12G13757   5.293   4.570   7.969  0.6269 -3.8638 -0.6995
  128OSM   C13F13758   5.123   4.447   8.031  0.4279 -0.5690 -0.3239
  128OSM   H13F13759   5.155   4.342   8.013 -0.3617 -0.7091 -0.9371
  128OSM   H13G13760   5.017   4.448   7.999  0.7700  3.4791 -1.6483
  128OSM   C14F13761   5.116   4.476   8.180 -0.0764  0.2059 -0.0962
  128OSM   H14F13762   5.072   4.574   8.206 -1.1489 -0.0706 -0.8401
  128OSM   H14G13763   5.223   4.483   8.211  0.2464 -1.1274 -0.8715
  128OSM   C15F13764   5.044   4.371   8.266  0.5725 -0.0013 -0.3422
  128OSM   H15F13765   4.946   4.376   8.214 -0.5978  1.8330  1.9841
  128OSM   H15G13766   5.024   4.409   8.368 -0.7768 -2.0951  0.2093
  128OSM   C16F13767   5.090   4.232   8.264  0.9472 -0.2724  0.9325
  128OSM   H16F13768   5.196   4.229   8.297  2.0938  1.3874 -2.4166
  128OSM   H16G13769   5.094   4.188   8.162 -1.2247  0.0440  0.6859
  128OSM   C17F13770   5.004   4.129   8.350  0.3741  0.0331 -0.1908
  128OSM   H17F13771   4.904   4.107   8.305 -0.1163  2.2597 -0.2507
  128OSM   H17G13772   4.990   4.179   8.448  0.6979 -0.1344 -0.0595
  128OSM   C18F13773   5.063   3.994   8.377 -0.6518 -0.0387  0.8693
  128OSM   H18F13774   4.999   3.936   8.447 -1.8782 -0.6467 -0.7379
  128OSM   H18G13775   5.161   4.004   8.429  0.7552 -1.3402 -1.4283
  128OSM   H18H13776   5.079   3.924   8.291  0.3862 -1.6799  2.3526
  129OSM      N13777   3.399   6.570   6.023 -0.0802 -0.3069  0.1588
  129OSM    C1513778   3.516   6.584   6.115 -0.1445 -0.2382  0.0443
  129OSM   H15A13779   3.596   6.624   6.055 -0.6170 -1.0677 -1.1637
  129OSM   H15B13780   3.553   6.500   6.172  0.5321 -0.7059 -1.0866
  129OSM   H15C13781   3.504   6.662   6.189  0.6543 -0.6589  0.6204
  129OSM    C1413782   3.418   6.454   5.935  0.3123  0.3669  0.5915
  129OSM   H14A13783   3.327   6.424   5.886  1.9333 -1.8251 -1.2103
  129OSM   H14B13784   3.462   6.370   5.987  0.6304  0.3033  0.2269
  129OSM   H14C13785   3.486   6.465   5.851  0.8251 -2.1392  0.6210
  129OSM    C1313786   3.288   6.541   6.112  0.5217 -0.0762 -1.4531
  129OSM   H13A13787   3.202   6.534   6.046 -0.0710 -0.2975 -0.6608
  129OSM   H13B13788   3.267   6.625   6.176 -1.9877 -3.2746  2.1168
  129OSM   H13C13789   3.306   6.448   6.163  2.6745  2.4682  2.6822
  129OSM    C1213790   3.382   6.698   5.940 -0.2753 -0.1427  0.5561
  129OSM   H12A13791   3.302   6.675   5.871 -0.7991  0.2768  1.0246
  129OSM   H12B13792   3.473   6.715   5.885 -0.6846 -2.8810 -1.0505
  129OSM    C1113793   3.334   6.827   6.022  0.1708  0.5586  0.9774
  129OSM   H11A13794   3.236   6.794   6.062 -0.1780  0.8584  0.3794
  129OSM   H11B13795   3.310   6.910   5.952 -1.2804 -0.7632 -0.0929
  129OSM      P13796   3.566   6.931   6.085 -0.1615  0.2000 -0.1404
  129OSM    O1313797   3.631   6.886   5.961 -0.6236  0.7232  0.4599
  129OSM    O1413798   3.540   7.078   6.090 -0.2537  0.1373  0.5472
  129OSM    O1113799   3.663   6.893   6.214  0.4106 -0.0741 -0.4293
  129OSM    O1213800   3.430   6.862   6.121 -0.0355 -0.3941  0.6599
  129OSM    C1S13801   3.581   6.893   6.342 -0.4401  0.3999 -0.1094
  129OSM    H1S13802   3.511   6.807   6.334  1.7723 -1.5682  0.7684
  129OSM    H1T13803   3.523   6.985   6.360 -1.8099 -0.1451 -1.6472
  129OSM     NF13804   3.579   6.889   6.576 -0.1534  0.3450  0.6981
  129OSM    HNF13805   3.587   6.975   6.625  0.2501  1.6392 -1.5306
  129OSM    C2S13806   3.672   6.880   6.465 -0.3956 -0.5391 -0.5484
  129OSM    H2S13807   3.718   6.780   6.452 -1.0186 -0.7283 -1.3450
  129OSM    C3S13808   3.774   6.997   6.471  0.4410 -0.1187  1.0882
  129OSM    H3S13809   3.730   7.098   6.485 -4.3771 -2.1604  1.6061
  129OSM     O313810   3.846   7.019   6.349 -0.2397  0.3056 -0.2543
  129OSM    HO313811   3.799   6.964   6.285 -0.5211 -0.9263  0.9682
  129OSM    C4S13812   3.869   6.980   6.586 -0.7671 -0.0058 -0.1236
  129OSM    H4S13813   3.850   7.048   6.670 -1.3341 -0.5372  0.1847
  129OSM    C5S13814   3.963   6.886   6.605 -0.1618 -0.1999  0.1273
  129OSM    H5S13815   3.958   6.789   6.552 -2.6792 -0.3169  0.5042
  129OSM    C6S13816   4.049   6.869   6.728  0.4319  0.2634  0.0638
  129OSM    H6S13817   4.131   6.944   6.721 -0.0066  0.8879  1.5868
  129OSM    H6T13818   4.095   6.768   6.725 -0.0159  0.1054 -2.6356
  129OSM    C7S13819   3.963   6.900   6.857 -0.2101  0.3267 -0.3957
  129OSM    H7S13820   3.905   6.995   6.868 -2.0996 -1.2257  4.0023
  129OSM    H7T13821   4.038   6.907   6.938 -0.9810  0.5177  0.3085
  129OSM    C8S13822   3.873   6.787   6.897  0.4040  0.5087  0.1687
  129OSM    H8S13823   3.934   6.707   6.945  1.2939  2.1076  1.7809
  129OSM    H8T13824   3.817   6.740   6.813 -0.8143  0.1462  1.1570
  129OSM    C9S13825   3.762   6.824   7.005 -0.5822 -0.3270 -0.0558
  129OSM    H9S13826   3.702   6.732   7.025 -0.1462 -0.2426  1.7974
  129OSM    H9T13827   3.686   6.901   6.979  1.0374  0.4428 -2.6941
  129OSM   C10S13828   3.829   6.869   7.141 -0.7477 -0.2060  0.7165
  129OSM   H10S13829   3.906   6.948   7.130 -1.5371  0.6069  0.9730
  129OSM   H10T13830   3.865   6.783   7.201 -0.1205 -0.2803  0.2357
  129OSM   C11S13831   3.725   6.930   7.238 -0.1620  0.0855 -0.4949
  129OSM   H11S13832   3.665   6.841   7.268 -0.0417 -0.1033 -0.8246
  129OSM   H11T13833   3.651   6.998   7.190  0.6278 -0.1399 -2.0404
  129OSM   C12S13834   3.802   6.995   7.350  0.0758  0.0959 -0.2672
  129OSM   H12S13835   3.850   7.086   7.309  1.0885 -1.1423 -1.9287
  129OSM   H12T13836   3.879   6.920   7.381  1.8457  1.4144 -1.3632
  129OSM   C13S13837   3.718   7.032   7.475 -0.5666  0.9455 -0.1578
  129OSM   H13S13838   3.659   6.939   7.495 -0.7614  1.1955  0.4480
  129OSM   H13T13839   3.647   7.113   7.450 -2.8229 -1.0304 -0.4143
  129OSM   C14S13840   3.808   7.063   7.595  0.3691  0.4962  0.1292
  129OSM   H14S13841   3.886   7.138   7.572  1.5662 -0.1872  1.8665
  129OSM   H14T13842   3.854   6.965   7.621 -0.5372  0.3548  1.2066
  129OSM   C15S13843   3.719   7.100   7.713  0.2652 -0.3330  0.5024
  129OSM   H15S13844   3.648   7.019   7.738 -2.5646  1.5527 -1.0760
  129OSM   H15T13845   3.671   7.200   7.698 -0.2861 -0.9268 -1.9562
  129OSM   C16S13846   3.805   7.121   7.841  0.2109 -0.4016 -0.0482
  129OSM   H16S13847   3.839   7.020   7.872  1.9308  0.9855  2.8073
  129OSM   H16T13848   3.732   7.160   7.916  0.6355  0.1863  0.0618
  129OSM   C17S13849   3.935   7.210   7.821  1.1453 -0.3603  0.2657
  129OSM   H17S13850   3.901   7.310   7.788 -0.4210 -0.7224  0.7222
  129OSM   H17T13851   4.002   7.167   7.744  0.9449 -0.8777  0.3751
  129OSM   C18S13852   4.009   7.220   7.953 -0.3320  0.2696  0.4986
  129OSM   H18S13853   4.067   7.127   7.971 -1.3740 -0.4840 -0.0208
  129OSM   H18T13854   3.940   7.245   8.036 -3.8663 -0.6396 -2.0522
  129OSM   H18U13855   4.085   7.302   7.946 -0.8357  0.7485  0.6383
  129OSM    C1F13856   3.487   6.804   6.608 -0.7553  0.3826 -0.8081
  129OSM     OF13857   3.482   6.697   6.546  0.5636 -0.6116 -0.4049
  129OSM    C2F13858   3.407   6.831   6.733  0.5215  1.2808 -0.0247
  129OSM    H2F13859   3.300   6.833   6.701  0.3297 -0.2359  0.4728
  129OSM    H2G13860   3.435   6.933   6.765  1.3932  1.4668 -1.3643
  129OSM    C3F13861   3.438   6.722   6.840 -0.1634  0.0658  0.2258
  129OSM    H3F13862   3.547   6.718   6.859  0.0487  1.1658 -0.7137
  129OSM    H3G13863   3.408   6.623   6.798 -2.2481  0.2241  1.2955
  129OSM    C4F13864   3.389   6.749   6.981 -0.2793 -0.5280  0.3577
  129OSM    H4F13865   3.282   6.776   6.984 -0.4168 -1.0888  0.5100
  129OSM    H4G13866   3.446   6.834   7.025 -0.7451  1.7474 -3.2231
  129OSM    C5F13867   3.420   6.626   7.069  0.0589  0.6392  0.3650
  129OSM    H5F13868   3.526   6.592   7.063  0.6374  1.8124  3.2620
  129OSM    H5G13869   3.360   6.540   7.031  3.5723 -1.8117  0.0839
  129OSM    C6F13870   3.402   6.646   7.223  0.5392  0.3636  0.8099
  129OSM    H6F13871   3.299   6.685   7.238  0.8925  1.4959  0.3251
  129OSM    H6G13872   3.469   6.725   7.260 -1.2493  1.5019  1.6926
  129OSM    C7F13873   3.422   6.516   7.293 -0.4750 -0.9519 -0.5852
  129OSM    H7F13874   3.520   6.471   7.267  1.2276  1.0544  2.0527
  129OSM    H7G13875   3.352   6.435   7.261  0.6805 -1.0392 -2.9823
  129OSM    C8F13876   3.414   6.532   7.443 -0.2581 -0.4144  0.2059
  129OSM    H8F13877   3.419   6.432   7.492 -0.1514 -1.0770 -1.1453
  129OSM    H8G13878   3.320   6.583   7.474  0.6020  1.6258 -0.4757
  129OSM    C9F13879   3.524   6.617   7.502 -0.4270 -0.0211 -0.1925
  129OSM    H9F13880   3.552   6.711   7.453  0.3953 -0.9487 -1.5379
  129OSM   C10F13881   3.592   6.587   7.619 -0.5725  0.1056 -0.8664
  129OSM   H10F13882   3.673   6.651   7.657 -0.1472 -0.6562 -0.4816
  129OSM   C11F13883   3.571   6.467   7.709  0.5480 -0.0993 -0.3025
  129OSM   H11F13884   3.666   6.408   7.709  0.1485 -0.7660 -1.5027
  129OSM   H11G13885   3.499   6.395   7.664 -0.4429  0.2238  0.7549
  129OSM   C12F13886   3.492   6.507   7.842 -0.5561  0.3918 -0.2464
  129OSM   H12F13887   3.477   6.409   7.892  1.0245 -0.3177 -1.1224
  129OSM   H12G13888   3.396   6.559   7.823 -0.8634 -0.1517 -0.2086
  129OSM   C13F13889   3.579   6.593   7.933  0.4613 -0.3501  0.1239
  129OSM   H13F13890   3.622   6.672   7.868 -0.0249 -2.3601 -2.7198
  129OSM   H13G13891   3.666   6.542   7.979 -0.5480 -0.6668  1.7154
  129OSM   C14F13892   3.500   6.660   8.042 -0.1552  0.2555 -0.2336
  129OSM   H14F13893   3.467   6.580   8.112 -1.0788  1.4924  0.7787
  129OSM   H14G13894   3.411   6.699   7.988 -0.3342  2.8200  1.8250
  129OSM   C15F13895   3.566   6.781   8.119  0.3346  0.6694  0.0845
  129OSM   H15F13896   3.503   6.796   8.209  1.1943 -5.7215  2.0252
  129OSM   H15G13897   3.569   6.876   8.061  0.9287 -0.2166 -1.3702
  129OSM   C16F13898   3.707   6.750   8.172  0.6069  0.0412 -0.4297
  129OSM   H16F13899   3.773   6.735   8.084 -0.3278 -0.3055 -1.0844
  129OSM   H16G13900   3.698   6.657   8.232  0.2921  1.1169  1.2335
  129OSM   C17F13901   3.742   6.847   8.280 -0.5501 -0.0453 -0.4281
  129OSM   H17F13902   3.836   6.813   8.327 -0.6721 -0.8935 -0.7929
  129OSM   H17G13903   3.652   6.848   8.346 -0.1477  2.5029  0.1226
  129OSM   C18F13904   3.760   6.995   8.234  0.1490  0.1572 -0.0985
  129OSM   H18F13905   3.853   7.019   8.177 -0.4701 -0.4832 -1.4068
  129OSM   H18G13906   3.749   7.071   8.314  2.8115  0.7822 -0.2786
  129OSM   H18H13907   3.674   7.019   8.168 -0.9008 -0.4201  1.0374
  130OSM      N13908   3.784   3.640   6.065 -0.4989  0.2414  0.3864
  130OSM    C1513909   3.776   3.782   6.015 -0.5705 -0.2471  0.0354
  130OSM   H15A13910   3.874   3.828   6.023 -0.3779 -0.7047  0.3129
  130OSM   H15B13911   3.711   3.843   6.075 -3.0060 -1.9136 -0.8526
  130OSM   H15C13912   3.730   3.789   5.918  1.0783  0.4751 -0.7067
  130OSM    C1413913   3.664   3.561   6.018 -0.5117  0.1194  0.6462
  130OSM   H14A13914   3.636   3.570   5.915 -1.0669 -1.7977  0.6145
  130OSM   H14B13915   3.582   3.577   6.087  0.3726  1.1836  1.4754
  130OSM   H14C13916   3.688   3.456   6.031  0.5844  0.3072  0.1714
  130OSM    C1313917   3.904   3.574   5.999 -0.2429  0.1353 -0.0473
  130OSM   H13A13918   3.926   3.479   6.047  0.0239 -0.1552 -0.7455
  130OSM   H13B13919   3.998   3.626   6.004  1.3292 -2.6461  0.4883
  130OSM   H13C13920   3.882   3.552   5.896 -1.0924 -0.2135  0.1989
  130OSM    C1213921   3.798   3.637   6.209 -0.1402 -0.2844 -1.0561
  130OSM   H12A13922   3.786   3.537   6.247 -1.1936 -0.3205 -1.4800
  130OSM   H12B13923   3.720   3.687   6.264 -0.0754 -0.9807 -0.3162
  130OSM    C1113924   3.929   3.696   6.273  0.2531  0.1673 -0.8677
  130OSM   H11A13925   4.014   3.629   6.245  0.3266  0.1885 -0.6989
  130OSM   H11B13926   3.926   3.693   6.384 -0.4413  0.0649 -0.8882
  130OSM      P13927   4.097   3.874   6.167  0.2011 -0.4238 -0.2583
  130OSM    O1313928   4.120   3.792   6.042 -0.0321  0.0237 -0.1605
  130OSM    O1413929   4.090   4.020   6.150  0.2061  0.2839  0.8521
  130OSM    O1113930   4.197   3.827   6.284  0.2007  0.1183  0.2181
  130OSM    O1213931   3.954   3.829   6.224 -0.3123  0.1155  0.5594
  130OSM    C1S13932   4.160   3.874   6.414 -0.3481  0.0383  0.4242
  130OSM    H1S13933   4.058   3.834   6.431  0.3845 -2.2636 -0.2997
  130OSM    H1T13934   4.153   3.985   6.414 -1.3175 -0.0149 -0.4946
  130OSM     NF13935   4.185   3.857   6.650 -0.0694 -0.1011 -0.3270
  130OSM    HNF13936   4.234   3.937   6.683 -1.2922  0.0372  1.2122
  130OSM    C2S13937   4.246   3.818   6.526 -0.2530  0.1183 -0.6521
  130OSM    H2S13938   4.235   3.708   6.519  0.6125  0.1565 -2.8265
  130OSM    C3S13939   4.397   3.860   6.508  0.6988  1.2104 -0.6908
  130OSM    H3S13940   4.396   3.971   6.501  1.7947  1.3168  0.6330
  130OSM     O313941   4.461   3.796   6.392  0.3739 -0.7338 -0.2990
  130OSM    HO313942   4.385   3.783   6.334 -0.8077 -1.3233  1.3601
  130OSM    C4S13943   4.470   3.813   6.624  0.0915  0.0746 -0.5094
  130OSM    H4S13944   4.513   3.713   6.606 -0.0062 -0.2153  0.7845
  130OSM    C5S13945   4.500   3.885   6.735  0.0064  0.0735  0.3130
  130OSM    H5S13946   4.478   3.993   6.742  0.6757  0.1490  1.4670
  130OSM    C6S13947   4.581   3.838   6.858  0.1602 -0.1459  0.8759
  130OSM    H6S13948   4.682   3.884   6.869 -0.2496  1.3996 -1.4732
  130OSM    H6T13949   4.596   3.728   6.864 -2.2781 -0.4638  1.6451
  130OSM    C7S13950   4.502   3.886   6.973 -0.3428 -0.0123 -1.1599
  130OSM    H7S13951   4.465   3.991   6.976 -1.7031 -0.5084 -0.1921
  130OSM    H7T13952   4.570   3.887   7.061  0.9091 -1.1061 -2.1045
  130OSM    C8S13953   4.385   3.791   7.010 -0.1449  0.0311 -0.3471
  130OSM    H8S13954   4.420   3.689   7.040  1.7996  0.5775 -0.6951
  130OSM    H8T13955   4.317   3.774   6.924 -2.9201 -3.2307  2.3677
  130OSM    C9S13956   4.292   3.829   7.128  0.1868  0.3271 -0.4678
  130OSM    H9S13957   4.206   3.759   7.125 -0.0719  0.5933  0.5772
  130OSM    H9T13958   4.258   3.933   7.104 -2.6179 -0.0542  1.6135
  130OSM   C10S13959   4.369   3.835   7.259 -0.2647  0.5158 -0.0950
  130OSM   H10S13960   4.447   3.913   7.263  2.3050 -2.0600  2.4870
  130OSM   H10T13961   4.427   3.743   7.281 -0.4704  0.5596  0.6712
  130OSM   C11S13962   4.266   3.869   7.378 -0.7637  0.6740 -0.1265
  130OSM   H11S13963   4.189   3.789   7.382 -1.1818  1.1183  0.7467
  130OSM   H11T13964   4.212   3.963   7.352  1.7651  1.9040 -1.1104
  130OSM   C12S13965   4.327   3.879   7.513 -0.0921  1.0282 -0.2373
  130OSM   H12S13966   4.409   3.954   7.519 -0.2889  1.1183  1.4679
  130OSM   H12T13967   4.366   3.782   7.548  0.8467  0.9958 -1.3402
  130OSM   C13S13968   4.227   3.920   7.616  0.2838  0.1926 -0.7588
  130OSM   H13S13969   4.158   3.836   7.638 -0.1486  0.0357 -2.6547
  130OSM   H13T13970   4.170   4.013   7.592 -1.2248 -0.5436 -0.1315
  130OSM   C14S13971   4.304   3.949   7.755 -0.1025  0.3798 -0.2562
  130OSM   H14S13972   4.344   4.052   7.747 -2.0219  1.1039 -0.8971
  130OSM   H14T13973   4.389   3.881   7.778  2.1225  2.9759 -0.5111
  130OSM   C15S13974   4.208   3.945   7.884 -0.2164 -0.1635  0.0360
  130OSM   H15S13975   4.184   3.837   7.889 -2.1115  0.3275  2.4863
  130OSM   H15T13976   4.115   4.005   7.872  0.0508 -0.2175 -2.3764
  130OSM   C16S13977   4.276   4.006   8.008  0.2143  0.2814  0.8402
  130OSM   H16S13978   4.284   4.116   7.995 -1.3860  0.3123  0.0249
  130OSM   H16T13979   4.380   3.973   8.031  0.5103  0.6802  0.0730
  130OSM   C17S13980   4.200   3.978   8.132  0.3669 -0.4009  0.4742
  130OSM   H17S13981   4.262   4.040   8.201  1.9662 -0.4592 -0.8872
  130OSM   H17T13982   4.219   3.873   8.163  0.4674 -0.0751  1.5451
  130OSM   C18S13983   4.050   4.002   8.141 -0.0571 -0.5241 -0.6960
  130OSM   H18S13984   4.023   3.986   8.248  0.5332 -0.7875 -0.5845
  130OSM   H18T13985   3.999   3.925   8.081 -0.3885 -0.4846 -0.4705
  130OSM   H18U13986   4.023   4.106   8.111  1.7702 -0.0732 -0.8178
  130OSM    C1F13987   4.074   3.799   6.695  0.1596  0.4150  0.4484
  130OSM     OF13988   4.017   3.708   6.623 -0.2367 -0.5280 -0.6933
  130OSM    C2F13989   4.028   3.845   6.831  0.7054  0.2450 -0.2614
  130OSM    H2F13990   4.031   3.956   6.841  0.7753  0.0426  2.1861
  130OSM    H2G13991   4.097   3.800   6.906 -0.2599 -1.4524 -0.3762
  130OSM    C3F13992   3.891   3.787   6.859 -0.2129  0.0270  0.1580
  130OSM    H3F13993   3.889   3.676   6.854 -0.9325  0.0719 -0.6181
  130OSM    H3G13994   3.827   3.816   6.773 -1.1534  1.0536  1.1891
  130OSM    C4F13995   3.827   3.845   6.987  0.4042  1.0403 -0.2256
  130OSM    H4F13996   3.718   3.858   6.969  0.6320  1.0012 -1.6669
  130OSM    H4G13997   3.872   3.946   6.993  0.4592  0.9936  0.2048
  130OSM    C5F13998   3.865   3.762   7.106 -0.0378  0.1024  0.6644
  130OSM    H5F13999   3.975   3.768   7.115 -0.0348  2.4961 -0.6822
  130OSM    H5G14000   3.837   3.659   7.077 -1.8559  0.9402 -0.6248
  130OSM    C6F14001   3.787   3.804   7.231 -0.0264  0.6614  0.4547
  130OSM    H6F14002   3.686   3.811   7.184 -0.8372 -1.9544  1.7000
  130OSM    H6G14003   3.805   3.908   7.265 -0.4210  0.1381  2.3204
  130OSM    C7F14004   3.773   3.701   7.341 -0.4582  0.9121  0.2597
  130OSM    H7F14005   3.741   3.599   7.312  0.0255  1.1318 -1.0839
  130OSM    H7G14006   3.695   3.734   7.412 -1.7379 -1.5379  0.0333
  130OSM    C8F14007   3.905   3.692   7.424 -0.0976 -0.2406  0.6109
  130OSM    H8F14008   3.942   3.791   7.457 -0.1338 -0.1527  0.3870
  130OSM    H8G14009   3.992   3.664   7.360  0.4758 -0.6570  1.5611
  130OSM    C9F14010   3.897   3.592   7.539  0.0390  0.2795  0.4666
  130OSM    H9F14011   3.888   3.488   7.505 -2.5357  0.7351 -0.3899
  130OSM   C10F14012   3.888   3.613   7.674 -0.2281 -0.3228  0.0814
  130OSM   H10F14013   3.890   3.523   7.737 -1.0799 -0.8665 -0.6485
  130OSM   C11F14014   3.888   3.749   7.738  0.0225  0.2718 -0.9436
  130OSM   H11F14015   3.915   3.835   7.674  2.6543 -1.0263 -1.6432
  130OSM   H11G14016   3.962   3.746   7.822 -0.2215  0.9132 -0.7054
  130OSM   C12F14017   3.758   3.777   7.813 -0.6258  0.2642  0.7258
  130OSM   H12F14018   3.675   3.780   7.740 -1.1960 -0.4490  1.3416
  130OSM   H12G14019   3.756   3.877   7.860 -1.8048  0.1998  0.8295
  130OSM   C13F14020   3.718   3.675   7.924 -0.1349  0.2354 -0.1121
  130OSM   H13F14021   3.796   3.652   8.000 -1.1579 -2.0507  0.2914
  130OSM   H13G14022   3.699   3.576   7.877  2.4504 -0.3605  0.0325
  130OSM   C14F14023   3.597   3.718   7.995 -0.9020  0.0888  1.1867
  130OSM   H14F14024   3.515   3.733   7.921 -0.5342 -2.4483  0.2173
  130OSM   H14G14025   3.614   3.816   8.044 -1.3078  1.8915 -2.1827
  130OSM   C15F14026   3.548   3.626   8.109 -0.6126 -0.6566 -0.1653
  130OSM   H15F14027   3.635   3.588   8.166  0.4817 -0.0280 -1.3919
  130OSM   H15G14028   3.488   3.539   8.074  1.0478 -1.0971 -1.9766
  130OSM   C16F14029   3.460   3.702   8.211  0.0819  0.5597  0.5083
  130OSM   H16F14030   3.483   3.810   8.220 -0.0269  0.7029 -0.8363
  130OSM   H16G14031   3.473   3.642   8.304 -3.0945 -2.1118 -0.6638
  130OSM   C17F14032   3.314   3.683   8.173  0.2701  0.4211  0.0836
  130OSM   H17F14033   3.287   3.575   8.178  0.2374  0.5236  2.3426
  130OSM   H17G14034   3.303   3.721   8.069 -0.0514  0.1195  0.0048
  130OSM   C18F14035   3.218   3.769   8.249 -0.0657  0.6950  0.1293
  130OSM   H18F14036   3.116   3.740   8.217 -0.5288  0.5360  1.7130
  130OSM   H18G14037   3.228   3.879   8.231  0.2468  0.1323 -3.6838
  130OSM   H18H14038   3.229   3.742   8.356 -2.6626 -0.6686  0.0949
  131OSM      N14039   4.430   1.520   5.844  0.5784  0.2757 -0.2400
  131OSM    C1514040   4.319   1.606   5.804 -0.1445  0.0666  0.3415
  131OSM   H15A14041   4.225   1.554   5.814  0.2400 -0.7863 -0.4606
  131OSM   H15B14042   4.320   1.643   5.703 -0.9985  0.5099  0.4852
  131OSM   H15C14043   4.319   1.696   5.864 -1.2271  1.6595 -1.9693
  131OSM    C1414044   4.432   1.402   5.747 -0.1296  0.4823 -0.1617
  131OSM   H14A14045   4.340   1.345   5.747  0.3373 -0.2743 -0.5196
  131OSM   H14B14046   4.517   1.345   5.781  1.7909  4.2776  1.7357
  131OSM   H14C14047   4.455   1.444   5.650 -1.8204 -0.5597 -1.0423
  131OSM    C1314048   4.555   1.601   5.828  0.0671 -0.1988  0.0534
  131OSM   H13A14049   4.572   1.656   5.920  1.2618  0.7790 -0.7313
  131OSM   H13B14050   4.558   1.662   5.739 -1.9384  0.4908  0.4335
  131OSM   H13C14051   4.642   1.537   5.821  0.5296  0.5647 -1.2799
  131OSM    C1214052   4.424   1.472   5.987  0.3755 -0.1526  0.1519
  131OSM   H12A14053   4.501   1.399   6.005  1.0684  0.7897  1.0499
  131OSM   H12B14054   4.331   1.420   6.004 -1.1035  2.7329  1.2847
  131OSM    C1114055   4.439   1.583   6.092 -0.3773 -0.0836  0.3403
  131OSM   H11A14056   4.390   1.543   6.184 -0.3205 -1.6233 -0.2859
  131OSM   H11B14057   4.394   1.680   6.061  0.6981  0.7587  1.3741
  131OSM      P14058   4.625   1.711   6.220 -0.3182  0.7430 -0.0529
  131OSM    O1314059   4.768   1.721   6.207  0.3286 -0.4549  0.5658
  131OSM    O1414060   4.546   1.837   6.214  0.3397  0.8674 -0.6009
  131OSM    O1114061   4.593   1.618   6.349 -0.5998 -0.6086  0.6191
  131OSM    O1214062   4.575   1.619   6.103 -0.0971  0.1513  0.0146
  131OSM    C1S14063   4.692   1.588   6.446  0.0689  0.1199 -0.2016
  131OSM    H1S14064   4.750   1.680   6.468 -1.3547  0.7895  0.7793
  131OSM    H1T14065   4.771   1.517   6.413  0.9482  1.0025 -0.0464
  131OSM     NF14066   4.722   1.542   6.682 -0.7828  0.0850 -0.0087
  131OSM    HNF14067   4.748   1.458   6.729  0.1199 -0.8362 -2.0932
  131OSM    C2S14068   4.625   1.534   6.573  0.2127 -0.4411 -0.1716
  131OSM    H2S14069   4.538   1.599   6.597  0.6777 -0.0139  0.3891
  131OSM    C3S14070   4.565   1.392   6.544  0.8880 -0.2748  0.0265
  131OSM    H3S14071   4.651   1.322   6.533  1.9162  0.7992  1.1054
  131OSM     O314072   4.509   1.376   6.413  0.5666 -0.1473  0.4813
  131OSM    HO314073   4.517   1.466   6.380  0.5912 -0.2349  0.2516
  131OSM    C4S14074   4.479   1.349   6.655  0.3058 -0.1511  0.4719
  131OSM    H4S14075   4.541   1.335   6.745  1.5894  1.9851 -0.0320
  131OSM    C5S14076   4.343   1.351   6.664 -0.1454  0.2477 -0.0248
  131OSM    H5S14077   4.291   1.400   6.580 -1.6823 -0.0737  0.7444
  131OSM    C6S14078   4.253   1.313   6.769  0.9450  0.8035 -0.0394
  131OSM    H6S14079   4.198   1.218   6.746  2.3991 -0.3166  1.0488
  131OSM    H6T14080   4.178   1.395   6.779 -0.5722 -0.4881 -0.4839
  131OSM    C7S14081   4.323   1.303   6.906 -0.3157 -0.1136 -0.1015
  131OSM    H7S14082   4.379   1.397   6.924  0.7273 -0.5378 -1.1171
  131OSM    H7T14083   4.407   1.232   6.892  0.0734  0.2012  0.5951
  131OSM    C8S14084   4.230   1.277   7.022 -0.2762  0.1058 -0.1012
  131OSM    H8S14085   4.170   1.185   7.000  0.1135 -0.0041 -0.7105
  131OSM    H8T14086   4.149   1.353   7.019 -1.5338 -1.2652 -4.1021
  131OSM    C9S14087   4.297   1.256   7.160  0.4469 -0.4144  1.3782
  131OSM    H9S14088   4.358   1.347   7.177 -1.3789  0.9397  0.8657
  131OSM    H9T14089   4.359   1.164   7.159 -1.7546 -1.9580  0.0097
  131OSM   C10S14090   4.198   1.247   7.271  0.3789 -0.0394  0.0061
  131OSM   H10S14091   4.113   1.182   7.239 -0.0928  0.3934  0.3747
  131OSM   H10T14092   4.157   1.350   7.280  3.2757  1.3259 -1.7949
  131OSM   C11S14093   4.251   1.210   7.414 -0.5235  0.2737 -0.1439
  131OSM   H11S14094   4.337   1.276   7.437  0.5876 -1.4604  0.8873
  131OSM   H11T14095   4.289   1.106   7.402  0.3103  0.3209  1.7979
  131OSM   C12S14096   4.138   1.221   7.520 -0.7316  0.2007 -0.7061
  131OSM   H12S14097   4.052   1.156   7.492 -0.9620  0.0942  0.2120
  131OSM   H12T14098   4.093   1.322   7.536  1.0067  1.0606 -1.1271
  131OSM   C13S14099   4.196   1.190   7.660  0.2260 -0.3102 -0.6101
  131OSM   H13S14100   4.247   1.279   7.701 -0.5275  0.4346 -1.2650
  131OSM   H13T14101   4.279   1.117   7.661 -0.3755 -0.9855  1.4272
  131OSM   C14S14102   4.097   1.156   7.773  0.5441 -0.4738  0.2839
  131OSM   H14S14103   4.149   1.078   7.832 -0.2958 -0.5592  0.9184
  131OSM   H14T14104   4.010   1.108   7.723 -0.5253  0.3490  1.3178
  131OSM   C15S14105   4.053   1.275   7.851  0.8614 -0.2926  0.5091
  131OSM   H15S14106   3.996   1.345   7.786 -1.2896 -2.5031 -0.0692
  131OSM   H15T14107   4.148   1.322   7.882  0.5857  1.2559 -0.9217
  131OSM   C16S14108   3.975   1.242   7.980  0.6716  0.4567  0.0030
  131OSM   H16S14109   3.993   1.330   8.046  0.0746  0.9435 -0.4762
  131OSM   H16T14110   4.024   1.154   8.028 -0.1088 -1.2000 -2.1300
  131OSM   C17S14111   3.829   1.191   7.950  0.5113  0.0937 -0.5059
  131OSM   H17S14112   3.821   1.112   7.873 -2.4426 -0.9142  0.7687
  131OSM   H17T14113   3.780   1.283   7.911  0.5231 -0.0240 -0.8023
  131OSM   C18S14114   3.756   1.149   8.075  0.6624  0.2932 -0.0981
  131OSM   H18S14115   3.802   1.060   8.122 -1.0985  0.2796  1.6860
  131OSM   H18T14116   3.655   1.105   8.057  0.0012  0.9128  1.9682
  131OSM   H18U14117   3.752   1.227   8.154 -1.3119 -1.3359  1.4745
  131OSM    C1F14118   4.761   1.654   6.743 -1.1430  0.1216  0.3599
  131OSM     OF14119   4.706   1.756   6.712  0.4245  0.5245 -0.0923
  131OSM    C2F14120   4.872   1.649   6.842  0.4459 -0.1310  0.1728
  131OSM    H2F14121   4.927   1.746   6.837 -0.1709  0.1844 -0.6264
  131OSM    H2G14122   4.935   1.561   6.818  0.7747  0.0491  0.3653
  131OSM    C3F14123   4.828   1.624   6.995 -0.3033  0.4815 -0.3123
  131OSM    H3F14124   4.756   1.541   6.981  0.1814  0.0038 -0.0035
  131OSM    H3G14125   4.762   1.708   7.026  0.7498  1.0127  0.5257
  131OSM    C4F14126   4.931   1.582   7.094  0.1864  0.0472 -0.6607
  131OSM    H4F14127   5.016   1.652   7.110  2.0932 -2.3699  0.0873
  131OSM    H4G14128   4.966   1.479   7.073  0.8137 -0.4474  2.5715
  131OSM    C5F14129   4.880   1.553   7.242 -0.5588  0.2440  0.9358
  131OSM    H5F14130   4.969   1.508   7.293 -0.0653 -0.2172 -0.3196
  131OSM    H5G14131   4.798   1.480   7.227  0.3491 -0.6923  0.4683
  131OSM    C6F14132   4.834   1.678   7.309  0.4505  0.0217  0.1584
  131OSM    H6F14133   4.754   1.722   7.245 -0.5150 -2.5733 -0.4738
  131OSM    H6G14134   4.916   1.752   7.318  0.8150 -0.7003  3.0379
  131OSM    C7F14135   4.777   1.653   7.440  0.0283 -0.1660 -0.2914
  131OSM    H7F14136   4.689   1.586   7.427  1.4851 -1.9234 -1.2944
  131OSM    H7G14137   4.748   1.756   7.470  1.0766  0.7942 -2.4726
  131OSM    C8F14138   4.875   1.597   7.543 -0.5257 -0.0445  0.1096
  131OSM    H8F14139   4.923   1.505   7.503 -1.7233 -1.1488  1.1385
  131OSM    H8G14140   4.825   1.554   7.633  0.3165 -2.1834 -0.4168
  131OSM    C9F14141   4.984   1.696   7.576 -0.1454  0.9681  1.2087
  131OSM    H9F14142   5.041   1.716   7.484 -1.7800 -0.4920 -0.1536
  131OSM   C10F14143   5.022   1.755   7.686 -1.0424  0.0087  0.0188
  131OSM   H10F14144   5.099   1.833   7.696  1.2203 -2.5317  3.8582
  131OSM   C11F14145   4.964   1.722   7.818  0.1568 -0.0738  0.1195
  131OSM   H11F14146   4.946   1.614   7.836  1.3007 -0.0659  1.3798
  131OSM   H11G14147   4.872   1.782   7.835 -0.0040 -0.7232  1.6330
  131OSM   C12F14148   5.061   1.745   7.938 -0.0369  0.1926 -0.6196
  131OSM   H12F14149   5.076   1.854   7.950 -1.9032  0.0966  3.2247
  131OSM   H12G14150   5.160   1.699   7.915 -0.2065  0.2139 -1.4034
  131OSM   C13F14151   5.004   1.688   8.068 -0.3836  0.8115  0.1910
  131OSM   H13F14152   5.008   1.577   8.076 -0.2823  0.7932 -0.1290
  131OSM   H13G14153   4.901   1.722   8.089 -0.7348  0.3612 -0.7607
  131OSM   C14F14154   5.082   1.734   8.195 -0.5194  0.1497  0.1454
  131OSM   H14F14155   5.031   1.824   8.235 -3.6486 -1.2918 -0.5321
  131OSM   H14G14156   5.190   1.749   8.174 -0.4980  1.1965  0.9773
  131OSM   C15F14157   5.063   1.629   8.305 -0.0117 -0.5822 -0.3967
  131OSM   H15F14158   5.122   1.541   8.271  2.2117  0.8250 -0.3103
  131OSM   H15G14159   4.955   1.612   8.327  0.0609 -1.7935 -0.9160
  131OSM   C16F14160   5.127   1.665   8.441 -0.1269  0.2212 -0.2487
  131OSM   H16F14161   5.220   1.721   8.417  0.4923 -0.9203 -0.5291
  131OSM   H16G14162   5.154   1.571   8.492 -1.8949  0.5708  1.3656
  131OSM   C17F14163   5.042   1.755   8.534 -0.9116 -0.1028 -0.1091
  131OSM   H17F14164   4.954   1.697   8.567 -1.0272  0.4755  0.6004
  131OSM   H17G14165   5.011   1.855   8.496 -2.1244  0.5031  2.3910
  131OSM   C18F14166   5.120   1.784   8.664 -0.2422  0.3617  0.3921
  131OSM   H18F14167   5.128   1.691   8.724  0.9434  1.4141  1.9186
  131OSM   H18G14168   5.067   1.851   8.735  0.2915 -1.5739  2.6874
  131OSM   H18H14169   5.223   1.823   8.645 -0.1883 -0.7143 -1.6034
  132OSM      N14170   0.522   5.267   6.185 -0.0162  0.0494  0.6184
  132OSM    C1514171   0.604   5.366   6.109  0.2696 -0.1822  0.0661
  132OSM   H15A14172   0.679   5.319   6.048  0.0031  2.6706 -2.5786
  132OSM   H15B14173   0.651   5.434   6.179 -1.2641 -0.3738  1.3283
  132OSM   H15C14174   0.546   5.425   6.040 -0.1916  0.0324  0.6285
  132OSM    C1414175   0.459   5.177   6.083 -0.2036 -0.6964  0.0275
  132OSM   H14A14176   0.372   5.220   6.035  0.1286 -0.5678 -0.4650
  132OSM   H14B14177   0.440   5.088   6.140  0.6902 -1.9900 -1.6630
  132OSM   H14C14178   0.529   5.145   6.007 -1.4705  1.3353 -2.0872
  132OSM    C1314179   0.613   5.181   6.272 -0.7027  0.5730  0.4717
  132OSM   H13A14180   0.565   5.087   6.296  0.9234 -0.3102  0.3577
  132OSM   H13B14181   0.633   5.241   6.360 -0.1954  3.0870 -1.3250
  132OSM   H13C14182   0.699   5.158   6.211 -2.2143  0.1135 -1.5279
  132OSM    C1214183   0.420   5.332   6.266 -0.4751 -0.0384  0.0729
  132OSM   H12A14184   0.471   5.394   6.338  0.4089  0.9022 -1.3188
  132OSM   H12B14185   0.365   5.258   6.323  0.8336 -0.5354  0.6998
  132OSM    C1114186   0.314   5.412   6.187  1.0804 -0.9539  0.1928
  132OSM   H11A14187   0.356   5.493   6.124  1.8643 -0.6654  1.0744
  132OSM   H11B14188   0.264   5.483   6.256  2.3807  0.2302 -0.0727
  132OSM      P14189   0.110   5.261   6.205  0.2941  0.2195 -0.5173
  132OSM    O1314190  -0.007   5.220   6.124 -0.0186 -0.4882 -0.8372
  132OSM    O1414191   0.163   5.163   6.304 -0.2814 -0.2409 -0.0327
  132OSM    O1114192   0.057   5.383   6.287 -0.1246 -0.2133 -0.1780
  132OSM    O1214193   0.223   5.327   6.114  0.1442  0.1258  0.0509
  132OSM    C1S14194  -0.058   5.364   6.366  0.4117 -0.1113  0.2865
  132OSM    H1S14195  -0.080   5.259   6.392  1.9680 -1.1215 -2.2945
  132OSM    H1T14196  -0.151   5.393   6.313  0.4606 -1.1985 -0.4041
  132OSM     NF14197  -0.190   5.407   6.563  0.5299 -0.4602  0.6012
  132OSM    HNF14198  -0.255   5.482   6.564  1.2337  0.2454 -1.8537
  132OSM    C2S14199  -0.061   5.444   6.503 -0.4725  0.2888 -0.7820
  132OSM    H2S14200   0.023   5.399   6.560 -1.0842 -3.1661 -2.5174
  132OSM    C3S14201  -0.047   5.595   6.477  0.5234 -0.8606 -0.1554
  132OSM    H3S14202  -0.132   5.627   6.413  2.0348 -1.4628 -2.5232
  132OSM     O314203   0.075   5.626   6.416 -0.4923 -0.4699 -0.3845
  132OSM    HO314204   0.098   5.539   6.382  1.9905 -1.1313  2.7793
  132OSM    C4S14205  -0.033   5.674   6.606 -0.4762  0.4405  0.3098
  132OSM    H4S14206   0.057   5.652   6.666 -1.7099 -1.7446  1.4110
  132OSM    C5S14207  -0.126   5.755   6.658  0.1663  0.3950  0.2132
  132OSM    H5S14208  -0.222   5.770   6.606  1.0832  2.7507 -0.8711
  132OSM    C6S14209  -0.108   5.824   6.791  0.3709 -0.0128 -0.3677
  132OSM    H6S14210  -0.190   5.791   6.859 -0.3196  3.2121  0.4547
  132OSM    H6T14211  -0.121   5.934   6.784 -0.2444 -0.1389 -1.4207
  132OSM    C7S14212   0.024   5.803   6.869  0.4139  0.8013 -0.5549
  132OSM    H7S14213   0.099   5.849   6.801  0.4468  1.9528  0.2523
  132OSM    H7T14214   0.042   5.694   6.878 -1.0431  0.3864 -2.2311
  132OSM    C8S14215   0.018   5.871   7.005  0.3366  0.0397  0.0244
  132OSM    H8S14216  -0.085   5.909   7.022  0.0237 -0.9804  0.4516
  132OSM    H8T14217   0.084   5.960   7.000  0.6103 -0.2411 -1.8543
  132OSM    C9S14218   0.062   5.794   7.132  0.0972 -0.0633  0.2233
  132OSM    H9S14219   0.171   5.775   7.131  0.1039 -0.0207  0.1274
  132OSM    H9T14220  -0.005   5.707   7.147  1.5103 -1.4421 -1.1920
  132OSM   C10S14221   0.059   5.891   7.246 -0.1146  0.5320  0.3021
  132OSM   H10S14222  -0.038   5.943   7.263 -0.6941 -0.2411 -0.6146
  132OSM   H10T14223   0.128   5.977   7.227  1.8388 -0.5915  2.0740
  132OSM   C11S14224   0.091   5.827   7.383  0.1273  0.0987 -0.1613
  132OSM   H11S14225   0.197   5.797   7.396  0.0741  0.3302  0.8903
  132OSM   H11T14226   0.025   5.739   7.393  0.3905 -0.2682 -1.6546
  132OSM   C12S14227   0.073   5.931   7.491  0.3236 -0.3763 -0.8168
  132OSM   H12S14228  -0.018   5.992   7.472  0.8423  0.1491 -1.6703
  132OSM   H12T14229   0.158   6.000   7.508 -0.8170  0.9348 -0.3286
  132OSM   C13S14230   0.047   5.869   7.626 -0.1522 -0.1892  0.0096
  132OSM   H13S14231   0.131   5.798   7.647  0.2933  0.2961 -0.1365
  132OSM   H13T14232  -0.045   5.806   7.626  0.4319 -1.0709  1.4217
  132OSM   C14S14233   0.037   5.968   7.740 -0.2522  0.2143 -0.5432
  132OSM   H14S14234  -0.044   6.039   7.712 -1.2171 -1.2575 -1.5443
  132OSM   H14T14235   0.127   6.030   7.759  0.5519 -0.8581 -0.8326
  132OSM   C15S14236   0.032   5.894   7.872 -0.0759 -0.4611  0.2240
  132OSM   H15S14237   0.128   5.844   7.897  0.6832  0.0991 -1.4941
  132OSM   H15T14238  -0.044   5.814   7.857  2.0617 -1.8788 -3.8462
  132OSM   C16S14239  -0.004   5.982   7.994  0.6748 -0.1647 -0.1168
  132OSM   H16S14240  -0.105   6.026   7.979  0.8784  0.7768  1.1698
  132OSM   H16T14241   0.064   6.069   7.982  1.4481 -0.8936 -1.1904
  132OSM   C17S14242  -0.002   5.920   8.141  0.0084 -0.2404 -0.0298
  132OSM   H17S14243   0.090   5.858   8.139 -0.8961 -1.6717  1.3166
  132OSM   H17T14244  -0.090   5.852   8.146 -0.3071  0.1808  0.1227
  132OSM   C18S14245   0.018   6.035   8.246  0.5416 -0.0250 -0.4282
  132OSM   H18S14246   0.124   6.069   8.244  1.0682 -1.6653 -1.9311
  132OSM   H18T14247  -0.005   5.991   8.345  0.5269 -0.6330 -0.7021
  132OSM   H18U14248  -0.063   6.109   8.228 -0.6899 -0.9785  1.0826
  132OSM    C1F14249  -0.232   5.293   6.617 -0.3112 -0.2267 -0.5329
  132OSM     OF14250  -0.180   5.187   6.584  0.1543  0.4420 -0.2107
  132OSM    C2F14251  -0.338   5.305   6.728 -0.8538 -0.0643  0.0831
  132OSM    H2F14252  -0.408   5.221   6.714  0.7365 -1.1329 -1.7603
  132OSM    H2G14253  -0.387   5.405   6.728  0.7709  0.7606 -1.7392
  132OSM    C3F14254  -0.268   5.297   6.866 -0.0496 -0.2214 -1.1012
  132OSM    H3F14255  -0.194   5.215   6.882  1.1886  0.7924 -1.5517
  132OSM    H3G14256  -0.344   5.283   6.946  0.7951 -0.2476 -0.2941
  132OSM    C4F14257  -0.205   5.433   6.900  0.1783 -0.0892  0.1277
  132OSM    H4F14258  -0.281   5.513   6.905  0.6611  0.3061  1.3511
  132OSM    H4G14259  -0.128   5.441   6.820 -0.3463 -0.5496 -0.4289
  132OSM    C5F14260  -0.127   5.443   7.035 -0.2516  0.5447  0.0267
  132OSM    H5F14261  -0.080   5.543   7.045  1.2513 -0.0241 -1.1299
  132OSM    H5G14262  -0.043   5.371   7.029 -0.2501  0.2601  2.9257
  132OSM    C6F14263  -0.220   5.436   7.160  0.1555  0.3919  0.2169
  132OSM    H6F14264  -0.276   5.341   7.162  2.3589 -0.9270  0.7485
  132OSM    H6G14265  -0.297   5.515   7.144 -0.9464 -0.7920 -0.4829
  132OSM    C7F14266  -0.137   5.458   7.281  0.2143  0.6349  0.2662
  132OSM    H7F14267  -0.065   5.541   7.265  1.2065 -0.5224 -1.3327
  132OSM    H7G14268  -0.078   5.366   7.299 -0.7075 -0.3418 -1.6077
  132OSM    C8F14269  -0.229   5.483   7.399 -0.4390 -1.0527  0.7173
  132OSM    H8F14270  -0.307   5.560   7.383 -0.3301 -1.0617  0.1254
  132OSM    H8G14271  -0.160   5.531   7.472 -0.0562  0.2852 -0.5185
  132OSM    C9F14272  -0.292   5.361   7.453 -1.1932  0.5107 -0.0972
  132OSM    H9F14273  -0.281   5.270   7.393  1.3785 -1.3613  3.0786
  132OSM   C10F14274  -0.338   5.344   7.582 -0.0753  0.6624  0.2458
  132OSM   H10F14275  -0.370   5.247   7.624  0.0189  0.5112 -0.0303
  132OSM   C11F14276  -0.347   5.453   7.684 -0.0679  0.1286  0.2987
  132OSM   H11F14277  -0.284   5.540   7.657 -0.8432  0.4953 -0.3454
  132OSM   H11G14278  -0.309   5.428   7.785 -1.7236 -0.0557  0.8838
  132OSM   C12F14279  -0.493   5.496   7.692 -0.5596  0.4104  0.0749
  132OSM   H12F14280  -0.527   5.531   7.592  0.2709  0.0419 -0.3398
  132OSM   H12G14281  -0.512   5.578   7.765 -0.5979 -0.0026  0.5305
  132OSM   C13F14282  -0.604   5.393   7.737 -0.0363 -0.6103  0.0364
  132OSM   H13F14283  -0.569   5.293   7.704 -0.6121 -0.6466 -0.4715
  132OSM   H13G14284  -0.700   5.414   7.684 -1.4299  2.2713  3.4948
  132OSM   C14F14285  -0.632   5.388   7.887 -0.0841 -0.1536  0.0301
  132OSM   H14F14286  -0.541   5.392   7.952 -1.4134  0.8287  1.8783
  132OSM   H14G14287  -0.694   5.296   7.890 -2.2305  1.2183 -1.5930
  132OSM   C15F14288  -0.738   5.483   7.935 -0.3143 -0.3996 -0.2735
  132OSM   H15F14289  -0.833   5.457   7.883  0.2721 -0.8696 -1.1164
  132OSM   H15G14290  -0.709   5.584   7.899 -2.3021 -0.2049 -1.4098
  132OSM   C16F14291  -0.757   5.477   8.094 -0.0703 -0.3725 -0.2155
  132OSM   H16F14292  -0.667   5.505   8.153  0.0055 -0.6489 -0.1999
  132OSM   H16G14293  -0.787   5.373   8.119  2.9796 -1.4595 -0.7834
  132OSM   C17F14294  -0.857   5.589   8.129 -0.1105 -0.3303 -0.7607
  132OSM   H17F14295  -0.946   5.575   8.063 -2.6756 -3.3341  3.0519
  132OSM   H17G14296  -0.823   5.691   8.103 -0.1508 -0.0949  0.0900
  132OSM   C18F14297  -0.900   5.592   8.276  0.4853  0.3380  0.5604
  132OSM   H18F14298  -0.809   5.578   8.338 -0.2605 -3.9338  0.9158
  132OSM   H18G14299  -0.977   5.512   8.283  1.3222 -0.6090 -0.9487
  132OSM   H18H14300  -0.946   5.691   8.297  0.4641  0.4970 -0.2485
  133SAPE     N14301   3.398   3.101  10.877  0.1325 -0.1743  0.5010
  133SAPE   HN114302   3.429   3.188  10.925  1.1358  0.5679 -1.4344
  133SAPE   HN214303   3.402   3.014  10.934  3.0656 -0.9170 -0.7467
  133SAPE   HN314304   3.469   3.084  10.803  0.6050  0.9153  0.6948
  133SAPE   C1214305   3.259   3.137  10.819 -0.2543 -0.2272  0.0801
  133SAPE  H12A14306   3.190   3.172  10.899  0.8423 -1.6133  1.6749
  133SAPE  H12B14307   3.224   3.045  10.769  1.6333 -0.9117 -0.0351
  133SAPE   C1114308   3.272   3.253  10.718  0.3566 -0.7549 -0.3734
  133SAPE  H11A14309   3.170   3.283  10.684  1.0788  0.6573 -1.3481
  133SAPE  H11B14310   3.330   3.221  10.628  0.4315  0.6783 -0.8408
  133SAPE     P14311   3.399   3.481  10.693 -0.2408 -0.2131 -0.1507
  133SAPE   O1314312   3.331   3.602  10.731  0.2663 -0.2263 -0.5323
  133SAPE   O1414313   3.542   3.480  10.704 -0.5743  0.0538 -0.6583
  133SAPE   O1214314   3.335   3.367  10.784 -0.1956 -0.1072  0.5924
  133SAPE   O1114315   3.353   3.438  10.549 -0.0449  0.4379 -0.2102
  133SAPE    C114316   3.405   3.494  10.427  0.3544  0.1432  0.2356
  133SAPE    HA14317   3.392   3.604  10.434  1.3227  0.1779  1.7603
  133SAPE    HB14318   3.516   3.485  10.415  0.4601  0.4785  0.9542
  133SAPE    C214319   3.350   3.421  10.300 -0.7258 -0.1074  0.6890
  133SAPE    HS14320   3.329   3.492  10.218  1.4450  1.4931  1.4687
  133SAPE   O2114321   3.232   3.343  10.327 -0.9101 -0.3969 -0.4374
  133SAPE   C2114322   3.125   3.412  10.361 -0.8300  0.4238  0.2361
  133SAPE   O2214323   3.117   3.533  10.369 -0.3417  0.0755  0.7945
  133SAPE   C2214324   3.006   3.315  10.378 -0.0705  0.0031 -0.5199
  133SAPE   H2R14325   3.006   3.242  10.295 -0.1141  0.3755 -0.8475
  133SAPE   H2S14326   3.017   3.272  10.480 -2.4630  0.2058 -0.1516
  133SAPE    C314327   3.466   3.326  10.248 -0.0164  0.5318  0.0398
  133SAPE    HX14328   3.479   3.241  10.319 -3.4452 -1.2290 -1.3202
  133SAPE    HY14329   3.560   3.384  10.242 -0.2483  0.9547  0.5030
  133SAPE   O3114330   3.431   3.273  10.115  0.0210 -0.0898 -0.3018
  133SAPE   C3114331   3.510   3.174  10.074  0.6163  0.4293 -0.1876
  133SAPE   O3214332   3.616   3.145  10.128  0.2610 -0.3520  0.2135
  133SAPE   C3214333   3.460   3.127   9.945  0.3161 -0.4348 -0.0481
  133SAPE   H2X14334   3.351   3.150   9.946  0.8405  2.1870  0.7600
  133SAPE   H2Y14335   3.469   3.017   9.946  1.3369 -0.3562  2.0790
  133SAPE   C2314336   2.865   3.384  10.362 -0.3963 -0.4120  0.1623
  133SAPE   H3R14337   2.843   3.463  10.437 -0.8570  1.6915 -2.1066
  133SAPE   H3S14338   2.789   3.306  10.386 -0.8514 -0.3720 -1.1140
  133SAPE   C2414339   2.846   3.457  10.230  0.0653  0.0376 -0.1600
  133SAPE   H4R14340   2.906   3.550  10.222  0.3370 -0.0674  0.5229
  133SAPE   H4S14341   2.745   3.503  10.236 -0.6016 -1.2535 -1.2791
  133SAPE   C2514342   2.842   3.368  10.107  0.3415 -0.0278  0.2220
  133SAPE   H5R14343   2.823   3.261  10.120 -2.8076  0.5048  0.3110
  133SAPE   C2614344   2.894   3.407   9.989 -0.2642  0.2130 -0.6432
  133SAPE   H6R14345   2.892   3.340   9.901  1.3351  0.8195 -1.1720
  133SAPE   C2714346   2.950   3.539   9.959 -0.0444  0.4979 -0.1737
  133SAPE   H7R14347   2.918   3.622  10.026 -2.3052  0.0156 -0.6327
  133SAPE   H7S14348   2.927   3.571   9.855 -3.7979 -1.5401 -0.0405
  133SAPE   C2814349   3.104   3.531   9.961 -0.5539 -0.0281  0.6243
  133SAPE   H8R14350   3.151   3.561  10.056 -0.0788  3.1628 -0.5777
  133SAPE   C2914351   3.183   3.476   9.869 -0.0771 -0.3817  0.3605
  133SAPE   H9R14352   3.292   3.479   9.887  0.3191  1.9520 -2.0491
  133SAPE  C21014353   3.141   3.425   9.733  0.0419  0.2554  1.0614
  133SAPE  H10R14354   3.231   3.410   9.669 -1.4168 -0.4040 -0.8857
  133SAPE  H10S14355   3.072   3.494   9.681  0.4097  1.8635  2.6802
  133SAPE  C21114356   3.081   3.286   9.726 -0.3616  0.1718  0.1688
  133SAPE  H11R14357   3.107   3.208   9.799 -2.7175 -1.8140 -1.0289
  133SAPE  C21214358   3.014   3.240   9.624  0.1168  0.2237  0.2431
  133SAPE  H12R14359   2.965   3.141   9.632  0.3023  0.0347 -0.8375
  133SAPE  C21314360   2.972   3.310   9.488 -0.3209 -0.4745 -0.3424
  133SAPE  H13R14361   2.938   3.233   9.417  1.0068 -1.9318  0.5723
  133SAPE  H13S14362   3.062   3.337   9.429 -1.1127 -0.9015 -1.7560
  133SAPE  C21414363   2.879   3.433   9.490  0.0227  0.1256 -0.0174
  133SAPE  H14R14364   2.893   3.497   9.579  1.2323 -0.2083  0.0425
  133SAPE  C21514365   2.779   3.455   9.398 -0.0355  0.0710 -0.3399
  133SAPE  H15R14366   2.710   3.541   9.409  2.0335  1.5872  1.1198
  133SAPE  C21614367   2.735   3.357   9.287 -0.5324 -0.5898  0.0963
  133SAPE  H16R14368   2.624   3.355   9.290 -0.5470  1.3869  2.1931
  133SAPE  H16S14369   2.765   3.254   9.316  0.9598  0.6224  3.0794
  133SAPE  C21714370   2.779   3.392   9.145 -0.2041 -0.4383 -0.1744
  133SAPE  H17R14371   2.888   3.373   9.130 -0.3506 -1.8474  0.4624
  133SAPE  H17S14372   2.752   3.499   9.127  0.7693 -0.2718 -0.6906
  133SAPE  C21814373   2.698   3.307   9.047 -0.7118 -0.0478 -0.1543
  133SAPE  H18R14374   2.589   3.323   9.065 -0.5758  1.7897 -0.8316
  133SAPE  H18S14375   2.724   3.206   9.085  1.1426 -0.0808 -1.4672
  133SAPE  C21914376   2.738   3.348   8.905 -0.1526 -0.3358  0.2111
  133SAPE  H19R14377   2.715   3.455   8.885  3.1260  0.1289 -1.4781
  133SAPE  H19S14378   2.683   3.276   8.840  0.7012  0.1313 -1.0565
  133SAPE  C22014379   2.884   3.334   8.864 -0.2991 -0.1823 -0.3620
  133SAPE  H20R14380   2.917   3.232   8.893  1.7327  0.5621  0.0405
  133SAPE  H20S14381   2.956   3.403   8.913 -0.1516  1.2682 -2.5481
  133SAPE  H20T14382   2.903   3.349   8.755  2.7215  1.2775  0.3263
  133SAPE   C3314383   3.526   3.191   9.817  0.3707 -0.6590 -0.1570
  133SAPE   H3X14384   3.637   3.179   9.812  0.7631  2.5568  0.1380
  133SAPE   H3Y14385   3.496   3.298   9.816  1.8591 -0.1871  2.2637
  133SAPE   C3414386   3.469   3.139   9.683  0.1638  0.0278  0.2021
  133SAPE   H4X14387   3.361   3.159   9.667 -0.0699  0.3817  2.0912
  133SAPE   H4Y14388   3.465   3.028   9.683  1.8259 -0.0387 -0.6154
  133SAPE   C3514389   3.551   3.189   9.551  0.5218  0.0717  0.1983
  133SAPE   H5X14390   3.644   3.129   9.557  0.4293 -0.2651 -1.3966
  133SAPE   H5Y14391   3.571   3.298   9.561  0.1185  0.2074 -0.4023
  133SAPE   C3614392   3.462   3.183   9.420 -0.8527  0.0965 -0.3023
  133SAPE   H6X14393   3.363   3.231   9.437 -0.4821  0.3092  1.3670
  133SAPE   H6Y14394   3.437   3.077   9.400  0.5637 -0.3790  0.4097
  133SAPE   C3714395   3.535   3.237   9.296  1.0814 -1.0268  0.8581
  133SAPE   H7X14396   3.609   3.160   9.266 -0.9949 -1.8608 -2.4811
  133SAPE   H7Y14397   3.597   3.322   9.330  0.7192  0.8170 -2.8444
  133SAPE   C3814398   3.438   3.268   9.182 -0.0139  0.6628  0.2495
  133SAPE   H8X14399   3.487   3.328   9.103  0.3475 -0.6498 -0.5481
  133SAPE   H8Y14400   3.343   3.317   9.213 -0.0823 -0.3256  1.6374
  133SAPE   C3914401   3.395   3.145   9.098 -0.2906  0.6618 -0.8758
  133SAPE   H9X14402   3.358   3.059   9.157 -1.1756 -0.7493 -3.4257
  133SAPE   H9Y14403   3.486   3.106   9.048 -0.5452  0.3239 -1.0839
  133SAPE  C31014404   3.290   3.184   8.994  0.5436  0.0021 -0.2877
  133SAPE  H10X14405   3.318   3.277   8.941  1.0138  0.3200  0.4929
  133SAPE  H10Y14406   3.198   3.204   9.053  1.3799 -2.1730  1.9002
  133SAPE  C31114407   3.260   3.072   8.891 -0.1849  0.3635  0.0357
  133SAPE  H11X14408   3.198   2.991   8.935 -1.7919 -0.1727 -3.0655
  133SAPE  H11Y14409   3.357   3.022   8.871  0.9577  1.9297  1.4719
  133SAPE  C31214410   3.199   3.126   8.761 -0.0085  0.3987 -0.6357
  133SAPE  H12X14411   3.270   3.204   8.726 -1.2132  1.5626 -0.5371
  133SAPE  H12Y14412   3.097   3.162   8.788 -0.3992 -1.9089  1.1346
  133SAPE  C31314413   3.177   3.021   8.653  0.3959 -0.3657 -1.0583
  133SAPE  H13X14414   3.143   3.084   8.568 -2.5599 -2.7295 -1.6957
  133SAPE  H13Y14415   3.100   2.948   8.687  0.5268  0.0614  0.1707
  133SAPE  C31414416   3.312   2.948   8.610 -0.4039 -0.5461  0.7003
  133SAPE  H14X14417   3.341   2.879   8.692  0.8988  1.2893  1.8461
  133SAPE  H14Y14418   3.379   3.034   8.585 -0.6031 -0.0304  1.9131
  133SAPE  C31514419   3.293   2.879   8.472 -0.0119  0.2110  0.2787
  133SAPE  H15X14420   3.391   2.830   8.452  1.4246  3.1688 -0.2987
  133SAPE  H15Y14421   3.264   2.946   8.388  0.3073  0.1632  0.1291
  133SAPE  C31614422   3.189   2.762   8.476  0.0666  0.3878 -0.0574
  133SAPE  H16X14423   3.086   2.798   8.497  0.2306  0.7754  0.0834
  133SAPE  H16Y14424   3.213   2.688   8.556  1.6707  0.4192 -0.4830
  133SAPE  C31714425   3.184   2.681   8.355  0.2995  0.1743  0.1702
  133SAPE  H17X14426   3.154   2.734   8.262 -1.3800 -0.8691  0.1006
  133SAPE  H17Y14427   3.106   2.606   8.381 -0.3281 -0.1361 -2.5222
  133SAPE  C31814428   3.309   2.604   8.318  0.0406 -0.6545 -0.3857
  133SAPE  H18X14429   3.388   2.673   8.283  0.4474 -1.2556 -0.6621
  133SAPE  H18Y14430   3.281   2.544   8.229 -3.6466  2.0990 -1.1881
  133SAPE  H18Z14431   3.338   2.539   8.404 -0.2674 -0.9604 -0.5105
  134SAPE     N14432   6.375   4.002  10.755 -0.1898 -0.7331  0.0138
  134SAPE   HN114433   6.464   4.040  10.717 -0.3392 -0.9588 -0.5652
  134SAPE   HN214434   6.400   3.952  10.842 -0.3179 -1.6444 -0.4664
  134SAPE   HN314435   6.354   3.931  10.682 -0.4004  0.7331 -1.3721
  134SAPE   C1214436   6.266   4.108  10.770  0.0406  0.4511 -0.8418
  134SAPE  H12A14437   6.310   4.188  10.834  0.7877 -0.2814 -0.4268
  134SAPE  H12B14438   6.186   4.050  10.821  0.2924  1.1621  0.3972
  134SAPE   C1114439   6.203   4.154  10.639  0.3599  0.1643 -0.5193
  134SAPE  H11A14440   6.124   4.221  10.677 -0.9664 -2.1217  0.8991
  134SAPE  H11B14441   6.158   4.063  10.593 -2.2457  1.1368  0.0047
  134SAPE     P14442   6.328   4.372  10.560 -0.6153  0.2534  0.2787
  134SAPE   O1314443   6.319   4.416  10.697  0.4884  0.1776 -0.4493
  134SAPE   O1414444   6.456   4.397  10.494  0.0471  0.3268  0.1638
  134SAPE   O1214445   6.298   4.216  10.557 -0.5168 -0.6833  0.5493
  134SAPE   O1114446   6.217   4.433  10.467 -0.0252  0.4156 -0.3130
  134SAPE    C114447   6.215   4.401  10.324 -0.3129 -0.6084 -0.3899
  134SAPE    HA14448   6.150   4.479  10.279 -0.4637 -0.3210  0.3031
  134SAPE    HB14449   6.314   4.401  10.274  0.3346 -1.9997  0.8386
  134SAPE    C214450   6.132   4.273  10.307  1.0152  0.4282 -0.2187
  134SAPE    HS14451   6.061   4.267  10.392  1.0902  0.8710 -0.1206
  134SAPE   O2114452   6.210   4.155  10.309 -0.2777  0.1244  0.4445
  134SAPE   C2114453   6.138   4.050  10.331 -0.0020  0.5229 -0.4729
  134SAPE   O2214454   6.023   4.050  10.371 -0.1155  0.5998 -0.3802
  134SAPE   C2214455   6.232   3.931  10.307  0.5262  0.0610 -0.3478
  134SAPE   H2R14456   6.304   3.963  10.229  1.6393  1.0862  1.0726
  134SAPE   H2S14457   6.287   3.913  10.402 -0.7812 -1.7580  0.1108
  134SAPE    C314458   6.048   4.275  10.171 -0.3476 -0.6492 -0.7382
  134SAPE    HX14459   5.980   4.363  10.180  0.7275  0.1110  0.0818
  134SAPE    HY14460   5.984   4.185  10.164  0.9175 -1.6642  0.5281
  134SAPE   O3114461   6.130   4.298  10.058  0.0060  0.3271 -0.5155
  134SAPE   C3114462   6.169   4.191   9.995  0.1338 -0.6247  0.6462
  134SAPE   O3214463   6.133   4.075  10.008 -0.2181 -0.2511  0.2580
  134SAPE   C3214464   6.282   4.232   9.905 -0.9872  0.3449 -0.0497
  134SAPE   H2X14465   6.372   4.173   9.935 -1.4019 -0.8784 -1.1598
  134SAPE   H2Y14466   6.293   4.341   9.923 -0.0858  0.2186  0.2045
  134SAPE   C2314467   6.151   3.804  10.274 -0.6391 -0.1298 -0.4526
  134SAPE   H3R14468   6.045   3.813  10.303 -1.4253 -0.5034 -3.0700
  134SAPE   H3S14469   6.205   3.731  10.339 -0.1791 -0.0265 -0.7162
  134SAPE   C2414470   6.163   3.749  10.134  0.9223  0.4941  0.5740
  134SAPE   H4R14471   6.258   3.691  10.125  2.2305  2.2689  2.2538
  134SAPE   H4S14472   6.173   3.841  10.072  1.8228 -1.6081 -2.4978
  134SAPE   C2514473   6.056   3.664  10.082 -0.0996  0.0043 -0.7464
  134SAPE   H5R14474   6.036   3.574  10.142 -2.0303  0.9282  0.0407
  134SAPE   C2614475   5.964   3.683   9.987 -0.8331  0.3224 -0.1562
  134SAPE   H6R14476   5.883   3.610   9.980 -0.8038  0.3079 -0.3476
  134SAPE   C2714477   5.946   3.808   9.913  0.5938 -0.2358  0.5101
  134SAPE   H7R14478   5.992   3.884   9.979  2.7942  0.7530 -2.0944
  134SAPE   H7S14479   5.840   3.838   9.899  1.4906  2.8992  0.1054
  134SAPE   C2814480   6.023   3.798   9.783  0.6813  0.3154  0.1741
  134SAPE   H8R14481   6.116   3.740   9.789  0.0061 -0.6987  0.9232
  134SAPE   C2914482   5.993   3.855   9.668  0.3451  0.0427  0.9706
  134SAPE   H9R14483   6.059   3.851   9.580 -1.2373  0.3421 -0.2595
  134SAPE  C21014484   5.867   3.931   9.645  1.0944 -0.7018  0.5258
  134SAPE  H10R14485   5.851   4.007   9.724 -1.1396  1.6154 -2.0502
  134SAPE  H10S14486   5.778   3.865   9.656  0.5346  0.0271  0.3977
  134SAPE  C21114487   5.849   3.995   9.511  0.8134  0.2558 -0.5125
  134SAPE  H11R14488   5.853   4.104   9.516  0.0279  0.2945 -0.6607
  134SAPE  C21214489   5.813   3.936   9.394 -0.6047  0.1558  0.0704
  134SAPE  H12R14490   5.798   4.003   9.308 -0.7482 -1.2841 -1.0435
  134SAPE  C21314491   5.797   3.793   9.356  0.3732  0.2993 -0.8991
  134SAPE  H13R14492   5.693   3.764   9.330 -0.5192 -0.7470  3.3899
  134SAPE  H13S14493   5.830   3.722   9.435 -0.1544  0.1902 -0.7771
  134SAPE  C21414494   5.882   3.770   9.237 -0.4921  0.1054  0.4338
  134SAPE  H14R14495   5.989   3.774   9.260 -0.6961 -0.5109  1.5361
  134SAPE  C21514496   5.854   3.753   9.111  0.1364 -1.3334  0.1586
  134SAPE  H15R14497   5.936   3.734   9.040  0.4780 -1.2833  0.5449
  134SAPE  C21614498   5.713   3.741   9.053 -0.2660  0.1771 -0.0533
  134SAPE  H16R14499   5.640   3.729   9.136  1.3634  0.1002  1.3847
  134SAPE  H16S14500   5.695   3.661   8.979 -0.7210 -0.6030  0.8849
  134SAPE  C21714501   5.667   3.869   8.979 -0.3589 -0.4084 -0.1647
  134SAPE  H17R14502   5.664   3.962   9.041  3.5674  1.2883 -2.3781
  134SAPE  H17S14503   5.565   3.842   8.944  0.3353 -1.9606 -1.0470
  134SAPE  C21814504   5.755   3.894   8.853 -0.5982 -0.1811 -0.4525
  134SAPE  H18R14505   5.741   3.805   8.787  0.3885 -1.5236  1.1029
  134SAPE  H18S14506   5.862   3.900   8.882 -0.4680 -0.0338 -0.9656
  134SAPE  C21914507   5.727   4.019   8.781 -0.0831 -0.0983  0.5227
  134SAPE  H19R14508   5.747   4.112   8.839  0.3173 -0.4116  0.8892
  134SAPE  H19S14509   5.621   4.017   8.748 -0.1077  0.3151  0.5710
  134SAPE  C22014510   5.816   4.043   8.655  0.1301 -0.5157  0.6041
  134SAPE  H20R14511   5.786   4.139   8.607 -2.6094 -2.0955 -0.9726
  134SAPE  H20S14512   5.817   3.971   8.571 -0.3129 -0.5866  0.6529
  134SAPE  H20T14513   5.917   4.065   8.694 -0.8455  1.8933  1.8676
  134SAPE   C3314514   6.251   4.209   9.754  0.3702  0.2996 -0.0983
  134SAPE   H3X14515   6.223   4.102   9.744 -1.7026  0.7186  0.9219
  134SAPE   H3Y14516   6.350   4.218   9.705 -0.2001 -1.1923 -1.5981
  134SAPE   C3414517   6.145   4.311   9.700 -0.4511  0.0628  0.5715
  134SAPE   H4X14518   6.187   4.413   9.707  0.7122 -0.3313 -0.5872
  134SAPE   H4Y14519   6.052   4.303   9.761  0.9737 -1.1063  2.6318
  134SAPE   C3514520   6.112   4.299   9.550  0.2628  0.2434 -0.0025
  134SAPE   H5X14521   6.085   4.197   9.516 -1.6185  0.7759 -0.1604
  134SAPE   H5Y14522   6.211   4.312   9.502 -0.1932  4.7805  0.0295
  134SAPE   C3614523   6.010   4.397   9.502 -0.0422 -0.1176  0.0944
  134SAPE   H6X14524   6.016   4.484   9.571  0.8453  0.6233 -0.9027
  134SAPE   H6Y14525   5.909   4.351   9.510 -0.3165  0.5393  0.3880
  134SAPE   C3714526   6.034   4.449   9.364 -0.0461  0.1633 -0.3191
  134SAPE   H7X14527   6.144   4.450   9.347  0.0284 -1.1513 -0.0412
  134SAPE   H7Y14528   5.996   4.552   9.349  0.1114  0.2471 -0.1435
  134SAPE   C3814529   5.984   4.353   9.261  0.4108  0.2280 -0.1534
  134SAPE   H8X14530   5.873   4.359   9.261  0.2435 -2.1728 -1.3847
  134SAPE   H8Y14531   6.013   4.248   9.281 -2.2870 -0.5056 -0.0198
  134SAPE   C3914532   6.025   4.396   9.115  0.8826  0.8185  0.1819
  134SAPE   H9X14533   6.133   4.418   9.105  1.1559 -0.4985  0.0660
  134SAPE   H9Y14534   5.969   4.489   9.094 -1.0615 -0.2941  0.2998
  134SAPE  C31014535   5.982   4.286   9.011  0.1004  0.0615  0.3517
  134SAPE  H10X14536   5.873   4.265   9.019  0.7968 -4.2013 -0.1912
  134SAPE  H10Y14537   6.037   4.192   9.031 -0.2475 -0.6492 -1.8094
  134SAPE  C31114538   5.994   4.330   8.866 -0.2995  0.0733  0.1891
  134SAPE  H11X14539   5.911   4.402   8.850 -0.9814 -0.3668  1.6227
  134SAPE  H11Y14540   5.990   4.255   8.784 -0.1645  2.6043 -2.2105
  134SAPE  C31214541   6.133   4.406   8.831 -0.0654 -0.3343  0.3583
  134SAPE  H12X14542   6.213   4.341   8.872 -1.2405 -1.5604  0.7224
  134SAPE  H12Y14543   6.160   4.505   8.875 -0.0824  0.7802 -2.0434
  134SAPE  C31314544   6.149   4.427   8.677 -0.5111  0.4092  0.0893
  134SAPE  H13X14545   6.138   4.328   8.629  2.0991 -1.1820  2.6079
  134SAPE  H13Y14546   6.254   4.456   8.658 -0.7317  0.2923 -1.3589
  134SAPE  C31414547   6.041   4.523   8.620  0.2204 -0.0395  0.2219
  134SAPE  H14X14548   6.046   4.623   8.668  3.3593  1.2525 -2.5988
  134SAPE  H14Y14549   5.944   4.468   8.628  0.3297 -0.1596  0.7079
  134SAPE  C31514550   6.069   4.557   8.466 -0.2190 -0.0509 -0.5922
  134SAPE  H15X14551   6.087   4.457   8.420 -0.7087 -1.3268  1.9342
  134SAPE  H15Y14552   6.162   4.616   8.454  0.0950 -0.7180 -1.5490
  134SAPE  C31614553   5.954   4.613   8.393  0.8406  0.1120  1.3677
  134SAPE  H16X14554   5.927   4.704   8.450  0.8325 -0.3820  2.1691
  134SAPE  H16Y14555   5.868   4.542   8.393  0.3811  0.6176 -1.6230
  134SAPE  C31714556   5.980   4.636   8.243  0.5098  0.2128 -0.6067
  134SAPE  H17X14557   6.064   4.706   8.223  0.3199  0.9672  1.0998
  134SAPE  H17Y14558   5.896   4.702   8.212 -0.2185 -1.1470 -1.5800
  134SAPE  C31814559   5.987   4.510   8.152 -0.7389 -0.3218 -0.0955
  134SAPE  H18X14560   5.987   4.536   8.044  0.3429 -0.9940 -0.2615
  134SAPE  H18Y14561   5.896   4.452   8.178 -1.1067  0.3658  0.1489
  134SAPE  H18Z14562   6.072   4.440   8.156  0.2919  1.0567  3.9956
  135SAPE     N14563   4.825   2.254  11.006 -0.1801 -0.0259 -0.1224
  135SAPE   HN114564   4.752   2.325  10.988 -0.4436 -0.4685 -0.8092
  135SAPE   HN214565   4.803   2.176  10.940  0.3729  2.0629 -2.8222
  135SAPE   HN314566   4.820   2.219  11.104 -2.2164 -0.5465 -0.3734
  135SAPE   C1214567   4.963   2.308  10.981  0.0238 -0.3476  0.2463
  135SAPE  H12A14568   5.032   2.221  10.985  0.9847  0.3653 -0.4290
  135SAPE  H12B14569   4.984   2.391  11.052 -0.6330 -0.3590  0.4606
  135SAPE   C1114570   4.963   2.375  10.837  0.3584  0.1148  0.7333
  135SAPE  H11A14571   5.068   2.407  10.821  0.4816 -0.7078 -0.1754
  135SAPE  H11B14572   4.896   2.463  10.850 -3.1758 -2.3937 -0.0629
  135SAPE     P14573   5.011   2.183  10.665 -0.4995 -0.0914  0.3152
  135SAPE   O1314574   5.084   2.121  10.776 -0.3634  0.7067  0.1133
  135SAPE   O1414575   4.942   2.094  10.570  0.0905  0.4754 -0.2252
  135SAPE   O1214576   4.913   2.285  10.728 -0.4332  0.1494  0.2898
  135SAPE   O1114577   5.107   2.269  10.583 -0.5307  0.1550  0.0840
  135SAPE    C114578   5.074   2.398  10.521  0.0300  0.8122  0.4295
  135SAPE    HA14579   4.965   2.419  10.520 -0.4489 -1.3310  1.9813
  135SAPE    HB14580   5.116   2.477  10.587 -0.7462  0.1005  1.7974
  135SAPE    C214581   5.141   2.413  10.378 -0.1586 -0.2484 -0.2423
  135SAPE    HS14582   5.112   2.516  10.348  0.8134  0.6677  1.8509
  135SAPE   O2114583   5.111   2.310  10.279 -0.4923  0.1363  0.2192
  135SAPE   C2114584   4.985   2.287  10.256 -0.3056  1.0798  0.9177
  135SAPE   O2214585   4.889   2.355  10.288  0.0632 -0.0369  0.4467
  135SAPE   C2214586   4.981   2.167  10.156  0.3039 -0.0181 -0.3653
  135SAPE   H2R14587   4.903   2.197  10.082  0.6228  3.8618  0.7650
  135SAPE   H2S14588   5.070   2.165  10.089 -0.6787  1.1991 -1.7423
  135SAPE    C314589   5.297   2.415  10.395  0.3042 -0.3215  0.0643
  135SAPE    HX14590   5.321   2.321  10.449  1.4511  0.1365  0.3765
  135SAPE    HY14591   5.325   2.498  10.463 -2.9629  2.1480 -1.5013
  135SAPE   O3114592   5.361   2.434  10.269  0.1713 -0.1357 -0.1026
  135SAPE   C3114593   5.398   2.326  10.210 -0.1537 -0.3890  1.3685
  135SAPE   O3214594   5.386   2.210  10.246 -0.4418  0.1867  0.1111
  135SAPE   C3214595   5.462   2.360  10.072  0.2239 -0.0212  0.4737
  135SAPE   H2X14596   5.567   2.388  10.094  0.8428 -2.2464  0.4466
  135SAPE   H2Y14597   5.411   2.449  10.027 -1.3348 -1.1547 -0.0725
  135SAPE   C2314598   4.959   2.038  10.234  0.3120 -0.5713  0.0755
  135SAPE   H3R14599   4.884   2.052  10.315  0.5346 -1.2738  0.4043
  135SAPE   H3S14600   5.048   2.011  10.295 -0.6729  0.8373  2.1970
  135SAPE   C2414601   4.910   1.924  10.143 -0.3334  0.1187 -1.0770
  135SAPE   H4R14602   4.964   1.939  10.047  2.4224  2.2117  0.7083
  135SAPE   H4S14603   4.805   1.944  10.115 -0.4155 -1.8639 -2.2512
  135SAPE   C2514604   4.927   1.785  10.198  0.0011  0.3062  0.0022
  135SAPE   H5R14605   4.829   1.755  10.238 -0.8763  0.6656 -1.8383
  135SAPE   C2614606   5.025   1.694  10.214 -0.2311 -0.6539 -0.2368
  135SAPE   H6R14607   5.005   1.594  10.256 -0.4088 -1.1517 -1.5134
  135SAPE   C2714608   5.166   1.720  10.178  0.2956  0.7432 -0.1063
  135SAPE   H7R14609   5.200   1.823  10.203 -0.1066  1.2400 -1.6075
  135SAPE   H7S14610   5.164   1.716  10.067  1.1389  1.8971 -0.1709
  135SAPE   C2814611   5.267   1.620  10.229  0.0316  0.5165 -0.6886
  135SAPE   H8R14612   5.257   1.602  10.337  1.4149 -0.6559 -0.7476
  135SAPE   C2914613   5.369   1.554  10.170  0.4991  0.4265  0.6391
  135SAPE   H9R14614   5.442   1.499  10.231 -0.9736 -1.6307  0.6094
  135SAPE  C21014615   5.396   1.566  10.020 -0.1791  0.3619  1.1189
  135SAPE  H10R14616   5.506   1.571  10.004 -0.3358  0.2187 -0.1009
  135SAPE  H10S14617   5.359   1.662   9.979  2.7392  0.4863 -1.4558
  135SAPE  C21114618   5.341   1.449   9.941 -0.9014 -0.4699  0.0289
  135SAPE  H11R14619   5.360   1.354   9.993  0.5104 -1.1984 -1.7444
  135SAPE  C21214620   5.272   1.441   9.826  0.0738 -0.0817  0.2735
  135SAPE  H12R14621   5.242   1.344   9.785 -2.0501  0.5783  0.1890
  135SAPE  C21314622   5.231   1.557   9.744  0.2633 -0.2434 -0.4411
  135SAPE  H13R14623   5.237   1.529   9.637 -0.0274  2.6007 -1.2328
  135SAPE  H13S14624   5.303   1.641   9.760 -1.9456  1.4713  0.8608
  135SAPE  C21414625   5.091   1.608   9.777  0.3812 -0.4916 -0.4577
  135SAPE  H14R14626   5.090   1.656   9.876  2.1453  0.8460 -1.0735
  135SAPE  C21514627   4.986   1.620   9.700  0.3680 -0.0797 -0.3289
  135SAPE  H15R14628   4.903   1.688   9.725 -0.4209 -0.8285 -0.8854
  135SAPE  C21614629   4.973   1.569   9.556  0.4727 -0.2907 -0.3824
  135SAPE  H16R14630   4.877   1.514   9.543 -0.4726  1.5427 -1.4100
  135SAPE  H16S14631   5.050   1.496   9.524  0.1757 -0.0045 -1.7682
  135SAPE  C21714632   4.976   1.678   9.459  0.2675 -0.3182  1.0888
  135SAPE  H17R14633   5.058   1.751   9.481  0.4453 -0.7100  1.7366
  135SAPE  H17S14634   4.885   1.741   9.465  0.4998  0.1692 -0.2961
  135SAPE  C21814635   4.991   1.629   9.312 -0.1057  0.0812  0.1603
  135SAPE  H18R14636   4.895   1.580   9.284 -0.1369  0.9757 -1.3153
  135SAPE  H18S14637   5.068   1.550   9.301 -0.3352 -0.3010  1.2022
  135SAPE  C21914638   5.005   1.741   9.206  0.5051  0.1962 -0.3893
  135SAPE  H19R14639   5.098   1.796   9.232  0.8214 -0.2506 -0.5683
  135SAPE  H19S14640   4.912   1.799   9.224  0.9822  0.3339  1.7729
  135SAPE  C22014641   4.997   1.684   9.062  0.2624 -0.2270  0.6158
  135SAPE  H20R14642   5.077   1.612   9.032  1.6888  1.5531  0.0722
  135SAPE  H20S14643   4.997   1.775   8.998 -1.3269  1.0710  2.4003
  135SAPE  H20T14644   4.899   1.637   9.038  0.1286  0.2688  0.1679
  135SAPE   C3314645   5.481   2.237   9.982  0.0279 -0.5256  0.2888
  135SAPE   H3X14646   5.395   2.167   9.986 -0.8558  0.5957  1.4031
  135SAPE   H3Y14647   5.563   2.168  10.014  1.7443 -0.0359 -2.7724
  135SAPE   C3414648   5.488   2.268   9.828 -0.4673  0.8109  0.4602
  135SAPE   H4X14649   5.589   2.291   9.788 -0.3164  0.1608  0.4741
  135SAPE   H4Y14650   5.426   2.354   9.795 -2.4912 -1.3350 -1.5277
  135SAPE   C3514651   5.438   2.145   9.747 -0.1370  0.3130 -0.2246
  135SAPE   H5X14652   5.338   2.110   9.780  0.0818  0.6140  0.7586
  135SAPE   H5Y14653   5.510   2.066   9.774 -0.1816  1.0837  2.2380
  135SAPE   C3614654   5.434   2.164   9.591 -0.1710  0.3917 -0.1661
  135SAPE   H6X14655   5.429   2.059   9.555 -1.2607 -0.5227  2.5407
  135SAPE   H6Y14656   5.529   2.214   9.561 -0.9052  1.3357 -0.9656
  135SAPE   C3714657   5.313   2.239   9.546 -0.0879  0.3512  0.6083
  135SAPE   H7X14658   5.336   2.347   9.543  1.0123  0.0722 -3.3512
  135SAPE   H7Y14659   5.228   2.208   9.610  0.9861 -1.2488  1.3117
  135SAPE   C3814660   5.274   2.202   9.400  0.1140 -0.2198  0.2214
  135SAPE   H8X14661   5.251   2.094   9.413 -2.2840  0.0822 -1.2327
  135SAPE   H8Y14662   5.358   2.224   9.330 -1.0459 -0.0040 -1.1170
  135SAPE   C3914663   5.149   2.283   9.353  0.4763  0.1820  0.3727
  135SAPE   H9X14664   5.181   2.389   9.359  1.1618 -0.0604  1.2182
  135SAPE   H9Y14665   5.062   2.283   9.422 -0.3120  0.8479 -0.6220
  135SAPE  C31014666   5.114   2.255   9.203 -0.3531  0.5871 -0.1184
  135SAPE  H10X14667   5.210   2.276   9.150  0.4061 -1.5309  0.3993
  135SAPE  H10Y14668   5.035   2.322   9.164 -0.3061 -0.2057 -1.6344
  135SAPE  C31114669   5.073   2.112   9.182  0.2385  0.6073 -0.0649
  135SAPE  H11X14670   5.005   2.078   9.263 -0.8089 -2.4012 -2.0992
  135SAPE  H11Y14671   5.160   2.046   9.204  0.7629  1.5262  0.6266
  135SAPE  C31214672   5.019   2.075   9.044 -0.1356  0.5532  0.0333
  135SAPE  H12X14673   4.931   2.137   9.017 -0.3604  0.2623  0.0984
  135SAPE  H12Y14674   4.982   1.972   9.032  2.8115 -0.6471  0.6314
  135SAPE  C31314675   5.125   2.100   8.928 -0.5496  0.1326 -0.6119
  135SAPE  H13X14676   5.146   2.209   8.937  0.6228  0.0050 -1.6172
  135SAPE  H13Y14677   5.087   2.067   8.829  1.2798 -1.6351 -0.7477
  135SAPE  C31414678   5.267   2.048   8.951 -0.6821  0.1756 -0.6101
  135SAPE  H14X14679   5.260   1.937   8.955  0.5271  0.0911 -0.7131
  135SAPE  H14Y14680   5.291   2.080   9.055  3.2832 -1.5184 -0.9292
  135SAPE  C31514681   5.380   2.097   8.861  0.0759 -0.7056 -0.4713
  135SAPE  H15X14682   5.377   2.206   8.886  2.6057 -0.6380 -0.3018
  135SAPE  H15Y14683   5.347   2.074   8.757 -0.8256  2.8941 -1.0762
  135SAPE  C31614684   5.515   2.049   8.905  0.7968  0.4539  0.8048
  135SAPE  H16X14685   5.519   1.942   8.876 -1.4153  1.1537 -2.3137
  135SAPE  H16Y14686   5.521   2.054   9.016 -0.2105 -0.9509  0.9386
  135SAPE  C31714687   5.631   2.121   8.831  0.5024 -0.6869 -0.3598
  135SAPE  H17X14688   5.608   2.127   8.723 -1.4011  0.8146  0.0984
  135SAPE  H17Y14689   5.731   2.072   8.834  0.2234 -1.2057  2.5134
  135SAPE  C31814690   5.647   2.260   8.880  0.5735 -0.3152 -0.1154
  135SAPE  H18X14691   5.716   2.319   8.816 -0.8569  1.2046 -0.3032
  135SAPE  H18Y14692   5.679   2.271   8.986 -0.9921 -0.0057  0.3466
  135SAPE  H18Z14693   5.551   2.317   8.875 -0.7943 -2.6818 -1.6698
  136SAPE     N14694   1.434   1.878  11.113  0.3292  0.3779  0.7860
  136SAPE   HN114695   1.408   1.904  11.016 -0.5272  0.0650  0.9264
  136SAPE   HN214696   1.418   1.778  11.138 -0.3364  0.4632  0.6941
  136SAPE   HN314697   1.380   1.938  11.178 -1.1618 -0.5935  0.4751
  136SAPE   C1214698   1.584   1.901  11.125 -0.1217 -0.1283 -0.2867
  136SAPE  H12A14699   1.628   1.844  11.040 -1.4656 -0.0684 -1.0457
  136SAPE  H12B14700   1.635   1.851  11.210  1.6641 -0.1887 -1.3590
  136SAPE   C1114701   1.611   2.052  11.118  0.0446 -0.0508 -0.4344
  136SAPE  H11A14702   1.717   2.076  11.097 -0.4138  1.8919 -0.5902
  136SAPE  H11B14703   1.600   2.103  11.217  3.0328  0.8142 -0.5163
  136SAPE     P14704   1.550   2.154  10.884 -0.4498 -0.2610 -0.1755
  136SAPE   O1314705   1.422   2.143  10.808 -0.5448  0.6295 -0.3095
  136SAPE   O1414706   1.618   2.286  10.876 -0.1256 -0.0661 -0.3642
  136SAPE   O1214707   1.522   2.125  11.036 -0.9263  0.1058  0.2551
  136SAPE   O1114708   1.645   2.040  10.847 -0.1261  0.5340  0.7017
  136SAPE    C114709   1.761   2.052  10.760 -0.7918 -0.4260  1.3379
  136SAPE    HA14710   1.808   2.152  10.746  0.2003 -0.9918  0.4902
  136SAPE    HB14711   1.838   1.981  10.794 -0.3469 -1.1783 -1.1002
  136SAPE    C214712   1.730   1.992  10.620  0.1461 -0.0776 -0.3205
  136SAPE    HS14713   1.827   1.964  10.575  0.4583  1.2325 -0.4814
  136SAPE   O2114714   1.668   2.090  10.534  0.5931  0.7696 -0.8433
  136SAPE   C2114715   1.755   2.170  10.490  0.1458  0.4563  0.1088
  136SAPE   O2214716   1.877   2.176  10.511  0.2671  0.3802  0.2751
  136SAPE   C2214717   1.684   2.281  10.416 -0.1911  0.0222 -0.5499
  136SAPE   H2R14718   1.612   2.329  10.486 -0.5407  0.6339 -1.3243
  136SAPE   H2S14719   1.762   2.349  10.376  0.2031 -1.3104 -2.1114
  136SAPE    C314720   1.645   1.866  10.637  0.0429 -0.0578 -0.0785
  136SAPE    HX14721   1.545   1.896  10.676 -1.6114 -0.5074 -3.7231
  136SAPE    HY14722   1.698   1.793  10.701 -1.2543 -1.1836 -0.2725
  136SAPE   O3114723   1.628   1.810  10.500 -0.2434  0.3904  0.1297
  136SAPE   C3114724   1.517   1.839  10.429 -0.6756 -0.1324 -0.4195
  136SAPE   O3214725   1.427   1.911  10.474 -0.2303  0.4471  0.3147
  136SAPE   C3214726   1.511   1.755  10.305 -0.3265  0.0111 -0.5202
  136SAPE   H2X14727   1.430   1.686  10.339 -1.4778  1.6302  0.0714
  136SAPE   H2Y14728   1.597   1.687  10.287  0.2088  0.7757 -0.8586
  136SAPE   C2314729   1.607   2.226  10.293  0.4506  0.4338 -0.2147
  136SAPE   H3R14730   1.574   2.301  10.218  2.7140 -0.8032 -2.5485
  136SAPE   H3S14731   1.517   2.171  10.330  1.2802 -0.4335  0.5433
  136SAPE   C2414732   1.696   2.130  10.212 -0.0880  0.3639  0.2391
  136SAPE   H4R14733   1.636   2.081  10.132  0.0669 -1.5901  1.2906
  136SAPE   H4S14734   1.720   2.045  10.279 -1.0550 -1.2143 -1.3590
  136SAPE   C2514735   1.831   2.184  10.165  0.1506  0.7184 -0.2597
  136SAPE   H5R14736   1.899   2.212  10.246  2.1480 -0.3376 -1.5260
  136SAPE   C2614737   1.875   2.186  10.041  0.7703  0.0346 -0.1397
  136SAPE   H6R14738   1.969   2.242  10.028  0.0777  1.0967 -0.7246
  136SAPE   C2714739   1.802   2.147   9.916 -0.4917 -0.0792 -0.0444
  136SAPE   H7R14740   1.705   2.093   9.924 -0.5020  0.1794  1.7824
  136SAPE   H7S14741   1.870   2.094   9.847  0.4680  0.2108  0.6708
  136SAPE   C2814742   1.755   2.274   9.850 -0.4120  0.2879  0.0079
  136SAPE   H8R14743   1.757   2.366   9.910  1.0150  0.5890 -0.4760
  136SAPE   C2914744   1.714   2.277   9.718 -1.0409  0.3053  0.2492
  136SAPE   H9R14745   1.666   2.371   9.685 -0.8799  0.7397  1.2407
  136SAPE  C21014746   1.707   2.154   9.623  0.3339 -0.0105 -0.5310
  136SAPE  H10R14747   1.609   2.157   9.570  0.6023 -2.2748 -1.1895
  136SAPE  H10S14748   1.699   2.056   9.675  1.5832  0.4690  0.5701
  136SAPE  C21114749   1.838   2.166   9.548 -0.1065  0.1711  0.3359
  136SAPE  H11R14750   1.920   2.110   9.596  1.6896  1.4707 -1.1326
  136SAPE  C21214751   1.858   2.226   9.429  0.7445  0.5816 -0.3955
  136SAPE  H12R14752   1.956   2.227   9.380  1.7666 -1.9584  1.4818
  136SAPE  C21314753   1.755   2.302   9.357 -0.5644 -0.5407  0.2926
  136SAPE  H13R14754   1.800   2.402   9.342 -2.2449 -0.1500 -2.5926
  136SAPE  H13S14755   1.662   2.308   9.419 -1.2780 -1.6941 -0.6270
  136SAPE  C21414756   1.716   2.250   9.220  0.9128  0.1113 -0.5638
  136SAPE  H14R14757   1.619   2.200   9.218  1.4254 -0.8706 -1.6868
  136SAPE  C21514758   1.768   2.294   9.099  0.6184 -0.1106  0.1929
  136SAPE  H15R14759   1.735   2.252   9.003 -0.2800  2.5545 -0.7228
  136SAPE  C21614760   1.889   2.385   9.082  0.1688  0.0436 -0.1171
  136SAPE  H16R14761   1.930   2.412   9.182  1.3976 -1.5557 -0.1824
  136SAPE  H16S14762   1.858   2.483   9.039 -2.3248 -0.4543  0.5284
  136SAPE  C21714763   1.997   2.317   9.003 -0.2037  0.5315 -0.2855
  136SAPE  H17R14764   2.068   2.396   8.968 -0.2791  0.6019 -0.2781
  136SAPE  H17S14765   1.951   2.269   8.914 -0.0136 -1.7430  0.8212
  136SAPE  C21814766   2.077   2.229   9.098  0.0374 -0.0075  0.6135
  136SAPE  H18R14767   2.010   2.145   9.125  2.0126 -1.2001  1.9174
  136SAPE  H18S14768   2.101   2.280   9.194  2.8611  0.4673 -0.2891
  136SAPE  C21914769   2.208   2.176   9.036  1.1897 -0.3985 -0.2357
  136SAPE  H19R14770   2.273   2.262   9.007 -1.9407  2.8981  2.1145
  136SAPE  H19S14771   2.175   2.116   8.948 -0.5922  2.4037 -1.5648
  136SAPE  C22014772   2.292   2.079   9.125  0.4468 -0.0884  0.2902
  136SAPE  H20R14773   2.239   1.981   9.125  2.1968 -1.1104 -2.8653
  136SAPE  H20S14774   2.310   2.110   9.230  0.7151  0.5033  0.0711
  136SAPE  H20T14775   2.385   2.062   9.068  0.3743  0.3512  0.0365
  136SAPE   C3314776   1.458   1.831  10.183  0.1779  0.1905  0.4070
  136SAPE   H3X14777   1.464   1.942  10.192  1.1321  0.1692  0.1165
  136SAPE   H3Y14778   1.355   1.796  10.160  0.3080 -0.2101  0.4391
  136SAPE   C3414779   1.539   1.800  10.059  0.6146  0.0083 -0.1578
  136SAPE   H4X14780   1.557   1.691  10.043 -0.3885 -0.3452  1.0647
  136SAPE   H4Y14781   1.638   1.849  10.065  0.4598  0.6685 -2.5955
  136SAPE   C3514782   1.471   1.851   9.932 -0.9005 -0.9283 -0.1647
  136SAPE   H5X14783   1.461   1.961   9.940  1.6716 -0.7215  0.7570
  136SAPE   H5Y14784   1.383   1.784   9.919 -1.0224 -0.7488 -0.2649
  136SAPE   C3614785   1.559   1.815   9.804 -0.0781 -0.6005 -0.3009
  136SAPE   H6X14786   1.600   1.712   9.809 -0.3328 -0.6750  0.2897
  136SAPE   H6Y14787   1.649   1.880   9.812 -1.6336  1.4542  1.0783
  136SAPE   C3714788   1.499   1.840   9.670 -0.1501 -0.7121  0.6016
  136SAPE   H7X14789   1.578   1.805   9.599  1.3159  1.7735  0.9488
  136SAPE   H7Y14790   1.475   1.943   9.638  0.5986 -0.7775 -0.1767
  136SAPE   C3814791   1.379   1.743   9.644  0.0643  0.3244  0.1860
  136SAPE   H8X14792   1.294   1.773   9.709 -1.0393  0.2321 -1.1817
  136SAPE   H8Y14793   1.407   1.639   9.671  0.3003  0.1965 -0.5376
  136SAPE   C3914794   1.338   1.739   9.499 -0.1254  0.0321  1.1024
  136SAPE   H9X14795   1.247   1.678   9.484  1.8771 -2.2627 -2.6825
  136SAPE   H9Y14796   1.411   1.692   9.429 -2.1872 -0.1814 -0.9655
  136SAPE  C31014797   1.299   1.876   9.444 -0.0368 -0.4628  0.1058
  136SAPE  H10X14798   1.390   1.912   9.392  0.8368 -0.8397  1.3573
  136SAPE  H10Y14799   1.268   1.946   9.525 -1.5309  0.8637 -1.5628
  136SAPE  C31114800   1.185   1.870   9.342  0.0045 -0.4148 -0.0353
  136SAPE  H11X14801   1.158   1.970   9.301 -1.0071 -0.6768 -0.0269
  136SAPE  H11Y14802   1.094   1.823   9.385 -0.2183  0.3584  0.3492
  136SAPE  C31214803   1.218   1.783   9.222 -0.0453 -0.1410 -0.2913
  136SAPE  H12X14804   1.206   1.679   9.260  0.7653 -0.9258 -2.1291
  136SAPE  H12Y14805   1.321   1.809   9.190 -0.0299  0.6853  0.4025
  136SAPE  C31314806   1.119   1.785   9.106 -0.7210 -0.0486 -0.3712
  136SAPE  H13X14807   1.106   1.891   9.075  1.5289  0.1277 -0.8418
  136SAPE  H13Y14808   1.022   1.742   9.139 -1.4209  2.8618  1.5885
  136SAPE  C31414809   1.170   1.699   8.984 -0.3526 -0.2411  0.1735
  136SAPE  H14X14810   1.206   1.598   9.014  0.4601  0.0058  0.0419
  136SAPE  H14Y14811   1.262   1.748   8.947  1.1659 -2.7139  0.5127
  136SAPE  C31514812   1.068   1.693   8.876  0.7305 -0.1090  0.1615
  136SAPE  H15X14813   1.120   1.672   8.780  0.2180 -1.7002  0.2086
  136SAPE  H15Y14814   1.016   1.791   8.872  2.3803  0.7776  0.4591
  136SAPE  C31614815   0.977   1.567   8.893 -0.3101 -0.0867  0.0937
  136SAPE  H16X14816   0.960   1.556   9.002 -2.7647 -0.6572 -0.3255
  136SAPE  H16Y14817   1.039   1.483   8.856 -0.4944 -0.2911  0.2506
  136SAPE  C31714818   0.847   1.565   8.816  0.8524 -0.7041 -0.4996
  136SAPE  H17X14819   0.792   1.469   8.828 -2.9083  1.6449  2.1522
  136SAPE  H17Y14820   0.879   1.573   8.710  1.1374  0.3380 -0.3416
  136SAPE  C31814821   0.747   1.673   8.843  0.2076  0.1186 -0.7925
  136SAPE  H18X14822   0.791   1.766   8.886  1.0422 -0.9863  0.7931
  136SAPE  H18Y14823   0.673   1.639   8.918  0.3820  1.8747  0.1988
  136SAPE  H18Z14824   0.698   1.682   8.744 -0.2026  1.2285 -0.5047
  137SAPE     N14825   6.792   5.250  10.900  0.0436  0.5726  0.2322
  137SAPE   HN114826   6.751   5.194  10.822  0.6396 -0.0680  0.3753
  137SAPE   HN214827   6.807   5.349  10.870  0.6817  0.5957  0.6159
  137SAPE   HN314828   6.886   5.208  10.917 -0.6898 -0.9685  0.5219
  137SAPE   C1214829   6.697   5.246  11.016  0.6472  0.3303 -0.6733
  137SAPE  H12A14830   6.729   5.312  11.100  0.7673 -0.6399  0.0647
  137SAPE  H12B14831   6.689   5.141  11.054  0.5510  0.5462 -0.0851
  137SAPE   C1114832   6.549   5.280  10.976 -0.2995  0.4371 -0.2367
  137SAPE  H11A14833   6.499   5.281  11.075  0.1763  0.9094  0.0045
  137SAPE  H11B14834   6.516   5.199  10.909 -2.2576 -0.1556  1.4104
  137SAPE     P14835   6.422   5.447  10.836 -0.2296  0.0616 -0.0775
  137SAPE   O1314836   6.315   5.347  10.857 -0.1813 -0.0763 -0.4452
  137SAPE   O1414837   6.399   5.586  10.884 -0.4112  0.5698 -0.0220
  137SAPE   O1214838   6.548   5.405  10.917 -0.4549 -0.1507 -0.4145
  137SAPE   O1114839   6.461   5.447  10.689  0.8222 -0.5504  0.2100
  137SAPE    C114840   6.544   5.348  10.637 -0.1801  0.5471  0.0386
  137SAPE    HA14841   6.647   5.363  10.675 -0.4412 -0.3167  1.0888
  137SAPE    HB14842   6.504   5.248  10.661 -0.6955  0.2035 -2.1010
  137SAPE    C214843   6.551   5.370  10.481  0.3098 -0.0539  0.2924
  137SAPE    HS14844   6.547   5.480  10.466  2.0043 -0.0037  0.1930
  137SAPE   O2114845   6.443   5.295  10.411  0.7454  0.4728  0.0925
  137SAPE   C2114846   6.380   5.364  10.321 -0.3699 -0.8311 -0.1147
  137SAPE   O2214847   6.405   5.479  10.281  0.1942 -0.7954  0.2990
  137SAPE   C2214848   6.272   5.270  10.262  0.2859  0.2404  0.2972
  137SAPE   H2R14849   6.320   5.181  10.217  1.7457  1.6066 -0.9305
  137SAPE   H2S14850   6.220   5.232  10.352 -2.3416 -1.4185 -1.8313
  137SAPE    C314851   6.685   5.315  10.419  0.2349  0.3505  0.0854
  137SAPE    HX14852   6.704   5.212  10.457  0.3053  0.5415  0.5681
  137SAPE    HY14853   6.764   5.388  10.445  0.3696  0.8619 -1.6742
  137SAPE   O3114854   6.690   5.308  10.275 -0.5146  0.6093 -0.8622
  137SAPE   C3114855   6.641   5.203  10.211  0.0185  0.1625  0.5441
  137SAPE   O3214856   6.582   5.110  10.268  0.1198  0.4630  0.0932
  137SAPE   C3214857   6.656   5.209  10.064 -0.3326  0.6322  0.0154
  137SAPE   H2X14858   6.647   5.109  10.018  0.2999  0.1243  0.9864
  137SAPE   H2Y14859   6.763   5.239  10.055  0.6064 -1.8349  2.4644
  137SAPE   C2314860   6.187   5.344  10.159 -0.2303  0.2606 -0.0571
  137SAPE   H3R14861   6.245   5.347  10.064 -0.3079 -0.8905 -0.1425
  137SAPE   H3S14862   6.171   5.451  10.183 -0.4313  0.0547  0.7276
  137SAPE   C2414863   6.040   5.273  10.150 -0.7356  0.0377 -0.1588
  137SAPE   H4R14864   5.986   5.329  10.071 -0.1066  0.3296 -0.3923
  137SAPE   H4S14865   5.989   5.284  10.248  1.0708  0.4195  0.7650
  137SAPE   C2514866   6.039   5.124  10.107  0.5750 -0.6584 -0.0868
  137SAPE   H5R14867   6.021   5.048  10.185  1.2647 -1.8085 -1.0314
  137SAPE   C2614868   6.042   5.084   9.979 -0.2974  0.4496 -0.6373
  137SAPE   H6R14869   6.042   4.978   9.949  0.5939  0.8061 -1.9577
  137SAPE   C2714870   6.075   5.174   9.863  0.2964 -0.3973 -0.1344
  137SAPE   H7R14871   6.185   5.190   9.870 -0.0032  1.3160  0.8917
  137SAPE   H7S14872   6.030   5.276   9.870 -1.8620 -1.2209 -1.3669
  137SAPE   C2814873   6.046   5.108   9.725  0.2106 -0.0965  0.4111
  137SAPE   H8R14874   6.019   5.002   9.728 -0.2371  0.0013 -0.0334
  137SAPE   C2914875   6.032   5.177   9.604  0.1689 -0.9675 -0.3568
  137SAPE   H9R14876   6.021   5.124   9.508 -0.2508 -1.1128 -0.2314
  137SAPE  C21014877   6.054   5.324   9.585 -0.2796  0.3434  0.3170
  137SAPE  H10R14878   6.155   5.327   9.541  0.6198 -0.8948  2.2095
  137SAPE  H10S14879   6.067   5.376   9.683  0.6940  1.4177 -0.3714
  137SAPE  C21114880   5.947   5.397   9.500  0.0676 -0.4897 -0.2159
  137SAPE  H11R14881   5.854   5.423   9.553  1.7496 -0.0077  2.6288
  137SAPE  C21214882   5.974   5.433   9.370 -0.3502  0.1960 -1.1721
  137SAPE  H12R14883   5.888   5.475   9.316 -0.9894  1.1450  0.5468
  137SAPE  C21314884   6.109   5.413   9.300  0.2391 -0.5752  0.9669
  137SAPE  H13R14885   6.135   5.308   9.276  1.0300  0.7639 -4.5369
  137SAPE  H13S14886   6.192   5.447   9.365 -0.4453  0.9099  1.0968
  137SAPE  C21414887   6.114   5.488   9.162 -0.5331 -0.3268  0.4482
  137SAPE  H14R14888   6.146   5.593   9.161 -1.7358  0.0550 -1.7322
  137SAPE  C21514889   6.110   5.436   9.042 -0.2810 -0.3670 -0.2779
  137SAPE  H15R14890   6.141   5.493   8.953 -0.3099  0.2104  0.0824
  137SAPE  C21614891   6.107   5.290   9.000  0.6126  0.5542 -0.0828
  137SAPE  H16R14892   6.025   5.273   8.927  1.1790 -0.1531 -0.5597
  137SAPE  H16S14893   6.082   5.228   9.089 -1.0154 -0.0322 -0.9348
  137SAPE  C21714894   6.246   5.234   8.954 -0.7579  0.0850  0.5341
  137SAPE  H17R14895   6.219   5.130   8.927  0.8054 -0.0243 -0.7200
  137SAPE  H17S14896   6.322   5.250   9.033  0.5163 -1.6914 -0.2923
  137SAPE  C21814897   6.304   5.298   8.820  0.0643  0.3857  0.6170
  137SAPE  H18R14898   6.402   5.248   8.807 -0.6123 -0.3775 -1.7626
  137SAPE  H18S14899   6.322   5.405   8.844 -0.4965  0.2759  1.5478
  137SAPE  C21914900   6.220   5.266   8.695 -1.1102  0.8839 -0.2055
  137SAPE  H19R14901   6.118   5.304   8.716 -1.2070  0.0149  0.9689
  137SAPE  H19S14902   6.213   5.157   8.677  0.2964  1.0125 -1.6372
  137SAPE  C22014903   6.282   5.316   8.566 -0.3717  0.3763  0.2163
  137SAPE  H20R14904   6.271   5.424   8.542 -0.6978  0.0986 -0.8738
  137SAPE  H20S14905   6.237   5.256   8.485 -1.3739 -0.8046  1.6111
  137SAPE  H20T14906   6.392   5.306   8.559 -0.7546 -4.2244 -0.3474
  137SAPE   C3314907   6.559   5.310  10.000  0.9362  0.2205 -0.7447
  137SAPE   H3X14908   6.568   5.415  10.034  1.6498  1.0796 -3.4587
  137SAPE   H3Y14909   6.456   5.274  10.019  0.9210 -0.1768 -1.5283
  137SAPE   C3414910   6.591   5.320   9.847 -0.6254  0.3214  0.7652
  137SAPE   H4X14911   6.576   5.218   9.806  2.9861  0.6943 -1.7193
  137SAPE   H4Y14912   6.701   5.338   9.844 -0.3195 -1.6675 -0.8929
  137SAPE   C3514913   6.502   5.424   9.782 -0.0437 -0.3618  0.0890
  137SAPE   H5X14914   6.517   5.530   9.809 -1.7252 -0.4573  1.4260
  137SAPE   H5Y14915   6.399   5.398   9.813 -1.0365  0.0429 -2.7590
  137SAPE   C3614916   6.496   5.399   9.627  0.1272 -0.7743  0.2153
  137SAPE   H6X14917   6.418   5.461   9.578 -2.7211 -1.5677  3.5337
  137SAPE   H6Y14918   6.452   5.298   9.614 -0.5787 -0.3523 -0.8237
  137SAPE   C3714919   6.626   5.422   9.553  0.0605  0.2567  0.0297
  137SAPE   H7X14920   6.721   5.371   9.575 -0.3914 -1.0356 -0.9423
  137SAPE   H7Y14921   6.647   5.530   9.570  2.7685 -0.3061  0.4578
  137SAPE   C3814922   6.608   5.406   9.400  0.4174 -0.0746  0.5971
  137SAPE   H8X14923   6.517   5.469   9.386  1.5515  1.4879  0.1202
  137SAPE   H8Y14924   6.583   5.301   9.371 -2.0017  0.9175 -1.0674
  137SAPE   C3914925   6.717   5.465   9.308  0.1397 -0.0194 -0.5724
  137SAPE   H9X14926   6.810   5.404   9.314 -1.3535 -2.2987 -0.0742
  137SAPE   H9Y14927   6.735   5.573   9.330 -2.4261  0.2362  0.4573
  137SAPE  C31014928   6.674   5.452   9.160  0.3628 -0.7764 -0.1321
  137SAPE  H10X14929   6.572   5.488   9.135 -0.0453 -1.8113 -0.0160
  137SAPE  H10Y14930   6.660   5.344   9.136 -1.8580 -0.4327 -0.5548
  137SAPE  C31114931   6.775   5.516   9.062  0.1852  0.0759 -0.4955
  137SAPE  H11X14932   6.876   5.482   9.093 -0.4793 -0.9270  0.6274
  137SAPE  H11Y14933   6.770   5.627   9.071 -0.7530 -0.1019  1.7613
  137SAPE  C31214934   6.758   5.479   8.915  0.1633 -0.6593  0.0053
  137SAPE  H12X14935   6.648   5.494   8.907  0.3695  1.2307  0.4684
  137SAPE  H12Y14936   6.796   5.376   8.896 -1.6645 -1.4720  0.6222
  137SAPE  C31314937   6.827   5.581   8.823 -0.3188 -0.2821  0.5598
  137SAPE  H13X14938   6.927   5.610   8.862 -1.5223  1.8773  2.1016
  137SAPE  H13Y14939   6.768   5.674   8.829 -2.3961 -1.6156  1.5021
  137SAPE  C31414940   6.832   5.536   8.690  0.3110  0.5169  0.4893
  137SAPE  H14X14941   6.734   5.528   8.638  0.9413 -0.0875 -0.6187
  137SAPE  H14Y14942   6.887   5.441   8.680  0.5213  0.6565  0.3203
  137SAPE  C31514943   6.907   5.634   8.607 -0.3264  0.0455 -0.0812
  137SAPE  H15X14944   7.003   5.666   8.654  0.2691 -0.3149 -1.0440
  137SAPE  H15Y14945   6.849   5.729   8.610 -1.5760 -0.7108  0.4159
  137SAPE  C31614946   6.935   5.590   8.461  0.1268 -0.1215 -0.0472
  137SAPE  H16X14947   6.839   5.583   8.406  0.1326 -1.3699  0.0794
  137SAPE  H16Y14948   6.976   5.487   8.452 -1.5761 -0.9273  1.1051
  137SAPE  C31714949   7.040   5.682   8.392  0.1950  0.4434  0.1281
  137SAPE  H17X14950   7.137   5.668   8.444  0.9691  5.0170  0.1496
  137SAPE  H17Y14951   7.018   5.788   8.418  0.8669  1.1227 -1.9829
  137SAPE  C31814952   7.052   5.662   8.243  0.4393  0.1753 -0.0105
  137SAPE  H18X14953   7.091   5.563   8.211  1.8457  0.6950  0.0451
  137SAPE  H18Y14954   7.114   5.737   8.189 -1.3718  0.1442 -2.1882
  137SAPE  H18Z14955   6.950   5.671   8.201 -0.9197 -1.4307  2.8144
  138SAPE     N14956   2.369   5.856  10.579 -0.3858 -0.1872 -0.0949
  138SAPE   HN114957   2.415   5.798  10.505  1.2609 -2.1662  2.3978
  138SAPE   HN214958   2.339   5.802  10.662  0.4201 -0.6438 -0.0972
  138SAPE   HN314959   2.280   5.891  10.537  1.6067  1.4266 -3.1435
  138SAPE   C1214960   2.465   5.960  10.614 -0.6745 -0.4341  0.9722
  138SAPE  H12A14961   2.424   6.035  10.686 -1.0362 -0.6751  1.0170
  138SAPE  H12B14962   2.482   6.021  10.523  1.7486 -3.1327 -0.4390
  138SAPE   C1114963   2.597   5.908  10.669 -0.1703  0.5848 -0.4284
  138SAPE  H11A14964   2.637   5.832  10.599 -1.4258 -1.1967  0.7459
  138SAPE  H11B14965   2.572   5.860  10.766 -1.1464  0.7307 -0.5961
  138SAPE     P14966   2.845   6.001  10.699  0.4322  0.1127 -0.0345
  138SAPE   O1314967   2.906   6.121  10.645 -0.2698 -0.0157  0.4516
  138SAPE   O1414968   2.867   5.962  10.839 -0.4051 -0.3146 -0.2792
  138SAPE   O1214969   2.686   6.021  10.681  0.1507 -0.1088 -0.3354
  138SAPE   O1114970   2.863   5.872  10.606  0.9761 -0.5859  0.0070
  138SAPE    C114971   2.968   5.834  10.515 -0.0530 -0.1910 -0.2735
  138SAPE    HA14972   3.061   5.891  10.536 -0.5959  0.2194  1.0376
  138SAPE    HB14973   2.994   5.727  10.527  0.4152  0.0291  0.6744
  138SAPE    C214974   2.922   5.853  10.366 -0.1034  0.5957  0.5207
  138SAPE    HS14975   3.014   5.861  10.304  0.5469  1.6161  1.5937
  138SAPE   O2114976   2.831   5.966  10.354 -0.5491 -0.2058  0.1950
  138SAPE   C2114977   2.905   6.067  10.344  0.0610 -0.5968  0.4855
  138SAPE   O2214978   3.026   6.087  10.346  0.0270  0.7645 -0.5949
  138SAPE   C2214979   2.813   6.185  10.314  0.3461 -0.7649  0.3598
  138SAPE   H2R14980   2.711   6.158  10.347 -0.4495  1.1309 -0.4765
  138SAPE   H2S14981   2.850   6.270  10.375  0.5713  0.0977 -0.9476
  138SAPE    C314982   2.852   5.729  10.306  0.2591 -0.1422 -0.1418
  138SAPE    HX14983   2.749   5.727  10.349  0.3909  0.6471  0.2155
  138SAPE    HY14984   2.897   5.636  10.347  0.8025  0.0374 -0.3366
  138SAPE   O3114985   2.830   5.731  10.163  0.3112 -0.0336 -0.0368
  138SAPE   C3114986   2.930   5.705  10.088 -0.2051  1.0331  0.5864
  138SAPE   O3214987   3.051   5.696  10.125  0.0402 -0.0759 -0.3504
  138SAPE   C3214988   2.885   5.675   9.946 -0.1120 -0.5153 -0.1205
  138SAPE   H2X14989   2.807   5.746   9.910 -1.9346 -2.0465  0.6765
  138SAPE   H2Y14990   2.828   5.580   9.958  0.5850 -1.1706 -1.7716
  138SAPE   C2314991   2.817   6.238  10.172 -0.2282  0.8546 -0.3347
  138SAPE   H3R14992   2.916   6.279  10.143 -0.0541  1.2481  0.8041
  138SAPE   H3S14993   2.759   6.332  10.163 -2.0670 -0.3337 -1.4577
  138SAPE   C2414994   2.744   6.153  10.068  0.4494  0.1385  0.4178
  138SAPE   H4R14995   2.716   6.221   9.984  1.2280 -0.0815 -0.0166
  138SAPE   H4S14996   2.650   6.122  10.119 -1.4733  0.2817 -2.9465
  138SAPE   C2514997   2.810   6.035  10.006 -0.3917 -0.5097 -0.0669
  138SAPE   H5R14998   2.832   5.960  10.083 -0.1366  1.7857  2.1367
  138SAPE   C2614999   2.845   6.018   9.880 -0.1143  0.2636  0.4689
  138SAPE   H6R15000   2.910   5.933   9.851  0.7615  1.9758 -2.8692
  138SAPE   C2715001   2.826   6.108   9.763 -0.6622  0.0982 -0.5636
  138SAPE   H7R15002   2.731   6.164   9.776  0.5960  1.8813  1.1592
  138SAPE   H7S15003   2.807   6.062   9.664  0.1502  0.5136 -0.9201
  138SAPE   C2815004   2.940   6.202   9.734  0.2314  0.0915 -0.1264
  138SAPE   H8R15005   2.948   6.289   9.800  2.2753 -1.3993  1.6333
  138SAPE   C2915006   3.041   6.177   9.649  0.1563 -0.5276  1.2696
  138SAPE   H9R15007   3.103   6.266   9.630 -0.2963 -0.9222 -2.5318
  138SAPE  C21015008   3.060   6.057   9.560 -0.9350  0.6458  0.3192
  138SAPE  H10R15009   2.972   5.988   9.560 -0.9325  0.6015 -1.6842
  138SAPE  H10S15010   3.157   6.010   9.586 -0.3071  1.6542 -0.2054
  138SAPE  C21115011   3.072   6.095   9.413 -0.0179  0.9476  0.0987
  138SAPE  H11R15012   3.171   6.065   9.375 -0.3635  0.4151 -0.3887
  138SAPE  C21215013   2.973   6.139   9.327  0.2160  0.5974  0.3296
  138SAPE  H12R15014   3.005   6.156   9.224 -0.7599 -1.5216 -0.3459
  138SAPE  C21315015   2.828   6.147   9.352  0.2377 -0.3525  0.4191
  138SAPE  H13R15016   2.794   6.252   9.364 -2.3971 -1.1408  0.3934
  138SAPE  H13S15017   2.799   6.106   9.452 -0.5616  1.1716  0.8375
  138SAPE  C21415018   2.756   6.078   9.236  0.2184  0.7413  0.3994
  138SAPE  H14R15019   2.750   5.969   9.239 -3.1737  0.9193  1.6765
  138SAPE  C21515020   2.704   6.135   9.122  0.5703  0.5952 -0.3290
  138SAPE  H15R15021   2.681   6.072   9.035 -2.4546  1.8582 -0.4910
  138SAPE  C21615022   2.717   6.279   9.078 -0.7913  0.0069 -0.0123
  138SAPE  H16R15023   2.739   6.344   9.166  1.1015  0.0877 -0.5119
  138SAPE  H16S15024   2.620   6.314   9.038 -0.1105 -1.4003 -3.0132
  138SAPE  C21715025   2.834   6.282   8.977 -0.7830  0.1511 -0.2035
  138SAPE  H17R15026   2.921   6.227   9.018 -1.5568 -0.2920  0.8626
  138SAPE  H17S15027   2.883   6.382   8.970  0.4724 -0.3598  1.0793
  138SAPE  C21815028   2.788   6.238   8.842 -0.0209  0.7088  0.3552
  138SAPE  H18R15029   2.690   6.289   8.830 -1.4870 -1.6147  2.3203
  138SAPE  H18S15030   2.771   6.129   8.846  1.4334  0.4452 -0.4030
  138SAPE  C21915031   2.861   6.288   8.726 -0.1796 -1.0171  0.7018
  138SAPE  H19R15032   2.854   6.399   8.727 -0.4482 -1.0152 -0.8958
  138SAPE  H19S15033   2.809   6.269   8.630  0.7841  1.1216 -0.2961
  138SAPE  C22015034   3.011   6.260   8.704  0.2835  0.1254  0.6618
  138SAPE  H20R15035   3.042   6.337   8.630  2.0811 -1.2098 -0.0170
  138SAPE  H20S15036   3.028   6.158   8.663  0.9819  0.7573 -0.6221
  138SAPE  H20T15037   3.066   6.283   8.799 -0.5272 -0.4747  1.2830
  138SAPE   C3315038   3.002   5.662   9.846  0.0110 -0.7146 -0.6400
  138SAPE   H3X15039   3.089   5.603   9.883 -0.0916 -0.8139 -0.5619
  138SAPE   H3Y15040   3.034   5.764   9.816  0.1300 -0.4656  0.3159
  138SAPE   C3415041   2.954   5.591   9.725 -0.3734  0.3680  0.3955
  138SAPE   H4X15042   2.897   5.501   9.757  0.9354 -1.3577 -1.9733
  138SAPE   H4Y15043   3.049   5.554   9.680 -0.5588  0.0279  0.2869
  138SAPE   C3515044   2.883   5.678   9.623  0.2527 -0.8437 -0.4131
  138SAPE   H5X15045   2.932   5.770   9.585 -3.2579  0.8159 -1.1023
  138SAPE   H5Y15046   2.787   5.718   9.663  0.5105 -2.1203  1.5408
  138SAPE   C3615047   2.852   5.611   9.490 -0.0374 -0.6786 -0.0214
  138SAPE   H6X15048   2.787   5.521   9.493  3.4787 -3.4563 -3.1452
  138SAPE   H6Y15049   2.948   5.598   9.436 -0.4917  0.2605 -1.0918
  138SAPE   C3715050   2.772   5.700   9.398  0.1477  0.1698 -0.0683
  138SAPE   H7X15051   2.788   5.807   9.421 -3.1617  0.4038  1.4471
  138SAPE   H7Y15052   2.666   5.684   9.425  0.5699  0.0049  1.5408
  138SAPE   C3815053   2.814   5.674   9.246 -0.7026  0.5689 -0.4503
  138SAPE   H8X15054   2.734   5.725   9.188 -0.5850 -0.6681 -1.7090
  138SAPE   H8Y15055   2.808   5.566   9.220 -1.9145  0.7422 -0.9259
  138SAPE   C3915056   2.953   5.726   9.215  0.3216  0.4900  0.3644
  138SAPE   H9X15057   3.026   5.661   9.266  0.0805 -0.1783 -0.1410
  138SAPE   H9Y15058   2.957   5.825   9.266 -0.8515 -0.1796  1.7852
  138SAPE  C31015059   2.968   5.747   9.065 -0.9487 -0.3137 -0.5145
  138SAPE  H10X15060   2.970   5.645   9.020  0.0186  0.1740 -1.6034
  138SAPE  H10Y15061   3.072   5.782   9.049 -1.0008  0.3125  0.4938
  138SAPE  C31115062   2.873   5.842   8.984  0.0476 -0.3005 -0.5585
  138SAPE  H11X15063   2.889   5.948   9.015 -1.5665  0.7951 -3.2818
  138SAPE  H11Y15064   2.771   5.799   8.993  0.5934 -1.5077 -0.1028
  138SAPE  C31215065   2.910   5.851   8.833 -0.1278 -0.5810 -0.4154
  138SAPE  H12X15066   2.852   5.934   8.787  0.6274 -0.5129 -1.2688
  138SAPE  H12Y15067   2.889   5.751   8.792  0.2971 -0.6738 -0.3994
  138SAPE  C31315068   3.056   5.880   8.808  0.0264  0.2648  0.1942
  138SAPE  H13X15069   3.121   5.795   8.839 -1.6253 -1.3155 -0.5525
  138SAPE  H13Y15070   3.100   5.969   8.858  0.6051  0.1817 -0.1454
  138SAPE  C31415071   3.088   5.886   8.653 -0.1964  0.1415 -0.6056
  138SAPE  H14X15072   3.188   5.929   8.630  1.1337 -1.3187  2.1025
  138SAPE  H14Y15073   3.016   5.953   8.603  0.8766  2.4490  0.8757
  138SAPE  C31515074   3.087   5.746   8.577  1.0176 -0.0706 -0.0905
  138SAPE  H15X15075   2.991   5.745   8.521  0.8369  1.0543  0.1872
  138SAPE  H15Y15076   3.081   5.660   8.648 -5.6965  0.2532  0.0501
  138SAPE  C31615077   3.208   5.725   8.494  0.4912  0.3480  0.6087
  138SAPE  H16X15078   3.299   5.709   8.555  1.2335  1.3838 -0.2191
  138SAPE  H16Y15079   3.231   5.822   8.445  1.0224  0.4913  1.1240
  138SAPE  C31715080   3.188   5.612   8.394  0.3968 -0.2061 -0.4922
  138SAPE  H17X15081   3.247   5.629   8.301  0.6561  2.4841  0.1324
  138SAPE  H17Y15082   3.079   5.604   8.372  0.3651  0.3384 -0.5465
  138SAPE  C31815083   3.236   5.470   8.440  0.0010  0.5390  0.4432
  138SAPE  H18X15084   3.343   5.472   8.469  0.5847 -1.7653 -1.4170
  138SAPE  H18Y15085   3.231   5.406   8.349 -0.4399 -0.8565  1.4277
  138SAPE  H18Z15086   3.175   5.422   8.519  1.0808 -0.3360  0.7676
  139SAPE     N15087   3.115   3.714  10.585  0.6408 -0.3515  0.2485
  139SAPE   HN115088   3.097   3.639  10.515  0.5221 -0.7127  0.6683
  139SAPE   HN215089   3.093   3.797  10.525 -1.1092  1.2734  3.0281
  139SAPE   HN315090   3.215   3.718  10.611  0.0180 -0.4887  2.7335
  139SAPE   C1215091   3.029   3.722  10.705  0.0699  0.6103 -0.0239
  139SAPE  H12A15092   3.078   3.666  10.788 -0.3159 -0.6543 -0.6415
  139SAPE  H12B15093   2.937   3.670  10.673  1.1575 -0.7378 -1.0335
  139SAPE   C1115094   2.999   3.861  10.757  0.2290 -0.1858 -0.0596
  139SAPE  H11A15095   3.101   3.896  10.787 -0.1747  0.9012  0.0649
  139SAPE  H11B15096   2.945   3.851  10.853 -0.6937 -3.5803 -0.8626
  139SAPE     P15097   2.897   4.086  10.709  0.0655 -0.2973  0.1652
  139SAPE   O1315098   2.830   4.085  10.841 -0.1970 -0.6359  0.2681
  139SAPE   O1415099   3.011   4.169  10.689 -0.2449  0.4488 -0.2267
  139SAPE   O1215100   2.933   3.939  10.658 -0.2202 -0.2774 -0.1452
  139SAPE   O1115101   2.779   4.129  10.612 -0.3394 -0.1348 -0.3384
  139SAPE    C115102   2.786   4.115  10.467 -0.0494  0.1545  0.1022
  139SAPE    HA15103   2.883   4.071  10.437  1.0251  0.9964  2.2504
  139SAPE    HB15104   2.698   4.056  10.432 -0.3384 -0.1634  1.3358
  139SAPE    C215105   2.783   4.244  10.384  0.2809 -0.3476 -1.0928
  139SAPE    HS15106   2.859   4.305  10.437 -0.8604 -0.3642  0.6039
  139SAPE   O2115107   2.658   4.312  10.397 -0.0787  0.8790 -0.1725
  139SAPE   C2115108   2.670   4.442  10.348  1.2307  0.2995 -0.3652
  139SAPE   O2215109   2.776   4.500  10.339  0.4482 -0.0200  0.3661
  139SAPE   C2215110   2.537   4.490  10.292  0.2310  0.2824 -0.1694
  139SAPE   H2R15111   2.457   4.439  10.350  0.8062  1.3871  1.6496
  139SAPE   H2S15112   2.517   4.599  10.299  1.8719  0.6461 -1.0097
  139SAPE    C315113   2.832   4.210  10.242  0.4982 -0.4391  0.2159
  139SAPE    HX15114   2.931   4.160  10.248 -0.8014 -3.0413  0.6341
  139SAPE    HY15115   2.834   4.308  10.190 -2.5672  0.7014  2.1076
  139SAPE   O3115116   2.738   4.135  10.164  0.2497 -0.7919 -0.3095
  139SAPE   C3115117   2.737   4.009  10.169 -0.5730  1.2501 -0.8040
  139SAPE   O3215118   2.820   3.937  10.229 -0.0619  0.3907  0.1448
  139SAPE   C3215119   2.616   3.967  10.084 -0.2110  0.5790 -0.6549
  139SAPE   H2X15120   2.620   4.008   9.980  0.3169  0.1186 -0.8171
  139SAPE   H2Y15121   2.522   3.996  10.135  0.4882  0.5728  0.6375
  139SAPE   C2315122   2.513   4.434  10.152 -0.5984  0.4951  0.4491
  139SAPE   H3R15123   2.409   4.451  10.117 -0.7824 -3.1766 -1.0203
  139SAPE   H3S15124   2.536   4.325  10.151  2.1740  1.0329  0.0415
  139SAPE   C2415125   2.605   4.499  10.055 -0.5467  0.4935 -0.1184
  139SAPE   H4R15126   2.711   4.465  10.058 -0.6865  0.0317 -0.4840
  139SAPE   H4S15127   2.608   4.608  10.077 -1.3623  0.4709  0.1132
  139SAPE   C2515128   2.557   4.477   9.912  0.4913 -0.4062  0.5128
  139SAPE   H5R15129   2.487   4.395   9.889 -1.0955  1.0403  0.1324
  139SAPE   C2615130   2.601   4.557   9.812 -0.4444  0.1547  0.5244
  139SAPE   H6R15131   2.565   4.523   9.714  3.2290 -1.7400 -0.2622
  139SAPE   C2715132   2.688   4.680   9.817  0.2873 -0.9013  0.2543
  139SAPE   H7R15133   2.729   4.691   9.714  2.5334 -0.0416  1.2041
  139SAPE   H7S15134   2.775   4.667   9.886  0.2504 -1.6789  0.1678
  139SAPE   C2815135   2.589   4.795   9.860 -0.3030 -0.1345 -0.1225
  139SAPE   H8R15136   2.581   4.826   9.965 -3.0827 -2.6563  0.4634
  139SAPE   C2915137   2.539   4.878   9.767  0.5656 -0.6829 -0.6039
  139SAPE   H9R15138   2.480   4.963   9.806  2.0448  0.5423 -1.0045
  139SAPE  C21015139   2.548   4.872   9.615  0.5704  0.8141 -0.1824
  139SAPE  H10R15140   2.519   4.766   9.596  0.7653  0.7300 -0.0240
  139SAPE  H10S15141   2.657   4.877   9.595  0.7147 -0.6990  0.1305
  139SAPE  C21115142   2.471   4.975   9.541 -0.4960  0.0788 -0.1953
  139SAPE  H11R15143   2.367   4.981   9.577  0.1307  0.0942  1.6715
  139SAPE  C21215144   2.520   5.059   9.446  0.4180 -0.1529  0.1251
  139SAPE  H12R15145   2.454   5.139   9.409 -0.0052  0.7977  2.8098
  139SAPE  C21315146   2.659   5.056   9.389 -0.1278 -0.3718 -0.4699
  139SAPE  H13R15147   2.640   5.050   9.280 -0.9111  3.1206 -0.5637
  139SAPE  H13S15148   2.716   4.968   9.426  0.5880 -0.0602 -0.8275
  139SAPE  C21415149   2.739   5.178   9.425 -0.7528 -0.2608  0.4224
  139SAPE  H14R15150   2.761   5.194   9.532 -1.7764  1.5058  0.3786
  139SAPE  C21515151   2.781   5.268   9.335  0.3854  1.0219  0.2592
  139SAPE  H15R15152   2.846   5.351   9.368  0.0356  1.8409 -1.0793
  139SAPE  C21615153   2.767   5.279   9.189 -0.6018 -0.6094  0.1221
  139SAPE  H16R15154   2.700   5.362   9.159 -0.0810  0.1175  0.9594
  139SAPE  H16S15155   2.727   5.185   9.146 -1.8442 -0.4458  0.9123
  139SAPE  C21715156   2.899   5.306   9.110 -0.5922  0.4804  0.4870
  139SAPE  H17R15157   2.972   5.231   9.144  0.2994  1.2997  0.4044
  139SAPE  H17S15158   2.924   5.408   9.148 -1.2520 -0.6823  4.2052
  139SAPE  C21815159   2.885   5.292   8.956 -0.2909  0.5253 -0.2675
  139SAPE  H18R15160   2.978   5.305   8.897  0.4655 -0.1412  0.7748
  139SAPE  H18S15161   2.822   5.380   8.928 -1.5822  0.5114  2.4665
  139SAPE  C21915162   2.810   5.165   8.909  0.2294  0.2558 -0.1716
  139SAPE  H19R15163   2.700   5.175   8.925  0.2695  4.6688 -2.1218
  139SAPE  H19S15164   2.847   5.080   8.971  0.0864 -0.5160 -1.1186
  139SAPE  C22015165   2.835   5.147   8.760  0.1255  0.5996  0.3492
  139SAPE  H20R15166   2.772   5.060   8.731  1.0912  0.7992 -2.5677
  139SAPE  H20S15167   2.939   5.120   8.733 -0.4026 -0.0051 -1.1907
  139SAPE  H20T15168   2.813   5.238   8.700 -0.1450 -0.1668 -0.7292
  139SAPE   C3315169   2.611   3.818  10.051  0.1236 -0.1718  0.2651
  139SAPE   H3X15170   2.568   3.756  10.133  2.7583 -1.0043  1.0430
  139SAPE   H3Y15171   2.711   3.785  10.016  0.6137  1.4175  0.1489
  139SAPE   C3415172   2.510   3.795   9.932 -0.0383  0.2226  0.2021
  139SAPE   H4X15173   2.519   3.876   9.856  0.1170  0.6196  0.6412
  139SAPE   H4Y15174   2.404   3.772   9.958 -0.1107 -0.8258 -0.9283
  139SAPE   C3515175   2.553   3.667   9.850 -0.0679  0.0858  0.5273
  139SAPE   H5X15176   2.558   3.583   9.922 -0.5615  0.3020  0.8188
  139SAPE   H5Y15177   2.657   3.685   9.814 -0.4482 -1.6890 -1.4690
  139SAPE   C3615178   2.456   3.625   9.737 -0.3207  0.3701  0.1087
  139SAPE   H6X15179   2.355   3.604   9.777 -0.0214 -0.9533  0.1946
  139SAPE   H6Y15180   2.496   3.527   9.703 -0.1363  0.4252  0.1658
  139SAPE   C3715181   2.450   3.713   9.615 -0.0692 -0.2691  0.7408
  139SAPE   H7X15182   2.556   3.738   9.592  0.0524 -0.7886  0.7380
  139SAPE   H7Y15183   2.397   3.807   9.642 -0.3371 -0.1276 -0.2503
  139SAPE   C3815184   2.388   3.640   9.496 -0.4079  0.5239  0.0371
  139SAPE   H8X15185   2.278   3.626   9.504 -0.9543  3.9999 -0.4790
  139SAPE   H8Y15186   2.440   3.542   9.482  0.5608  1.1151 -0.5710
  139SAPE   C3915187   2.417   3.720   9.363  0.5601 -0.8366  0.5471
  139SAPE   H9X15188   2.527   3.724   9.349  0.5378 -1.5811  0.0887
  139SAPE   H9Y15189   2.377   3.823   9.374  0.4991 -0.6454 -1.3045
  139SAPE  C31015190   2.362   3.657   9.236 -0.1658  0.6474  0.3208
  139SAPE  H10X15191   2.251   3.655   9.240 -0.2102 -0.0179 -0.9122
  139SAPE  H10Y15192   2.391   3.550   9.234  0.3971  0.8064 -1.9873
  139SAPE  C31115193   2.417   3.712   9.103 -0.6220 -0.0635 -0.3217
  139SAPE  H11X15194   2.527   3.715   9.110 -0.5704  2.2106 -1.6913
  139SAPE  H11Y15195   2.385   3.816   9.084 -0.0102 -0.0101 -1.0389
  139SAPE  C31215196   2.376   3.617   8.994  0.3382 -0.2640  0.3004
  139SAPE  H12X15197   2.270   3.635   8.966 -0.0754  1.1888  2.6982
  139SAPE  H12Y15198   2.388   3.509   9.018 -0.0010 -0.5693 -0.8506
  139SAPE  C31315199   2.466   3.636   8.867 -0.0642 -0.1607  0.3819
  139SAPE  H13X15200   2.574   3.635   8.890  0.4009 -4.6240 -1.6193
  139SAPE  H13Y15201   2.437   3.734   8.823 -2.2207 -0.9224  0.0212
  139SAPE  C31415202   2.457   3.543   8.742 -0.6348 -0.0460 -0.4090
  139SAPE  H14X15203   2.359   3.547   8.690 -0.5284  0.4790 -0.5731
  139SAPE  H14Y15204   2.498   3.441   8.758  0.5696  0.5257  0.2365
  139SAPE  C31515205   2.560   3.603   8.641  0.0971 -0.4102  0.4668
  139SAPE  H15X15206   2.664   3.590   8.679 -0.4252 -0.3488  1.9526
  139SAPE  H15Y15207   2.536   3.711   8.632 -0.0176 -0.3655  1.2733
  139SAPE  C31615208   2.561   3.535   8.496  0.3302 -0.1192 -0.4400
  139SAPE  H16X15209   2.473   3.570   8.438 -0.3729 -0.9995  0.0890
  139SAPE  H16Y15210   2.658   3.575   8.460 -0.9526  1.4112 -2.3422
  139SAPE  C31715211   2.568   3.381   8.503  0.4166  0.5140 -0.1079
  139SAPE  H17X15212   2.462   3.349   8.513  0.7993 -1.0371 -0.8240
  139SAPE  H17Y15213   2.613   3.355   8.602 -0.2888 -1.6003 -0.3214
  139SAPE  C31815214   2.641   3.331   8.384  0.2494 -0.1584 -0.9517
  139SAPE  H18X15215   2.589   3.368   8.293 -0.0577  1.6928 -0.0358
  139SAPE  H18Y15216   2.650   3.220   8.385 -1.5686 -0.3064  0.7635
  139SAPE  H18Z15217   2.744   3.374   8.384  0.6073 -1.0064  0.9126
  140SAPE     N15218   5.591   1.108  11.237 -0.0471  0.5618 -0.1765
  140SAPE   HN115219   5.550   1.082  11.330  0.5236 -0.0027 -0.0798
  140SAPE   HN215220   5.690   1.080  11.255 -0.3550 -0.8990 -0.7340
  140SAPE   HN315221   5.575   1.209  11.222  2.6472  0.9069 -0.9300
  140SAPE   C1215222   5.515   1.033  11.136 -0.2105  0.3743  0.2747
  140SAPE  H12A15223   5.529   0.926  11.164 -1.4567 -0.7047 -2.9226
  140SAPE  H12B15224   5.564   1.061  11.040 -0.2012  1.6763  0.6568
  140SAPE   C1115225   5.369   1.071  11.135 -0.4863 -0.3017 -0.5158
  140SAPE  H11A15226   5.316   1.044  11.228 -2.1622 -0.1973 -1.4237
  140SAPE  H11B15227   5.332   1.007  11.052 -0.5368 -1.5612  0.4633
  140SAPE     P15228   5.216   1.248  11.037  0.2938 -0.1003 -0.0330
  140SAPE   O1315229   5.096   1.189  11.101 -0.6269 -0.3818 -0.5184
  140SAPE   O1415230   5.216   1.398  11.034 -0.2488 -0.5147 -0.8076
  140SAPE   O1215231   5.343   1.208  11.115  0.4852 -0.5332  0.6120
  140SAPE   O1115232   5.236   1.198  10.887 -0.6285  0.4000  0.0830
  140SAPE    C115233   5.363   1.246  10.823 -0.3712  0.4268  0.4770
  140SAPE    HA15234   5.358   1.335  10.757  0.1734  0.5439  0.5855
  140SAPE    HB15235   5.439   1.260  10.903  1.1565 -2.4305 -0.3780
  140SAPE    C215236   5.412   1.133  10.723  0.0904 -0.3679  0.0295
  140SAPE    HS15237   5.463   1.054  10.782  0.8784 -1.8346 -2.5360
  140SAPE   O2115238   5.502   1.188  10.625  0.0554  0.3057 -0.4863
  140SAPE   C2115239   5.614   1.228  10.675  0.4918 -0.4891  0.3616
  140SAPE   O2215240   5.657   1.190  10.784  0.2228  0.4480 -0.1983
  140SAPE   C2215241   5.678   1.321  10.584  0.0185  0.3608  0.0121
  140SAPE   H2R15242   5.602   1.391  10.542 -2.1632  0.6704  4.2545
  140SAPE   H2S15243   5.758   1.376  10.638  0.2889  0.8490 -0.8659
  140SAPE    C315244   5.285   1.062  10.650 -0.0314  0.5435  0.0361
  140SAPE    HX15245   5.230   1.019  10.737  1.2793 -1.3538 -0.0428
  140SAPE    HY15246   5.323   0.985  10.580 -2.4778 -0.0319 -0.7113
  140SAPE   O3115247   5.203   1.162  10.582 -0.6117 -0.7728 -0.2636
  140SAPE   C3115248   5.126   1.117  10.488 -0.7199 -0.2916  0.4368
  140SAPE   O3215249   5.116   0.995  10.462  0.7384 -0.5437 -0.0134
  140SAPE   C3215250   5.060   1.231  10.408 -0.4839  0.3859  0.3119
  140SAPE   H2X15251   5.131   1.313  10.382 -0.8536  0.5437 -0.1954
  140SAPE   H2Y15252   4.975   1.271  10.467 -0.7842  1.2067 -0.6659
  140SAPE   C2315253   5.745   1.238  10.468 -0.1143  0.4008 -0.2123
  140SAPE   H3R15254   5.679   1.208  10.384  1.0713 -3.0407  0.0197
  140SAPE   H3S15255   5.777   1.142  10.514  0.7979  0.7033 -0.2192
  140SAPE   C2415256   5.870   1.306  10.407  0.0559  0.6055 -0.1450
  140SAPE   H4R15257   5.910   1.229  10.338 -2.0594  0.4794 -1.2964
  140SAPE   H4S15258   5.954   1.330  10.475 -0.4458 -1.0337  1.0747
  140SAPE   C2515259   5.813   1.422  10.333  0.2250  0.4344  0.9679
  140SAPE   H5R15260   5.799   1.516  10.389  0.8745  1.4366 -0.5322
  140SAPE   C2615261   5.771   1.422  10.205  0.1294 -1.0960 -0.0025
  140SAPE   H6R15262   5.733   1.519  10.172  1.4086 -0.6619 -0.2462
  140SAPE   C2715263   5.760   1.307  10.110 -0.0900 -0.3775 -0.1078
  140SAPE   H7R15264   5.662   1.300  10.057 -0.7142  2.4129  0.6053
  140SAPE   H7S15265   5.763   1.209  10.162 -0.8155 -0.4159 -0.1309
  140SAPE   C2815266   5.865   1.306  10.003 -0.6410 -1.2569  0.4701
  140SAPE   H8R15267   5.957   1.252  10.030 -1.1118 -2.2423  0.1581
  140SAPE   C2915268   5.855   1.355   9.878  0.4697  0.3917  0.7937
  140SAPE   H9R15269   5.940   1.342   9.810 -0.6847 -1.8580 -0.2506
  140SAPE  C21015270   5.728   1.422   9.827 -0.0950  1.3180  0.4292
  140SAPE  H10R15271   5.744   1.484   9.736 -1.2288 -0.7163 -1.1983
  140SAPE  H10S15272   5.678   1.483   9.905  0.3673  1.5216  0.5689
  140SAPE  C21115273   5.633   1.310   9.784  0.6892  0.8492  0.8205
  140SAPE  H11R15274   5.566   1.264   9.858  0.0095  1.4433  0.5808
  140SAPE  C21215275   5.631   1.251   9.664 -0.0601 -0.6803 -0.0885
  140SAPE  H12R15276   5.554   1.172   9.659  0.0586 -0.7381 -1.1222
  140SAPE  C21315277   5.716   1.271   9.537  0.2338 -0.6345  0.5138
  140SAPE  H13R15278   5.815   1.231   9.567 -0.3406 -1.0742  1.8502
  140SAPE  H13S15279   5.721   1.381   9.522  2.0988 -0.8800 -0.7589
  140SAPE  C21415280   5.661   1.200   9.421  0.2292 -0.2398  0.1665
  140SAPE  H14R15281   5.615   1.101   9.435 -2.0117  0.4319 -2.0767
  140SAPE  C21515282   5.673   1.243   9.291  0.1305  0.0047 -0.0773
  140SAPE  H15R15283   5.642   1.171   9.214 -2.0896 -0.5438  1.2743
  140SAPE  C21615284   5.744   1.372   9.250  0.3125 -0.1720 -0.4114
  140SAPE  H16R15285   5.800   1.425   9.330 -2.8496  0.2714  1.5810
  140SAPE  H16S15286   5.673   1.451   9.214  2.6973  2.8172  1.1909
  140SAPE  C21715287   5.837   1.363   9.121 -0.0691 -0.7037 -0.3859
  140SAPE  H17R15288   5.882   1.463   9.099  3.0360 -1.8642  0.3999
  140SAPE  H17S15289   5.775   1.333   9.034  0.1638 -0.6819 -0.5605
  140SAPE  C21815290   5.934   1.248   9.124 -0.0327  0.9633  0.3660
  140SAPE  H18R15291   5.991   1.237   9.029  2.0362  2.2612  1.4166
  140SAPE  H18S15292   5.876   1.153   9.128  1.5441 -0.1192 -1.5212
  140SAPE  C21915293   6.033   1.248   9.244 -0.1582  0.0847  0.0760
  140SAPE  H19R15294   6.103   1.163   9.231 -0.3887 -0.0806 -0.1117
  140SAPE  H19S15295   5.967   1.230   9.332 -2.1158  1.6245 -1.0271
  140SAPE  C22015296   6.110   1.377   9.273 -1.0970 -0.1380 -0.1975
  140SAPE  H20R15297   6.155   1.420   9.180  0.3959  1.4985  1.2454
  140SAPE  H20S15298   6.197   1.354   9.339  0.0527  0.9552 -1.2895
  140SAPE  H20T15299   6.043   1.454   9.317 -0.8278  0.3998 -0.7145
  140SAPE   C3315300   5.000   1.184  10.272  0.9478 -0.1495 -0.5960
  140SAPE   H3X15301   4.905   1.131  10.294  1.6934 -0.5310  1.7371
  140SAPE   H3Y15302   5.061   1.102  10.228  1.0104 -0.8735  0.8220
  140SAPE   C3415303   4.990   1.292  10.159  0.3555  0.2259  0.1497
  140SAPE   H4X15304   5.084   1.351  10.166 -0.5528  1.9317 -1.4888
  140SAPE   H4Y15305   4.906   1.358  10.191  0.7322  0.8404 -0.1168
  140SAPE   C3515306   4.978   1.242  10.015  0.7085 -0.5450 -0.2287
  140SAPE   H5X15307   5.073   1.193   9.981  1.4147  1.0349 -0.5680
  140SAPE   H5Y15308   4.961   1.334   9.957  0.5397 -0.8787 -0.7092
  140SAPE   C3615309   4.865   1.140  10.004 -0.8617 -0.4122  0.0047
  140SAPE   H6X15310   4.766   1.186  10.026 -0.5833 -0.0717  0.5700
  140SAPE   H6Y15311   4.889   1.063  10.080  1.2286  0.2513  0.0553
  140SAPE   C3715312   4.862   1.073   9.861 -0.4794 -0.3539  0.1652
  140SAPE   H7X15313   4.819   0.971   9.863  2.7102 -1.7700 -0.6980
  140SAPE   H7Y15314   4.967   1.065   9.825  0.3334  0.2912  2.3093
  140SAPE   C3815315   4.800   1.161   9.754 -0.1021 -0.3757  0.1232
  140SAPE   H8X15316   4.866   1.250   9.742 -0.2895  0.3167  3.8473
  140SAPE   H8Y15317   4.696   1.196   9.769  0.6098  1.6468  0.5112
  140SAPE   C3915318   4.803   1.081   9.626  0.6501 -0.8311 -0.6207
  140SAPE   H9X15319   4.733   0.995   9.635 -1.5430  1.0036  0.2896
  140SAPE   H9Y15320   4.905   1.038   9.610  1.0712 -0.0448 -0.0431
  140SAPE  C31015321   4.768   1.156   9.501 -0.3663  0.0757  0.7571
  140SAPE  H10X15322   4.827   1.250   9.500  0.4128 -0.4147 -1.1191
  140SAPE  H10Y15323   4.663   1.184   9.524 -1.3423 -3.5552  0.9489
  140SAPE  C31115324   4.793   1.068   9.383 -0.2793  0.8790  0.0390
  140SAPE  H11X15325   4.772   0.962   9.407  0.0560  0.8606  0.2408
  140SAPE  H11Y15326   4.902   1.063   9.365 -0.3400 -2.1328  0.2794
  140SAPE  C31215327   4.731   1.111   9.250  0.2631  0.2215  0.3454
  140SAPE  H12X15328   4.771   1.052   9.164 -0.8538 -0.1242  0.0633
  140SAPE  H12Y15329   4.770   1.213   9.229  2.7634 -0.1952  2.5837
  140SAPE  C31315330   4.579   1.104   9.230 -0.9197 -0.8393 -0.1616
  140SAPE  H13X15331   4.514   1.159   9.301 -2.0086 -1.1563 -0.8905
  140SAPE  H13Y15332   4.540   1.001   9.243  0.7219 -1.8162 -2.5080
  140SAPE  C31415333   4.543   1.161   9.096 -0.0588 -0.6876  0.1073
  140SAPE  H14X15334   4.613   1.245   9.074  1.0095 -2.3575 -3.1323
  140SAPE  H14Y15335   4.437   1.194   9.097  0.4961  1.1215  0.8036
  140SAPE  C31515336   4.545   1.062   8.979  0.1533 -0.0472 -0.6055
  140SAPE  H15X15337   4.490   0.971   9.011 -0.5048  1.0660  1.5960
  140SAPE  H15Y15338   4.644   1.022   8.948  0.3818  2.1264 -2.8209
  140SAPE  C31615339   4.475   1.106   8.849 -0.3502 -0.2825 -0.1827
  140SAPE  H16X15340   4.515   1.204   8.816  0.2895 -0.2297  0.7350
  140SAPE  H16Y15341   4.367   1.122   8.873 -0.0953  1.3030 -0.0243
  140SAPE  C31715342   4.490   1.004   8.743  0.6088 -0.3740  0.0065
  140SAPE  H17X15343   4.441   0.910   8.773  2.4117 -2.0594 -2.1192
  140SAPE  H17Y15344   4.594   0.967   8.733  0.0699 -1.4827 -1.7463
  140SAPE  C31815345   4.424   1.043   8.610  0.2896  0.6457 -0.2416
  140SAPE  H18X15346   4.313   1.052   8.614  0.4138  1.3181  1.7665
  140SAPE  H18Y15347   4.436   0.964   8.532  0.3358 -2.0393  2.3558
  140SAPE  H18Z15348   4.467   1.134   8.564  0.6014  0.5381 -0.1602
  141SAPE     N15349   5.132   1.890  10.901 -0.4175  0.7814 -0.0930
  141SAPE   HN115350   5.132   1.974  10.840 -0.3381  0.7340 -0.1594
  141SAPE   HN215351   5.208   1.824  10.874  1.2895  2.9152 -0.7021
  141SAPE   HN315352   5.037   1.850  10.907 -0.4262  0.8382  0.1228
  141SAPE   C1215353   5.164   1.930  11.045  0.3359 -0.0966  0.3763
  141SAPE  H12A15354   5.144   1.832  11.094  1.2214  0.4603  1.8850
  141SAPE  H12B15355   5.088   2.006  11.072 -0.0217 -0.0404 -0.7624
  141SAPE   C1115356   5.302   1.999  11.061  0.5640  0.4062  0.0863
  141SAPE  H11A15357   5.311   2.039  11.165  2.7868  0.4156 -0.0919
  141SAPE  H11B15358   5.311   2.086  10.993 -0.6459 -0.6149 -1.4190
  141SAPE     P15359   5.530   1.940  10.954  0.1567 -0.0760 -0.3139
  141SAPE   O1315360   5.604   2.048  11.019 -0.2540 -0.1130 -0.7148
  141SAPE   O1415361   5.607   1.822  10.915 -0.1093  0.1834 -0.4631
  141SAPE   O1215362   5.397   1.893  11.031 -0.0665  0.0630 -0.5780
  141SAPE   O1115363   5.475   2.003  10.826 -0.4947  0.3079 -0.0587
  141SAPE    C115364   5.460   1.942  10.702 -0.1350 -0.0610  0.5102
  141SAPE    HA15365   5.468   1.831  10.706 -1.3146 -0.2707 -2.0218
  141SAPE    HB15366   5.363   1.972  10.659  1.1466  1.5976 -1.3208
  141SAPE    C215367   5.580   1.976  10.606 -0.3592  0.7706 -0.0671
  141SAPE    HS15368   5.668   1.935  10.660 -2.1541 -2.4474  0.5371
  141SAPE   O2115369   5.591   2.119  10.584  0.5214  0.0549 -0.7339
  141SAPE   C2115370   5.709   2.171  10.622  0.1452  0.0019  0.3791
  141SAPE   O2215371   5.799   2.113  10.678 -0.2650 -0.3503  0.3196
  141SAPE   C2215372   5.711   2.316  10.571  0.1473 -0.2148 -0.4270
  141SAPE   H2R15373   5.631   2.375  10.621  1.3727  0.9249  0.1847
  141SAPE   H2S15374   5.801   2.359  10.619  0.2536 -0.8661 -0.0371
  141SAPE    C315375   5.572   1.895  10.466  0.0015 -0.4111 -0.5587
  141SAPE    HX15376   5.483   1.945  10.421 -0.1505  0.4250  0.6249
  141SAPE    HY15377   5.535   1.791  10.473  1.5982 -0.9550 -0.1452
  141SAPE   O3115378   5.696   1.901  10.391  0.0631 -0.6166 -0.5201
  141SAPE   C3115379   5.787   1.815  10.426  0.3672 -0.0290 -0.0705
  141SAPE   O3215380   5.776   1.733  10.511 -0.4564 -0.3655  0.0086
  141SAPE   C3215381   5.908   1.841  10.341  0.3188 -0.3494  0.2365
  141SAPE   H2X15382   5.989   1.789  10.396  0.1761  0.5603  1.3225
  141SAPE   H2Y15383   5.941   1.946  10.335  1.3158 -0.4482  3.2413
  141SAPE   C2315384   5.714   2.327  10.421 -0.2989  0.2586 -0.8787
  141SAPE   H3R15385   5.712   2.431  10.382 -0.4928  0.4551 -0.3523
  141SAPE   H3S15386   5.629   2.274  10.373  0.4469  1.5817 -3.7760
  141SAPE   C2415387   5.848   2.262  10.361 -0.8908 -0.1634  0.1188
  141SAPE   H4R15388   5.860   2.166  10.416 -2.0524 -0.3703  0.0154
  141SAPE   H4S15389   5.932   2.331  10.383 -1.1674  0.5347 -0.9787
  141SAPE   C2515390   5.822   2.252  10.213 -0.1177  0.5431  0.0620
  141SAPE   H5R15391   5.734   2.198  10.176 -0.5793  0.3729  1.3660
  141SAPE   C2615392   5.899   2.305  10.115 -0.8631 -0.5879 -0.2876
  141SAPE   H6R15393   5.860   2.301  10.012 -1.3976  0.2462 -0.1248
  141SAPE   C2715394   6.031   2.382  10.134  0.9235 -1.0348 -0.7019
  141SAPE   H7R15395   6.119   2.316  10.123 -1.6074 -4.0061 -4.0561
  141SAPE   H7S15396   6.037   2.414  10.241 -2.0768  0.0171 -0.7954
  141SAPE   C2815397   6.020   2.513  10.053 -0.9834  0.2050  0.1566
  141SAPE   H8R15398   5.977   2.605  10.096 -1.1067  0.0763  0.3068
  141SAPE   C2915399   6.059   2.512   9.924  0.7530  0.4856 -0.8909
  141SAPE   H9R15400   6.073   2.614   9.885  0.1715  0.5616 -0.9056
  141SAPE  C21015401   6.109   2.394   9.847 -1.2989 -0.3068 -0.8470
  141SAPE  H10R15402   6.089   2.420   9.740 -0.4323  1.3881 -0.6280
  141SAPE  H10S15403   6.051   2.302   9.867 -2.3572  0.6736  0.7040
  141SAPE  C21115404   6.251   2.363   9.868  0.2871 -0.1939 -0.3015
  141SAPE  H11R15405   6.260   2.344   9.976  0.8118 -0.6891 -0.4248
  141SAPE  C21215406   6.352   2.352   9.780 -0.0766  0.8351  0.2969
  141SAPE  H12R15407   6.450   2.319   9.816 -1.0208  1.4520  3.5647
  141SAPE  C21315408   6.343   2.374   9.631 -0.4656 -0.3575  0.2887
  141SAPE  H13R15409   6.260   2.444   9.605  1.9014  1.9338 -1.3691
  141SAPE  H13S15410   6.329   2.279   9.576 -1.1131  0.9118 -1.8041
  141SAPE  C21415411   6.470   2.436   9.585 -0.2899 -0.4929 -1.1987
  141SAPE  H14R15412   6.563   2.429   9.644 -0.7329  0.7724 -0.3097
  141SAPE  C21515413   6.494   2.476   9.457 -0.3819  0.0072  0.2216
  141SAPE  H15R15414   6.589   2.523   9.429 -0.0566  0.4507  2.0092
  141SAPE  C21615415   6.396   2.465   9.344 -0.3609  0.3385  0.5468
  141SAPE  H16R15416   6.303   2.413   9.374 -0.3680 -1.2276 -2.0942
  141SAPE  H16S15417   6.415   2.397   9.259  0.0690  1.2276 -0.0825
  141SAPE  C21715418   6.374   2.600   9.274  0.2003 -0.5512  0.2622
  141SAPE  H17R15419   6.335   2.683   9.337  0.0090  0.0251 -0.6097
  141SAPE  H17S15420   6.307   2.590   9.186 -0.2176 -0.8078  0.6003
  141SAPE  C21815421   6.507   2.651   9.213  0.1279 -0.0721 -0.6559
  141SAPE  H18R15422   6.543   2.579   9.137  1.8407  0.9904 -0.8848
  141SAPE  H18S15423   6.592   2.672   9.281  0.9355  1.5747 -2.1183
  141SAPE  C21915424   6.485   2.782   9.141  0.0408 -0.2917 -0.4786
  141SAPE  H19R15425   6.441   2.856   9.211 -0.6753 -1.3486  0.2087
  141SAPE  H19S15426   6.413   2.767   9.058  0.6586 -2.4470 -0.6448
  141SAPE  C22015427   6.615   2.834   9.080  1.0535  0.4759 -0.0045
  141SAPE  H20R15428   6.691   2.855   9.158  2.4820 -0.2225 -1.1846
  141SAPE  H20S15429   6.607   2.933   9.030  1.2261  0.3826 -0.2203
  141SAPE  H20T15430   6.649   2.760   9.004  0.1729 -0.4500  0.4885
  141SAPE   C3315431   5.898   1.776  10.196 -0.0386  0.5129 -0.6027
  141SAPE   H3X15432   5.835   1.686  10.215  1.3476  0.4255  4.0712
  141SAPE   H3Y15433   5.998   1.739  10.166 -0.6765 -1.5657 -0.2214
  141SAPE   C3415434   5.821   1.860  10.097 -0.4178  0.3793  0.2586
  141SAPE   H4X15435   5.873   1.958  10.088  1.8420 -0.8970 -1.0365
  141SAPE   H4Y15436   5.723   1.864  10.150  0.0923 -1.1687  1.3622
  141SAPE   C3515437   5.817   1.789   9.962 -0.0016  0.7113 -0.8168
  141SAPE   H5X15438   5.759   1.694   9.968 -0.0037  0.7826  0.4719
  141SAPE   H5Y15439   5.921   1.781   9.923  1.2672  0.5363  2.4408
  141SAPE   C3615440   5.735   1.872   9.860  0.3083  0.1150 -0.3428
  141SAPE   H6X15441   5.782   1.972   9.871  1.5148 -0.5853  0.9346
  141SAPE   H6Y15442   5.628   1.885   9.888  0.5648 -0.7617  1.0707
  141SAPE   C3715443   5.735   1.819   9.712 -0.0833  0.4359  0.5353
  141SAPE   H7X15444   5.823   1.758   9.683 -0.4790 -0.4987  1.2609
  141SAPE   H7Y15445   5.740   1.917   9.660  2.4794  1.1792  2.0998
  141SAPE   C3815446   5.605   1.736   9.681 -0.3767 -0.2395  0.7064
  141SAPE   H8X15447   5.528   1.816   9.682  0.0794  0.2014  1.4065
  141SAPE   H8Y15448   5.575   1.662   9.758 -1.6936 -0.1602  0.2820
  141SAPE   C3915449   5.605   1.666   9.542 -0.4229 -0.1386  0.4520
  141SAPE   H9X15450   5.670   1.576   9.547  0.5744  0.3142 -3.1251
  141SAPE   H9Y15451   5.647   1.722   9.456 -1.9263 -1.9299 -1.4909
  141SAPE  C31015452   5.466   1.614   9.482 -0.3516  0.5169  0.2040
  141SAPE  H10X15453   5.415   1.543   9.551  2.0690 -0.9323  0.5412
  141SAPE  H10Y15454   5.472   1.554   9.390  0.4656 -0.0848  0.6484
  141SAPE  C31115455   5.361   1.728   9.464 -0.0810  0.5848 -0.0573
  141SAPE  H11X15456   5.340   1.783   9.558  2.8107  2.2310 -0.2951
  141SAPE  H11Y15457   5.270   1.671   9.437  0.1965 -0.2942  0.8492
  141SAPE  C31215458   5.394   1.824   9.355  0.4813 -0.8660 -0.3797
  141SAPE  H12X15459   5.472   1.884   9.406 -1.0327  0.5884  0.2769
  141SAPE  H12Y15460   5.317   1.900   9.330 -0.3286 -1.6195 -0.2003
  141SAPE  C31315461   5.452   1.766   9.225  0.0778 -0.0996  0.5740
  141SAPE  H13X15462   5.543   1.708   9.252  0.2650  0.6748  1.6354
  141SAPE  H13Y15463   5.482   1.851   9.159 -0.6624 -1.3382 -1.4071
  141SAPE  C31415464   5.361   1.675   9.144  0.0857 -0.0400  0.2278
  141SAPE  H14X15465   5.264   1.715   9.106 -0.1445 -0.4167  0.4142
  141SAPE  H14Y15466   5.333   1.598   9.220  0.8016 -0.9407 -0.4129
  141SAPE  C31515467   5.439   1.607   9.030 -0.4027  0.7675  0.0901
  141SAPE  H15X15468   5.548   1.592   9.042 -0.1467  0.3647 -2.3652
  141SAPE  H15Y15469   5.422   1.660   8.933 -0.0614  2.5460  0.9784
  141SAPE  C31615470   5.387   1.464   8.997  0.2540  0.8022  0.0992
  141SAPE  H16X15471   5.276   1.464   8.995  0.2799  1.3336 -1.9700
  141SAPE  H16Y15472   5.419   1.382   9.066 -1.6715 -1.7734 -1.9433
  141SAPE  C31715473   5.419   1.413   8.853 -0.3049 -0.2610  0.1447
  141SAPE  H17X15474   5.376   1.477   8.773 -0.2224 -1.0508 -0.5454
  141SAPE  H17Y15475   5.369   1.315   8.837 -0.7743  0.4508 -3.1514
  141SAPE  C31815476   5.571   1.393   8.834 -0.1359  0.0924  1.1571
  141SAPE  H18X15477   5.627   1.485   8.860  1.7779 -0.6750 -0.1079
  141SAPE  H18Y15478   5.583   1.364   8.727 -3.0640  2.0185  0.2456
  141SAPE  H18Z15479   5.602   1.317   8.908 -1.1823 -2.3278 -0.7987
  142SAPE     N15480   5.852   1.739  11.000 -0.2750  0.2823 -0.7138
  142SAPE   HN115481   5.752   1.759  10.983 -0.8339 -1.1484  0.7582
  142SAPE   HN215482   5.909   1.823  10.980 -1.0205  0.4593 -2.1504
  142SAPE   HN315483   5.881   1.672  10.925 -0.1394 -1.8445  1.2058
  142SAPE   C1215484   5.882   1.688  11.132  0.1131  0.1338 -0.2500
  142SAPE  H12A15485   5.806   1.608  11.146  1.1138 -0.6771  0.5796
  142SAPE  H12B15486   5.857   1.767  11.206  1.1161 -0.1927  0.4488
  142SAPE   C1115487   6.025   1.633  11.134  0.0594  0.4670 -0.1079
  142SAPE  H11A15488   6.047   1.600  11.238 -2.9782 -0.7735  0.1836
  142SAPE  H11B15489   6.084   1.724  11.108  0.3695  0.2288 -0.2403
  142SAPE     P15490   6.123   1.407  11.014 -0.3607  0.1312 -0.1635
  142SAPE   O1315491   6.204   1.390  11.133 -0.6750  0.0478 -0.2881
  142SAPE   O1415492   6.039   1.294  10.963 -0.6532 -0.6046  0.5660
  142SAPE   O1215493   6.030   1.524  11.035 -0.2068 -0.5687 -0.3637
  142SAPE   O1115494   6.218   1.453  10.895  0.1158  0.5430  0.5156
  142SAPE    C115495   6.197   1.554  10.797  0.0091 -0.1410 -0.0261
  142SAPE    HA15496   6.105   1.610  10.822  0.6463  0.9894 -0.1490
  142SAPE    HB15497   6.277   1.632  10.795 -0.3632  0.2852  1.1171
  142SAPE    C215498   6.181   1.487  10.654 -0.5195  0.2364 -0.2514
  142SAPE    HS15499   6.133   1.387  10.662  0.9264 -0.6315 -2.0725
  142SAPE   O2115500   6.310   1.464  10.597  0.6681  0.3820 -0.6232
  142SAPE   C2115501   6.367   1.344  10.626  0.0434  0.3641  0.2159
  142SAPE   O2215502   6.314   1.253  10.693  0.3805 -0.6124 -0.1276
  142SAPE   C2215503   6.509   1.325  10.557 -0.1047  0.1857  0.3776
  142SAPE   H2R15504   6.515   1.402  10.477 -0.7886  0.1193  0.2651
  142SAPE   H2S15505   6.590   1.347  10.631 -0.3657  1.3068  0.3395
  142SAPE    C315506   6.101   1.589  10.563 -0.4515  0.0099 -0.7638
  142SAPE    HX15507   6.129   1.696  10.580  1.0547 -0.1333 -2.1967
  142SAPE    HY15508   5.994   1.580  10.591 -1.0978 -0.9095 -3.3908
  142SAPE   O3115509   6.102   1.542  10.423  0.1045 -0.1829 -1.0137
  142SAPE   C3115510   6.194   1.582  10.345 -0.1924  0.4849  0.1841
  142SAPE   O3215511   6.262   1.680  10.374 -0.7304 -0.4877  0.2596
  142SAPE   C3215512   6.200   1.504  10.217 -0.1058 -0.4222 -0.0316
  142SAPE   H2X15513   6.106   1.517  10.159  0.4715 -0.1858 -0.9151
  142SAPE   H2Y15514   6.216   1.398  10.248  0.5491  0.5436  3.0805
  142SAPE   C2315515   6.533   1.192  10.490 -0.3398 -0.5775 -0.7289
  142SAPE   H3R15516   6.520   1.117  10.571 -2.1816  2.7227  2.1248
  142SAPE   H3S15517   6.641   1.177  10.466 -0.2155 -0.3961 -0.2912
  142SAPE   C2415518   6.444   1.154  10.372  0.1684 -0.9020 -0.4250
  142SAPE   H4R15519   6.475   1.205  10.279  0.8788 -1.6622 -0.6041
  142SAPE   H4S15520   6.338   1.180  10.395 -0.0002 -1.0227 -1.0693
  142SAPE   C2515521   6.441   1.007  10.339 -0.1518  0.0559  0.3742
  142SAPE   H5R15522   6.393   0.947  10.418  0.6243 -1.2937 -0.1659
  142SAPE   C2615523   6.503   0.943  10.243  0.0219 -0.1003  0.7160
  142SAPE   H6R15524   6.497   0.833  10.243  0.5213 -0.1302  0.0778
  142SAPE   C2715525   6.590   1.011  10.140 -0.4475 -0.4636  0.1446
  142SAPE   H7R15526   6.689   1.038  10.180  0.9800 -1.2265 -2.7441
  142SAPE   H7S15527   6.541   1.095  10.084  0.2455 -0.7227 -0.8654
  142SAPE   C2815528   6.608   0.902  10.036 -0.0146 -0.2035 -0.6468
  142SAPE   H8R15529   6.543   0.913   9.948  1.5493 -1.7422 -2.0116
  142SAPE   C2915530   6.705   0.804  10.024  0.5513 -0.4781  0.7418
  142SAPE   H9R15531   6.691   0.732   9.943  0.3997  1.5237 -1.0715
  142SAPE  C21015532   6.811   0.772  10.121 -0.3608  0.1605 -0.0001
  142SAPE  H10R15533   6.816   0.845  10.204 -1.5719  0.2149  0.0244
  142SAPE  H10S15534   6.911   0.772  10.072 -1.1021  0.9970 -1.5336
  142SAPE  C21115535   6.786   0.643  10.195  0.4185 -0.0259  0.3181
  142SAPE  H11R15536   6.719   0.655  10.281  0.8042 -0.4576  0.6847
  142SAPE  C21215537   6.838   0.534  10.149  0.1744  0.5451 -0.1564
  142SAPE  H12R15538   6.816   0.441  10.204  2.0122 -0.0600 -0.3794
  142SAPE  C21315539   6.922   0.519  10.025  0.2089  0.3908 -0.7692
  142SAPE  H13R15540   6.994   0.604  10.022 -0.1597  0.8286  1.6876
  142SAPE  H13S15541   6.852   0.528   9.939 -1.6276 -0.7441  0.5733
  142SAPE  C21415542   6.991   0.385  10.014 -0.2480  0.0602  0.0151
  142SAPE  H14R15543   7.039   0.349  10.107  0.5668 -1.0886 -0.8422
  142SAPE  C21515544   7.021   0.310   9.904  0.4857 -0.0555  0.1465
  142SAPE  H15R15545   7.036   0.201   9.913 -1.4719 -0.4098 -0.5941
  142SAPE  C21615546   6.992   0.336   9.759 -0.1425  0.0282 -1.2330
  142SAPE  H16R15547   7.058   0.284   9.686  0.2429  1.9619 -2.2994
  142SAPE  H16S15548   6.993   0.445   9.737 -1.3289 -0.1932 -2.4577
  142SAPE  C21715549   6.850   0.282   9.722  0.8646 -0.0567  0.2604
  142SAPE  H17R15550   6.767   0.315   9.788  0.9987  0.7038  0.0590
  142SAPE  H17S15551   6.860   0.173   9.739 -0.1228 -0.0981  0.5909
  142SAPE  C21815552   6.810   0.321   9.580 -0.1058 -0.1533  0.6501
  142SAPE  H18R15553   6.901   0.312   9.516 -0.6328 -1.0200  0.0074
  142SAPE  H18S15554   6.762   0.421   9.578 -0.9220 -0.5552 -1.9503
  142SAPE  C21915555   6.710   0.241   9.504  1.0540  0.4672  0.2631
  142SAPE  H19R15556   6.748   0.142   9.469  0.2041 -0.3247  1.5367
  142SAPE  H19S15557   6.697   0.293   9.407  1.7999  0.2339  0.0295
  142SAPE  C22015558   6.568   0.232   9.573 -0.5997 -0.3501  0.0171
  142SAPE  H20R15559   6.505   0.166   9.509  0.3773 -1.4390  0.1618
  142SAPE  H20S15560   6.531   0.335   9.593 -0.4463 -0.1415 -0.7397
  142SAPE  H20T15561   6.569   0.172   9.666 -1.5073  1.6675  1.3564
  142SAPE   C3315562   6.309   1.545  10.111 -0.0170  0.1780 -0.4635
  142SAPE   H3X15563   6.410   1.514  10.145  0.6041  1.8037 -0.7809
  142SAPE   H3Y15564   6.301   1.654  10.092  0.9289  0.1182 -1.2400
  142SAPE   C3415565   6.277   1.481   9.977  0.4301 -0.5978 -0.4844
  142SAPE   H4X15566   6.337   1.530   9.897  0.8309 -1.4950 -0.7458
  142SAPE   H4Y15567   6.173   1.487   9.938  0.6391  0.2050 -0.9180
  142SAPE   C3515568   6.317   1.336   9.963  0.1801 -0.1388  0.5174
  142SAPE   H5X15569   6.235   1.278  10.010 -1.2115  0.6688 -0.8700
  142SAPE   H5Y15570   6.418   1.325  10.007  1.5255  0.9906 -2.1570
  142SAPE   C3615571   6.323   1.285   9.817  0.4268  0.2315 -0.5001
  142SAPE   H6X15572   6.397   1.352   9.767  0.5305 -0.1410 -0.8525
  142SAPE   H6Y15573   6.229   1.292   9.759  0.6304  2.2278 -0.6335
  142SAPE   C3715574   6.380   1.140   9.814 -0.6156  0.4243  0.6242
  142SAPE   H7X15575   6.312   1.072   9.870  0.1490 -1.2792 -0.4715
  142SAPE   H7Y15576   6.474   1.146   9.874 -0.5891  0.9088  0.5372
  142SAPE   C3815577   6.395   1.073   9.675 -0.1121 -0.4127  0.5763
  142SAPE   H8X15578   6.455   0.982   9.692  2.0273  0.7390 -0.5546
  142SAPE   H8Y15579   6.444   1.147   9.607 -3.0724  1.5225  0.4072
  142SAPE   C3915580   6.268   1.016   9.613  0.5360  0.1797  0.1674
  142SAPE   H9X15581   6.191   1.096   9.622  1.8326  1.4282  0.2255
  142SAPE   H9Y15582   6.233   0.924   9.665  0.3867 -0.6183 -1.3160
  142SAPE  C31015583   6.292   0.987   9.469  0.0451  0.5371  0.3341
  142SAPE  H10X15584   6.394   0.942   9.470  0.6463  1.8773  0.0081
  142SAPE  H10Y15585   6.311   1.078   9.409  0.2316  0.0828 -0.3027
  142SAPE  C31115586   6.183   0.891   9.408  0.2893  0.4934 -0.2535
  142SAPE  H11X15587   6.091   0.952   9.394  0.5485  0.9492  0.0357
  142SAPE  H11Y15588   6.168   0.803   9.475 -0.9284  1.7288  1.1399
  142SAPE  C31215589   6.216   0.853   9.258 -0.1003 -0.0376  0.5244
  142SAPE  H12X15590   6.262   0.752   9.265  0.1040  0.1003  1.1714
  142SAPE  H12Y15591   6.292   0.927   9.223 -0.1319 -0.1470  0.2216
  142SAPE  C31315592   6.091   0.838   9.174 -1.0710 -0.1868  0.1308
  142SAPE  H13X15593   6.042   0.938   9.169  0.5840  0.5290 -2.7897
  142SAPE  H13Y15594   6.020   0.769   9.224 -2.3836  1.2769  0.3291
  142SAPE  C31415595   6.136   0.780   9.039  0.1448 -0.1904  0.3371
  142SAPE  H14X15596   6.164   0.673   9.035  1.4663  0.1297  0.4484
  142SAPE  H14Y15597   6.230   0.833   9.009 -0.9875  1.0003 -1.1627
  142SAPE  C31515598   6.038   0.803   8.924  0.5989  0.6476 -0.1775
  142SAPE  H15X15599   6.002   0.907   8.911  1.0931  1.0515  1.5467
  142SAPE  H15Y15600   5.946   0.748   8.951  1.0502 -0.3743 -0.6762
  142SAPE  C31615601   6.096   0.735   8.795 -0.1582 -0.8639  1.2880
  142SAPE  H16X15602   6.140   0.635   8.811  1.8849 -0.1190  0.4264
  142SAPE  H16Y15603   6.178   0.804   8.766 -0.3494 -1.4041 -0.6027
  142SAPE  C31715604   5.993   0.742   8.677  0.3963  0.6292  0.1355
  142SAPE  H17X15605   5.898   0.794   8.700 -1.5773 -2.7593 -0.1768
  142SAPE  H17Y15606   5.957   0.637   8.674 -1.5718  1.1840  2.4310
  142SAPE  C31815607   6.040   0.775   8.539  0.3757 -0.2848 -0.1483
  142SAPE  H18X15608   6.128   0.713   8.515 -0.1169  0.1428 -3.3064
  142SAPE  H18Y15609   6.063   0.882   8.519  0.9409 -0.6694 -1.6085
  142SAPE  H18Z15610   5.961   0.735   8.472 -0.3887  0.5101  0.2692
  143SAPE     N15611   2.091   1.181  10.928 -0.5281 -0.1890  0.0145
  143SAPE   HN115612   2.187   1.178  10.968 -1.2045 -0.8872  1.6320
  143SAPE   HN215613   2.056   1.095  10.880  3.8943 -1.9939 -0.2651
  143SAPE   HN315614   2.090   1.241  10.843 -2.2307 -0.6892 -0.3452
  143SAPE   C1215615   1.989   1.221  11.028 -0.1066 -0.0504 -0.2492
  143SAPE  H12A15616   2.006   1.330  11.045 -0.5123 -0.0090 -0.1158
  143SAPE  H12B15617   2.016   1.169  11.122 -0.0507  0.0501 -0.2092
  143SAPE   C1115618   1.847   1.187  10.989 -0.3578 -0.4978 -0.1047
  143SAPE  H11A15619   1.822   1.250  10.900 -0.8274 -0.1872  0.2470
  143SAPE  H11B15620   1.790   1.224  11.076  0.1874  1.6238 -0.6063
  143SAPE     P15621   1.688   0.996  10.949 -0.0970 -0.2800 -0.1975
  143SAPE   O1315622   1.692   0.849  10.925 -0.0329  0.7615  0.3273
  143SAPE   O1415623   1.591   1.043  11.050 -0.4269 -0.0764  0.1659
  143SAPE   O1215624   1.831   1.052  10.978  0.4846 -0.0666  0.7375
  143SAPE   O1115625   1.643   1.078  10.819  0.2957  0.1766  0.0843
  143SAPE    C115626   1.719   1.071  10.697 -0.0747 -0.0625 -0.3261
  143SAPE    HA15627   1.750   1.177  10.681 -0.5676  0.4646  1.9366
  143SAPE    HB15628   1.818   1.022  10.709 -0.8953 -1.5896  0.3541
  143SAPE    C215629   1.636   1.010  10.580  0.3496 -0.3854  0.5752
  143SAPE    HS15630   1.706   1.011  10.494  1.2015 -2.3539  1.2127
  143SAPE   O2115631   1.513   1.076  10.554  0.1039  0.3228 -0.3893
  143SAPE   C2115632   1.518   1.169  10.460  0.6156  0.4258  0.1803
  143SAPE   O2215633   1.614   1.197  10.391 -0.2644 -0.7131 -0.5874
  143SAPE   C2215634   1.388   1.257  10.467  0.1085  0.1618  0.1947
  143SAPE   H2R15635   1.349   1.250  10.571 -0.7454  1.1019 -0.0568
  143SAPE   H2S15636   1.405   1.366  10.456  1.8962 -0.0007  1.0347
  143SAPE    C315637   1.612   0.860  10.613  0.4293 -0.2157  0.3556
  143SAPE    HX15638   1.527   0.847  10.684  0.0640 -1.0286 -0.2221
  143SAPE    HY15639   1.710   0.828  10.655 -0.4197 -1.0552  1.7367
  143SAPE   O3115640   1.582   0.783  10.491 -0.2161 -0.3192  0.5164
  143SAPE   C3115641   1.460   0.778  10.442  0.3518 -0.3762  1.0576
  143SAPE   O3215642   1.356   0.822  10.486 -0.1338  0.3057 -0.2698
  143SAPE   C3215643   1.464   0.698  10.307 -0.7430  0.4421 -0.2881
  143SAPE   H2X15644   1.399   0.610  10.323  0.3848  0.0536  2.4039
  143SAPE   H2Y15645   1.565   0.661  10.278  0.7481  2.4303  2.1883
  143SAPE   C2315646   1.276   1.204  10.377 -1.4201  0.3357  0.3355
  143SAPE   H3R15647   1.179   1.257  10.392 -0.2213  2.3868  0.8958
  143SAPE   H3S15648   1.258   1.098  10.407 -0.6232 -0.6458 -2.5064
  143SAPE   C2415649   1.294   1.215  10.222  0.4135  0.1791 -0.6782
  143SAPE   H4R15650   1.198   1.177  10.179  1.6021 -1.7859 -1.6545
  143SAPE   H4S15651   1.371   1.142  10.188  0.1090 -1.5182  2.0396
  143SAPE   C2515652   1.308   1.354  10.186 -0.3403 -0.5925  0.0998
  143SAPE   H5R15653   1.256   1.426  10.250  0.4454 -1.0005  1.2129
  143SAPE   C2615654   1.387   1.400  10.087  0.4762  0.0186 -0.4833
  143SAPE   H6R15655   1.388   1.510  10.073 -0.6352 -0.1965 -2.4995
  143SAPE   C2715656   1.478   1.324   9.991  0.3550  0.2054  0.0239
  143SAPE   H7R15657   1.472   1.371   9.891 -3.5883 -0.0684  0.0503
  143SAPE   H7S15658   1.444   1.218   9.988 -0.1842  0.2588  2.5256
  143SAPE   C2815659   1.620   1.312  10.039  0.5009 -0.9217 -0.1594
  143SAPE   H8R15660   1.626   1.276  10.143 -2.1118  2.2611  1.2050
  143SAPE   C2915661   1.728   1.356   9.971 -0.3991  0.1813 -0.2485
  143SAPE   H9R15662   1.824   1.346  10.025 -0.1097  0.3966 -0.7223
  143SAPE  C21015663   1.734   1.406   9.824  0.5140 -0.3754 -0.7365
  143SAPE  H10R15664   1.838   1.439   9.804  0.5880 -1.4981 -2.2172
  143SAPE  H10S15665   1.666   1.493   9.821  0.4998 -0.3305  0.5948
  143SAPE  C21115666   1.701   1.298   9.728 -0.5845  0.0850 -0.7389
  143SAPE  H11R15667   1.721   1.197   9.769  0.0753  1.4569  2.4400
  143SAPE  C21215668   1.652   1.308   9.604  0.8383 -0.2907 -1.0364
  143SAPE  H12R15669   1.647   1.211   9.551  0.2619 -1.9968  2.0169
  143SAPE  C21315670   1.617   1.438   9.537 -0.0075 -0.0626 -0.2800
  143SAPE  H13R15671   1.703   1.475   9.477  0.0968 -1.2585 -0.8844
  143SAPE  H13S15672   1.590   1.519   9.609 -0.0740 -0.9483  0.6968
  143SAPE  C21415673   1.494   1.406   9.442 -0.2609 -0.7618  0.7253
  143SAPE  H14R15674   1.395   1.395   9.490 -0.1994 -2.8347  0.4330
  143SAPE  C21515675   1.511   1.397   9.311  0.6034 -0.5800 -0.3257
  143SAPE  H15R15676   1.425   1.375   9.246  0.8118  0.5558 -1.0073
  143SAPE  C21615677   1.638   1.426   9.240 -0.4298 -0.7496  0.3722
  143SAPE  H16R15678   1.722   1.374   9.291  0.5779  1.2073  0.7991
  143SAPE  H16S15679   1.673   1.532   9.238  1.7908 -1.4516 -1.6809
  143SAPE  C21715680   1.621   1.376   9.099 -0.4535  0.0592 -0.0447
  143SAPE  H17R15681   1.568   1.278   9.092 -0.0727 -0.0534 -1.5973
  143SAPE  H17S15682   1.720   1.361   9.050  0.0998 -1.9962  1.6222
  143SAPE  C21815683   1.535   1.467   9.007  0.1006  0.7239  0.3473
  143SAPE  H18R15684   1.607   1.547   8.978  0.1276  0.4466 -0.3645
  143SAPE  H18S15685   1.442   1.511   9.048 -1.2210 -1.5485 -0.1921
  143SAPE  C21915686   1.497   1.399   8.876  0.6320  0.4526  0.2119
  143SAPE  H19R15687   1.430   1.317   8.908  0.0284  0.3555 -1.2252
  143SAPE  H19S15688   1.586   1.364   8.820 -2.9292  0.6801 -6.1536
  143SAPE  C22015689   1.417   1.476   8.772 -0.3159 -0.6141  0.2776
  143SAPE  H20R15690   1.310   1.487   8.801  0.2176  1.2479  1.6350
  143SAPE  H20S15691   1.418   1.421   8.675  0.5191 -0.0299 -0.0530
  143SAPE  H20T15692   1.462   1.577   8.766  2.3937 -1.6180  2.9923
  143SAPE   C3315693   1.401   0.775  10.184  0.4288  0.1841 -0.1980
  143SAPE   H3X15694   1.322   0.845  10.218  0.8080  1.1670 -1.3204
  143SAPE   H3Y15695   1.351   0.705  10.113  1.4735  1.7044 -2.4725
  143SAPE   C3415696   1.498   0.863  10.103  0.0830 -0.6572  0.5123
  143SAPE   H4X15697   1.574   0.792  10.062 -1.2988 -2.3488  0.8320
  143SAPE   H4Y15698   1.546   0.935  10.172  0.5122  0.8900 -1.3702
  143SAPE   C3515699   1.434   0.931   9.982 -0.1384  0.5951 -0.0938
  143SAPE   H5X15700   1.507   1.002   9.938 -0.0565 -0.2964 -1.4272
  143SAPE   H5Y15701   1.345   0.980  10.026  0.1274 -1.5546  3.0111
  143SAPE   C3615702   1.398   0.836   9.864 -0.0662 -0.5049  0.0588
  143SAPE   H6X15703   1.368   0.734   9.898  0.6036 -1.3817 -1.8792
  143SAPE   H6Y15704   1.490   0.824   9.803  0.7432 -0.4610  1.2365
  143SAPE   C3715705   1.294   0.897   9.763  0.2906  0.5530 -0.7792
  143SAPE   H7X15706   1.208   0.914   9.832  0.4235  1.1503 -0.7595
  143SAPE   H7Y15707   1.262   0.822   9.687  1.1927  1.6408 -2.2469
  143SAPE   C3815708   1.325   1.038   9.705  0.1707  0.6782  0.2986
  143SAPE   H8X15709   1.411   1.042   9.635 -0.6398  1.9667 -0.6470
  143SAPE   H8Y15710   1.361   1.100   9.790  1.2522 -1.4853  1.4670
  143SAPE   C3915711   1.207   1.116   9.641  0.2841  0.2652 -0.0448
  143SAPE   H9X15712   1.222   1.223   9.614 -2.4900  0.8649  0.7240
  143SAPE   H9Y15713   1.124   1.117   9.715  2.0350  0.8901  1.9515
  143SAPE  C31015714   1.155   1.048   9.509 -0.1168 -0.0945 -0.4913
  143SAPE  H10X15715   1.054   1.087   9.485  0.4736  0.9112 -1.3472
  143SAPE  H10Y15716   1.160   0.937   9.514  2.9441  0.0189 -0.3608
  143SAPE  C31115717   1.232   1.081   9.380 -0.3739  0.6381 -0.1434
  143SAPE  H11X15718   1.339   1.052   9.395 -0.6853 -0.0016  0.9054
  143SAPE  H11Y15719   1.230   1.190   9.358 -1.3528  0.6067 -0.2353
  143SAPE  C31215720   1.175   1.014   9.253  0.1505 -0.5045 -0.2860
  143SAPE  H12X15721   1.198   0.905   9.260 -0.1403 -0.6351 -1.2601
  143SAPE  H12Y15722   1.242   1.056   9.174 -0.0905  0.0193 -0.2137
  143SAPE  C31315723   1.026   1.010   9.223 -0.6073 -0.6078  0.7686
  143SAPE  H13X15724   0.991   1.114   9.201  0.3898 -0.2297  0.9719
  143SAPE  H13Y15725   0.958   0.972   9.302 -0.7423 -0.8237  0.5494
  143SAPE  C31415726   1.005   0.942   9.088  0.9134  0.0330 -0.8394
  143SAPE  H14X15727   1.015   0.833   9.111  0.7421  0.4310  1.2707
  143SAPE  H14Y15728   1.069   0.977   9.005  1.7811 -2.8770 -1.4445
  143SAPE  C31515729   0.862   0.948   9.033 -0.3938  0.0344 -0.7866
  143SAPE  H15X15730   0.866   1.052   8.995  1.9759  0.9882  1.8642
  143SAPE  H15Y15731   0.798   0.928   9.122 -0.2009  1.4222 -0.3274
  143SAPE  C31615732   0.827   0.851   8.920  0.2652  0.4074 -0.3711
  143SAPE  H16X15733   0.721   0.876   8.899 -0.0297 -0.4703  0.0500
  143SAPE  H16Y15734   0.841   0.743   8.943  0.6801  0.0055 -2.3905
  143SAPE  C31715735   0.912   0.881   8.800 -0.3815 -0.1890  0.4879
  143SAPE  H17X15736   0.996   0.809   8.798  0.2336  0.5751 -2.4077
  143SAPE  H17Y15737   0.949   0.985   8.803  0.1899 -0.4150  1.5133
  143SAPE  C31815738   0.830   0.857   8.672 -1.0333  0.2667  0.1767
  143SAPE  H18X15739   0.894   0.896   8.590  0.9274 -1.5115  0.8158
  143SAPE  H18Y15740   0.740   0.922   8.672 -0.5232  1.0348  1.9736
  143SAPE  H18Z15741   0.809   0.749   8.655 -1.2252  0.5151 -1.1932
  144SAPE     N15742   4.417   5.880  11.191 -0.2202 -0.0431 -0.1003
  144SAPE   HN115743   4.363   5.943  11.255  2.1564  0.4590  1.4926
  144SAPE   HN215744   4.356   5.840  11.117 -2.7263  1.0719  1.2891
  144SAPE   HN315745   4.462   5.808  11.251 -1.0163  1.1138  1.9777
  144SAPE   C1215746   4.524   5.955  11.123 -0.2311 -0.1658  0.1709
  144SAPE  H12A15747   4.620   5.916  11.162 -1.0262 -1.3728  0.9306
  144SAPE  H12B15748   4.521   6.063  11.149 -0.0584 -0.4499  1.3683
  144SAPE   C1115749   4.525   5.944  10.970  0.0356  0.3280 -0.1151
  144SAPE  H11A15750   4.534   5.836  10.945  2.0007  0.3954  0.2220
  144SAPE  H11B15751   4.615   5.999  10.933 -0.0723  0.5603 -0.0313
  144SAPE     P15752   4.387   6.059  10.780  0.0542  0.3825 -0.0344
  144SAPE   O1315753   4.242   6.077  10.754  0.3316  0.1013 -0.5089
  144SAPE   O1415754   4.472   6.184  10.769  0.0027 -0.0812  0.4621
  144SAPE   O1215755   4.407   6.001  10.923 -0.8935 -0.2596 -0.2873
  144SAPE   O1115756   4.439   5.944  10.685  0.2080 -0.1526 -0.5726
  144SAPE    C115757   4.574   5.935  10.645 -0.0546 -0.1974 -0.8191
  144SAPE    HA15758   4.642   6.008  10.693 -1.4243  0.2290  0.5399
  144SAPE    HB15759   4.614   5.842  10.692  2.0255  2.1545  2.2020
  144SAPE    C215760   4.581   5.941  10.486  0.3597  0.3661  0.3353
  144SAPE    HS15761   4.690   5.937  10.468  0.5728  0.7064  1.5363
  144SAPE   O2115762   4.528   6.068  10.442 -0.0146 -0.5123  0.3159
  144SAPE   C2115763   4.600   6.176  10.443  0.5486 -0.3862 -0.4878
  144SAPE   O2215764   4.708   6.196  10.492  0.5633  0.0591  0.1298
  144SAPE   C2215765   4.529   6.282  10.362  0.0518 -0.3474 -0.0747
  144SAPE   H2R15766   4.426   6.299  10.400  0.3343  0.7655  0.2063
  144SAPE   H2S15767   4.578   6.382  10.363 -0.6705  0.0393 -1.5499
  144SAPE    C315768   4.517   5.814  10.433  0.3767 -0.7273  0.9062
  144SAPE    HX15769   4.413   5.820  10.472  0.2677 -1.4534  0.7317
  144SAPE    HY15770   4.568   5.726  10.477  2.5929  0.9418  1.7950
  144SAPE   O3115771   4.523   5.802  10.288 -0.0373  0.3071  0.6317
  144SAPE   C3115772   4.410   5.832  10.222  0.1448  0.4866 -0.0621
  144SAPE   O3215773   4.304   5.875  10.269  0.0356  0.6206  0.1930
  144SAPE   C3215774   4.431   5.811  10.072  0.3717 -0.0167 -0.4183
  144SAPE   H2X15775   4.418   5.701  10.061  0.7539 -0.1836  0.7155
  144SAPE   H2Y15776   4.537   5.842  10.059 -0.2872  1.9246 -1.3342
  144SAPE   C2315777   4.530   6.239  10.219 -0.0064  0.0405 -0.0314
  144SAPE   H3R15778   4.442   6.289  10.172 -1.5634 -2.5497 -0.0011
  144SAPE   H3S15779   4.507   6.130  10.212  0.4230  0.0462 -1.9132
  144SAPE   C2415780   4.653   6.279  10.135 -0.3785  0.0308 -0.1143
  144SAPE   H4R15781   4.678   6.387  10.140  0.2664 -0.1872  1.6695
  144SAPE   H4S15782   4.615   6.253  10.034 -0.5245 -1.2642  0.2553
  144SAPE   C2515783   4.764   6.190  10.167 -0.4793 -0.8232  0.4915
  144SAPE   H5R15784   4.814   6.201  10.264  0.3987 -0.2305 -0.0180
  144SAPE   C2615785   4.805   6.084  10.091 -0.4661  0.1846  1.1158
  144SAPE   H6R15786   4.896   6.029  10.118  0.1138  0.2012 -0.7215
  144SAPE   C2715787   4.747   6.044   9.959  0.5295 -0.3781 -0.6252
  144SAPE   H7R15788   4.636   6.046   9.966  0.5620 -0.3391 -0.1083
  144SAPE   H7S15789   4.776   5.944   9.921 -3.3511 -1.4377 -1.0248
  144SAPE   C2815790   4.799   6.122   9.843 -1.0497  1.0749  0.2049
  144SAPE   H8R15791   4.860   6.209   9.872 -0.3612  1.9820 -3.6316
  144SAPE   C2915792   4.784   6.097   9.710  0.4276 -0.2817  0.0014
  144SAPE   H9R15793   4.831   6.161   9.635  1.9313 -0.9008  0.3998
  144SAPE  C21015794   4.693   5.988   9.659  0.1930  0.0772 -0.5100
  144SAPE  H10R15795   4.643   6.028   9.568 -0.4754 -2.0534 -1.1055
  144SAPE  H10S15796   4.612   5.955   9.728 -0.6658  1.8122 -0.6378
  144SAPE  C21115797   4.781   5.870   9.631 -0.0525  0.0820  0.8782
  144SAPE  H11R15798   4.813   5.818   9.722  1.2770  0.7700  0.8195
  144SAPE  C21215799   4.808   5.827   9.511  0.1191 -0.7276  0.4520
  144SAPE  H12R15800   4.862   5.732   9.498 -0.5314 -1.1331  0.6753
  144SAPE  C21315801   4.761   5.887   9.386 -0.3770 -0.4064  0.3366
  144SAPE  H13R15802   4.745   5.996   9.405  0.5723 -0.3176  0.6609
  144SAPE  H13S15803   4.661   5.851   9.354  0.7109 -2.1473 -1.1203
  144SAPE  C21415804   4.865   5.888   9.278  0.1540 -0.9028  0.0077
  144SAPE  H14R15805   4.968   5.900   9.313 -0.0216 -0.2449  0.3100
  144SAPE  C21515806   4.838   5.869   9.148  0.1034  0.3575  0.2342
  144SAPE  H15R15807   4.921   5.850   9.078 -0.6025 -0.2206 -0.4535
  144SAPE  C21615808   4.705   5.850   9.083  0.0492  0.2586  0.4171
  144SAPE  H16R15809   4.615   5.848   9.148  0.2462  1.1452  0.7091
  144SAPE  H16S15810   4.700   5.741   9.061  0.6946  0.3664 -0.3084
  144SAPE  C21715811   4.678   5.947   8.961 -0.0485 -0.3199 -0.2368
  144SAPE  H17R15812   4.659   6.052   8.995  1.0435 -1.0432  2.7853
  144SAPE  H17S15813   4.580   5.920   8.918  0.0057  0.0999 -0.6276
  144SAPE  C21815814   4.785   5.938   8.853 -0.1505  0.2459  0.3777
  144SAPE  H18R15815   4.884   5.951   8.902 -0.3124  2.3819  0.1809
  144SAPE  H18S15816   4.791   6.017   8.775  1.4450 -0.1466  0.0897
  144SAPE  C21915817   4.773   5.800   8.775  0.0698 -0.0153 -0.0985
  144SAPE  H19R15818   4.797   5.714   8.842 -2.7093 -0.6138  0.2131
  144SAPE  H19S15819   4.850   5.801   8.695 -0.9013 -1.1409 -1.0619
  144SAPE  C22015820   4.640   5.762   8.713  0.6841 -0.2557 -0.8788
  144SAPE  H20R15821   4.602   5.831   8.635  1.2733  0.1032 -0.8453
  144SAPE  H20S15822   4.557   5.772   8.787  1.4132  0.6507 -0.1849
  144SAPE  H20T15823   4.642   5.659   8.670  0.2269 -0.0216 -1.4625
  144SAPE   C3315824   4.338   5.899   9.989  0.0750 -0.1383 -0.4744
  144SAPE   H3X15825   4.373   6.004   9.976 -0.9837  0.2782 -0.0819
  144SAPE   H3Y15826   4.236   5.896  10.034  0.2902  1.2738  0.1261
  144SAPE   C3415827   4.319   5.846   9.843 -0.0974 -0.0487  0.0732
  144SAPE   H4X15828   4.258   5.753   9.831 -2.2372  1.2550  0.6377
  144SAPE   H4Y15829   4.418   5.838   9.794 -0.1889  0.1471 -0.1452
  144SAPE   C3515830   4.239   5.955   9.767  0.1465  0.7539  0.2502
  144SAPE   H5X15831   4.301   6.047   9.764 -0.0990  0.9346  0.6882
  144SAPE   H5Y15832   4.153   5.977   9.833 -0.4370 -0.5380 -0.0619
  144SAPE   C3615833   4.180   5.913   9.632  0.0043  0.7880  0.3562
  144SAPE   H6X15834   4.119   5.829   9.670  0.4274  1.4156  2.5007
  144SAPE   H6Y15835   4.259   5.882   9.561 -1.2709  2.5398 -1.9145
  144SAPE   C3715836   4.095   6.030   9.567 -0.2132 -0.0152  0.0223
  144SAPE   H7X15837   4.134   6.128   9.604  0.6403 -0.3244 -0.0456
  144SAPE   H7Y15838   3.990   6.020   9.599 -0.3257  2.3888  0.4762
  144SAPE   C3815839   4.108   6.040   9.419  0.2283 -0.6855 -0.1089
  144SAPE   H8X15840   4.081   5.938   9.383  0.4992 -1.2280  1.2070
  144SAPE   H8Y15841   4.209   6.069   9.383  0.0757  1.0291  0.8033
  144SAPE   C3915842   4.006   6.143   9.355  0.1855 -0.4417 -0.5250
  144SAPE   H9X15843   4.038   6.242   9.393 -0.2496 -0.2170 -0.7311
  144SAPE   H9Y15844   3.903   6.106   9.376 -0.6430  0.8872 -2.1123
  144SAPE  C31015845   4.022   6.143   9.197  0.5958 -0.7670 -0.0686
  144SAPE  H10X15846   3.944   6.069   9.169 -1.1345  0.8694  0.3627
  144SAPE  H10Y15847   4.124   6.108   9.168 -0.4414 -2.7989 -1.3673
  144SAPE  C31115848   3.990   6.274   9.117  0.1727  0.0909  0.6332
  144SAPE  H11X15849   4.059   6.357   9.140 -1.4331  1.7888 -0.4996
  144SAPE  H11Y15850   3.886   6.293   9.151 -0.6325  0.5573 -1.9881
  144SAPE  C31215851   3.991   6.248   8.966 -0.1409 -0.0988 -1.1967
  144SAPE  H12X15852   3.901   6.193   8.932 -0.8378  0.8890 -0.9698
  144SAPE  H12Y15853   4.087   6.195   8.948 -0.9395 -2.1653  0.3709
  144SAPE  C31315854   3.990   6.385   8.877 -0.0638 -0.5624 -0.5122
  144SAPE  H13X15855   4.070   6.446   8.925  0.2904 -1.1603 -0.3417
  144SAPE  H13Y15856   3.891   6.433   8.896  0.4891  0.2440  0.4183
  144SAPE  C31415857   4.019   6.363   8.725 -0.3944  0.0644 -0.6670
  144SAPE  H14X15858   3.997   6.459   8.672 -0.3495 -0.8824 -2.4326
  144SAPE  H14Y15859   3.937   6.295   8.692 -0.5778  0.3248 -0.7526
  144SAPE  C31515860   4.163   6.315   8.699  0.0262  0.0425  0.3056
  144SAPE  H15X15861   4.192   6.231   8.765 -1.0879  0.1892  1.0014
  144SAPE  H15Y15862   4.227   6.403   8.722  1.3265 -1.4207  2.4652
  144SAPE  C31615863   4.205   6.273   8.548  0.4479 -0.0860 -0.4965
  144SAPE  H16X15864   4.313   6.249   8.551 -0.4262 -4.0917  1.8512
  144SAPE  H16Y15865   4.177   6.357   8.481 -0.8867  0.0894  0.2602
  144SAPE  C31715866   4.130   6.143   8.512  0.0327  0.1441  0.2909
  144SAPE  H17X15867   4.020   6.141   8.520 -0.1136 -1.7640 -1.5884
  144SAPE  H17Y15868   4.160   6.059   8.579  1.1218 -0.7904 -1.2961
  144SAPE  C31815869   4.166   6.088   8.370 -0.5909  0.0102  0.1428
  144SAPE  H18X15870   4.107   6.152   8.301  0.3759  0.5375 -0.2113
  144SAPE  H18Y15871   4.149   5.979   8.363 -1.0285 -0.0353  1.7139
  144SAPE  H18Z15872   4.271   6.105   8.338 -1.0853 -0.6361 -1.8813
  145SAPE     N15873   1.567   0.205  11.575 -0.1421  0.9902  0.3227
  145SAPE   HN115874   1.565   0.128  11.505  0.8268  0.8120  0.4791
  145SAPE   HN215875   1.668   0.222  11.589 -0.3662  2.9568 -0.3174
  145SAPE   HN315876   1.521   0.180  11.665 -1.1057  0.4969 -0.2872
  145SAPE   C1215877   1.512   0.332  11.507 -0.9750 -0.1531  0.3697
  145SAPE  H12A15878   1.527   0.406  11.589  1.4443 -0.5425  0.2970
  145SAPE  H12B15879   1.405   0.320  11.480 -0.9735  0.7671 -0.0722
  145SAPE   C1115880   1.585   0.363  11.376 -0.9154 -0.2144  0.5418
  145SAPE  H11A15881   1.533   0.448  11.328 -0.5748  0.7909  1.9332
  145SAPE  H11B15882   1.570   0.281  11.302 -0.6134  1.0685 -0.9575
  145SAPE     P15883   1.810   0.498  11.348  0.1088 -0.1795 -0.2418
  145SAPE   O1315884   1.749   0.625  11.387 -0.4990 -0.7277  0.1614
  145SAPE   O1415885   1.946   0.481  11.397 -0.8038  0.4500  0.0612
  145SAPE   O1215886   1.722   0.386  11.405 -0.1444 -0.3573 -0.2616
  145SAPE   O1115887   1.807   0.483  11.191 -0.5271  0.0942  0.3365
  145SAPE    C115888   1.870   0.365  11.132  0.1416 -0.2102  0.9489
  145SAPE    HA15889   1.969   0.348  11.178 -0.2593  1.6984  2.6146
  145SAPE    HB15890   1.815   0.272  11.158  0.5331 -0.3041  1.4321
  145SAPE    C215891   1.866   0.365  10.978 -0.5127 -0.3396  0.3486
  145SAPE    HS15892   1.917   0.455  10.936 -0.3012  0.0305  1.3879
  145SAPE   O2115893   1.735   0.349  10.935  0.4860  0.5681 -0.1777
  145SAPE   C2115894   1.695   0.395  10.810 -0.0217  0.1225 -0.3188
  145SAPE   O2215895   1.769   0.468  10.744  0.2861 -0.3699  0.1101
  145SAPE   C2215896   1.558   0.352  10.777 -0.1997  0.0323  0.3059
  145SAPE   H2R15897   1.555   0.240  10.777 -0.3964  0.0379  0.0805
  145SAPE   H2S15898   1.493   0.378  10.864 -1.6743 -1.7774 -0.2021
  145SAPE    C315899   1.946   0.236  10.926 -0.3805 -0.0921  0.0098
  145SAPE    HX15900   1.898   0.143  10.964 -1.8148  1.0094  0.9501
  145SAPE    HY15901   2.037   0.243  10.988 -1.0977  0.6969  0.9977
  145SAPE   O3115902   1.985   0.238  10.789 -0.0935  0.4610 -0.5566
  145SAPE   C3115903   1.904   0.168  10.713 -0.8152 -0.3467  0.3720
  145SAPE   O3215904   1.819   0.088  10.754  0.2250 -0.6873  0.3688
  145SAPE   C3215905   1.940   0.191  10.560 -0.1317 -0.2252  0.3202
  145SAPE   H2X15906   2.043   0.155  10.542 -0.4663  0.5704 -3.5083
  145SAPE   H2Y15907   1.939   0.302  10.548  0.3074 -0.1977  0.5355
  145SAPE   C2315908   1.502   0.409  10.642 -0.7254 -0.4984 -0.0438
  145SAPE   H3R15909   1.548   0.344  10.565  1.7027  0.8282  0.2344
  145SAPE   H3S15910   1.544   0.512  10.637 -2.9416  0.4621  0.2691
  145SAPE   C2415911   1.352   0.410  10.637  0.1244 -0.5587 -0.6586
  145SAPE   H4R15912   1.326   0.463  10.543 -3.1240 -0.3325  0.2806
  145SAPE   H4S15913   1.327   0.473  10.725  0.9053  0.9955 -1.5221
  145SAPE   C2515914   1.284   0.272  10.663  0.4877 -0.7173 -0.0810
  145SAPE   H5R15915   1.306   0.229  10.762 -4.3645 -1.7682  0.6499
  145SAPE   C2615916   1.194   0.207  10.583  0.8020 -0.3359  0.1126
  145SAPE   H6R15917   1.145   0.117  10.620 -1.9541  0.6451 -1.0541
  145SAPE   C2715918   1.155   0.255  10.452  0.1932  0.2561 -0.5722
  145SAPE   H7R15919   1.114   0.357  10.468 -1.1111 -0.4509  0.7479
  145SAPE   H7S15920   1.067   0.195  10.419 -0.1715 -0.0584  0.9196
  145SAPE   C2815921   1.264   0.255  10.355  0.2751  0.1682  0.6080
  145SAPE   H8R15922   1.348   0.189  10.384  1.2538  1.1871  0.1270
  145SAPE   C2915923   1.264   0.307  10.233  0.4477  0.1574  0.5747
  145SAPE   H9R15924   1.347   0.295  10.162 -0.0829  2.4446 -0.4705
  145SAPE  C21015925   1.144   0.380  10.162  0.4085 -0.1914  0.0263
  145SAPE  H10R15926   1.182   0.474  10.116 -1.1886  0.1888 -0.5541
  145SAPE  H10S15927   1.084   0.428  10.242 -1.1390 -0.4185 -0.9841
  145SAPE  C21115928   1.055   0.298  10.073 -0.1084 -1.1506  0.3084
  145SAPE  H11R15929   0.972   0.251  10.129 -1.8664  2.6139  0.9881
  145SAPE  C21215930   1.071   0.281   9.937 -0.1077  0.0442 -0.8530
  145SAPE  H12R15931   0.991   0.222   9.890 -1.1553  1.4092 -0.8048
  145SAPE  C21315932   1.180   0.335   9.845 -0.4304 -0.0989  0.1650
  145SAPE  H13R15933   1.156   0.306   9.741  0.8516  0.1680 -0.2232
  145SAPE  H13S15934   1.280   0.296   9.876  0.2456  1.5882  0.2135
  145SAPE  C21415935   1.177   0.487   9.853  0.1669  0.0258 -0.5308
  145SAPE  H14R15936   1.231   0.540   9.932  2.1208 -0.1465 -1.7162
  145SAPE  C21515937   1.103   0.566   9.779 -0.0847 -0.6617  0.3920
  145SAPE  H15R15938   1.093   0.668   9.818  0.1823 -0.9709  1.2877
  145SAPE  C21615939   1.014   0.521   9.661 -0.5801  0.3242  0.2162
  145SAPE  H16R15940   0.907   0.540   9.684 -0.4421  2.2895 -0.6758
  145SAPE  H16S15941   1.018   0.412   9.642  0.0573  0.4656 -0.5154
  145SAPE  C21715942   1.043   0.600   9.525 -0.3274  0.2163 -0.8687
  145SAPE  H17R15943   1.150   0.611   9.496  0.3448 -0.4579  1.2878
  145SAPE  H17S15944   0.992   0.696   9.544 -1.4181 -0.8976  2.0743
  145SAPE  C21815945   0.977   0.523   9.415 -0.0470 -0.6350 -0.1103
  145SAPE  H18R15946   0.870   0.506   9.437 -0.2732  0.1037 -0.6245
  145SAPE  H18S15947   1.023   0.423   9.406  1.4378  0.1578 -1.5834
  145SAPE  C21915948   0.981   0.593   9.282 -0.6499 -0.2550 -0.2084
  145SAPE  H19R15949   1.087   0.623   9.269 -1.5145  2.9104 -0.4383
  145SAPE  H19S15950   0.925   0.689   9.291  0.5596  0.3445  1.0307
  145SAPE  C22015951   0.934   0.515   9.159  0.2257 -0.3505 -0.6018
  145SAPE  H20R15952   0.957   0.567   9.064 -0.7687  0.6773 -0.2803
  145SAPE  H20S15953   0.824   0.523   9.167  0.5256  1.8599  2.0715
  145SAPE  H20T15954   0.967   0.409   9.157 -0.7542 -0.6949  0.7539
  145SAPE   C3315955   1.828   0.134  10.474  0.3951 -0.7358  0.0857
  145SAPE   H3X15956   1.728   0.172  10.506  0.5320 -0.9338  0.7607
  145SAPE   H3Y15957   1.817   0.027  10.501 -0.6592 -0.5323  0.5027
  145SAPE   C3415958   1.846   0.132  10.324  0.1020  0.6129  0.1674
  145SAPE   H4X15959   1.768   0.059  10.292  0.2536  0.7338 -0.4908
  145SAPE   H4Y15960   1.951   0.100  10.309 -0.4874 -1.5217  0.4981
  145SAPE   C3515961   1.807   0.265  10.263  0.4125 -0.8843 -0.2795
  145SAPE   H5X15962   1.836   0.266  10.156  0.1056 -0.2826 -0.3581
  145SAPE   H5Y15963   1.865   0.351  10.304  0.5455  0.5372 -3.3012
  145SAPE   C3615964   1.655   0.298  10.260 -0.0652 -0.3454 -0.4770
  145SAPE   H6X15965   1.592   0.310  10.352 -1.1034 -2.3369 -0.8952
  145SAPE   H6Y15966   1.603   0.209  10.218 -3.3255  1.9093 -1.3839
  145SAPE   C3715967   1.625   0.420  10.168  0.0818 -0.1440 -0.6565
  145SAPE   H7X15968   1.704   0.498  10.181  0.7036 -1.1242  1.6872
  145SAPE   H7Y15969   1.523   0.462  10.173  0.2926  0.6997 -2.8549
  145SAPE   C3815970   1.628   0.382  10.016  0.5107  0.0312 -0.3018
  145SAPE   H8X15971   1.538   0.318  10.010  1.8166 -1.8170 -0.3852
  145SAPE   H8Y15972   1.719   0.323   9.996  0.9212  0.1460  1.1320
  145SAPE   C3915973   1.620   0.495   9.918  0.3881 -0.5426  0.0567
  145SAPE   H9X15974   1.720   0.543   9.926 -0.4139  1.5308 -1.8645
  145SAPE   H9Y15975   1.551   0.573   9.958  1.1503  0.4322 -0.5001
  145SAPE  C31015976   1.588   0.448   9.770 -0.4471 -0.1129 -0.7721
  145SAPE  H10X15977   1.499   0.386   9.792 -2.4778  2.2463 -2.1227
  145SAPE  H10Y15978   1.679   0.396   9.732  2.0714  3.7068 -0.3585
  145SAPE  C31115979   1.540   0.555   9.673  0.0535  0.4423  0.4857
  145SAPE  H11X15980   1.621   0.631   9.665  1.6711 -1.4580 -1.6573
  145SAPE  H11Y15981   1.455   0.612   9.716 -0.0958  3.9411 -4.0697
  145SAPE  C31215982   1.493   0.481   9.549 -0.0851 -0.0626 -0.2599
  145SAPE  H12X15983   1.406   0.416   9.571 -0.7426  0.0056 -2.5897
  145SAPE  H12Y15984   1.570   0.412   9.509  0.3953 -0.1734  0.8339
  145SAPE  C31315985   1.445   0.567   9.431 -0.5631 -0.1451 -0.8860
  145SAPE  H13X15986   1.528   0.628   9.390 -0.3987 -0.0365 -0.4039
  145SAPE  H13Y15987   1.389   0.648   9.482 -0.4169  0.0844 -1.0915
  145SAPE  C31415988   1.363   0.497   9.322  0.2846 -0.2964 -0.4036
  145SAPE  H14X15989   1.261   0.474   9.360  0.3861  1.7498  1.1550
  145SAPE  H14Y15990   1.407   0.398   9.297 -1.7504 -1.4755  0.5110
  145SAPE  C31515991   1.366   0.577   9.195 -0.3136 -0.4510 -0.0963
  145SAPE  H15X15992   1.471   0.597   9.166 -0.2365 -0.6445  0.0532
  145SAPE  H15Y15993   1.304   0.666   9.220  0.3697 -0.3481  1.2595
  145SAPE  C31615994   1.295   0.514   9.068 -0.4052 -0.0725 -0.0153
  145SAPE  H16X15995   1.188   0.506   9.095 -0.5169  0.9447 -0.1355
  145SAPE  H16Y15996   1.344   0.414   9.057  0.5738  0.5801 -1.8203
  145SAPE  C31715997   1.316   0.594   8.936 -0.0504  0.1895 -0.2473
  145SAPE  H17X15998   1.420   0.602   8.897  0.2390 -0.1740  0.4355
  145SAPE  H17Y15999   1.273   0.692   8.965  0.0137  0.4662 -1.0651
  145SAPE  C31816000   1.225   0.534   8.831 -0.0055  0.3265  0.6538
  145SAPE  H18X16001   1.117   0.519   8.854 -0.2021 -1.7636 -1.3851
  145SAPE  H18Y16002   1.269   0.434   8.811  0.3013  0.2916  1.4839
  145SAPE  H18Z16003   1.237   0.592   8.737  0.4314  1.5694  1.4710
  146SAPE     N16004   6.174   6.257  10.922 -0.4746  0.4173  0.1577
  146SAPE   HN116005   6.131   6.319  10.993 -1.1178 -0.2942  0.3967
  146SAPE   HN216006   6.124   6.166  10.932  0.7741 -0.3095 -0.0374
  146SAPE   HN316007   6.269   6.230  10.954 -0.3585  0.3159 -0.2638
  146SAPE   C1216008   6.175   6.305  10.780  0.1852 -0.3095 -0.1725
  146SAPE  H12A16009   6.077   6.286  10.731 -0.5088  1.8011  0.3542
  146SAPE  H12B16010   6.249   6.248  10.720 -0.0310  0.9551 -1.6580
  146SAPE   C1116011   6.222   6.452  10.770 -0.6248  0.4975 -0.1286
  146SAPE  H11A16012   6.148   6.511  10.829 -1.6318  2.0876 -2.9272
  146SAPE  H11B16013   6.214   6.481  10.663 -1.6015  2.6458  0.5046
  146SAPE     P16014   6.486   6.446  10.733  0.0271  0.3885  0.1758
  146SAPE   O1316015   6.589   6.527  10.793 -0.0385 -0.3358 -0.4189
  146SAPE   O1416016   6.502   6.301  10.733  0.2272 -0.0747 -0.6075
  146SAPE   O1216017   6.355   6.474  10.816 -0.3993  0.0106 -0.4495
  146SAPE   O1116018   6.446   6.498  10.584  0.0285  0.2534 -0.0154
  146SAPE    C116019   6.431   6.640  10.568 -0.1954  0.0173  0.2077
  146SAPE    HA16020   6.355   6.687  10.634 -0.0287 -1.4961  1.4994
  146SAPE    HB16021   6.526   6.694  10.587  0.2613 -0.2803 -1.2148
  146SAPE    C216022   6.390   6.670  10.425  0.0494 -0.1500  0.0527
  146SAPE    HS16023   6.289   6.624  10.421  0.0815 -0.3997  1.5429
  146SAPE   O2116024   6.496   6.605  10.341 -0.8406 -0.0021  0.5711
  146SAPE   C2116025   6.462   6.493  10.289  0.8154  0.0263 -0.4696
  146SAPE   O2216026   6.356   6.427  10.295  0.4087  0.3094 -0.4015
  146SAPE   C2216027   6.592   6.451  10.212 -0.1866 -0.1281  0.4269
  146SAPE   H2R16028   6.569   6.468  10.105  1.5427  0.0998  0.0821
  146SAPE   H2S16029   6.681   6.508  10.246 -0.0304  0.1661 -0.4625
  146SAPE    C316030   6.382   6.824  10.399 -0.2216 -0.7569 -0.1479
  146SAPE    HX16031   6.483   6.866  10.380 -2.2540  4.2974 -0.4598
  146SAPE    HY16032   6.350   6.874  10.493 -1.0889 -0.9956 -0.3140
  146SAPE   O3116033   6.302   6.854  10.286  0.1444 -0.1370  0.0334
  146SAPE   C3116034   6.172   6.873  10.315 -0.0832 -0.0231 -0.1408
  146SAPE   O3216035   6.121   6.848  10.423 -0.2107  0.0142  0.0500
  146SAPE   C3216036   6.089   6.894  10.195  0.1085  0.4887 -0.7301
  146SAPE   H2X16037   6.154   6.883  10.106 -0.1558 -1.3615 -0.7137
  146SAPE   H2Y16038   6.048   6.998  10.199  4.7643  2.5221 -2.0980
  146SAPE   C2316039   6.625   6.306  10.234  0.3991 -0.2480 -0.5070
  146SAPE   H3R16040   6.569   6.276  10.326  0.2471 -0.4238 -0.6556
  146SAPE   H3S16041   6.731   6.291  10.262  0.6916 -0.3990 -1.6751
  146SAPE   C2416042   6.579   6.205  10.125 -0.6635  0.1053 -0.7040
  146SAPE   H4R16043   6.588   6.105  10.173 -0.6695  0.0399 -0.8383
  146SAPE   H4S16044   6.664   6.214  10.053 -1.4296 -0.3588 -1.6721
  146SAPE   C2516045   6.439   6.220  10.059 -0.3008 -0.7345  0.1664
  146SAPE   H5R16046   6.356   6.190  10.125 -2.5777  0.2238 -2.1736
  146SAPE   C2616047   6.407   6.243   9.930 -0.1906  0.4485 -0.2134
  146SAPE   H6R16048   6.301   6.256   9.907  0.2751  1.3719 -1.9070
  146SAPE   C2716049   6.500   6.268   9.816  0.2064 -0.1076 -0.4783
  146SAPE   H7R16050   6.440   6.253   9.724  1.4488 -2.1176 -0.9979
  146SAPE   H7S16051   6.576   6.187   9.818  1.8818  1.4476  2.3633
  146SAPE   C2816052   6.585   6.388   9.817  0.5523  0.4091 -0.0460
  146SAPE   H8R16053   6.630   6.407   9.916 -2.0510  1.0061  1.0706
  146SAPE   C2916054   6.616   6.458   9.708 -0.2076 -0.2160  0.9466
  146SAPE   H9R16055   6.690   6.538   9.720  0.1972 -0.6631  1.4194
  146SAPE  C21016056   6.576   6.445   9.569 -0.1785 -0.0452 -0.5365
  146SAPE  H10R16057   6.565   6.545   9.523  1.4334 -0.4260 -1.7868
  146SAPE  H10S16058   6.467   6.420   9.574 -0.3282  0.5730 -0.7199
  146SAPE  C21116059   6.653   6.350   9.483  0.8584  1.0875 -0.6146
  146SAPE  H11R16060   6.701   6.265   9.535  0.2689  0.9383 -0.3173
  146SAPE  C21216061   6.651   6.358   9.351 -0.0485  0.6922  0.0389
  146SAPE  H12R16062   6.711   6.285   9.296  1.4750  2.3839 -0.5814
  146SAPE  C21316063   6.588   6.459   9.260 -0.0754 -0.0901 -0.7247
  146SAPE  H13R16064   6.651   6.550   9.253 -0.3412  0.0056 -1.9796
  146SAPE  H13S16065   6.487   6.487   9.296 -0.5294  0.2611 -2.2218
  146SAPE  C21416066   6.561   6.410   9.120  0.4908 -0.9242 -0.3684
  146SAPE  H14R16067   6.557   6.301   9.117 -1.3084 -0.8270 -1.9851
  146SAPE  C21516068   6.549   6.484   9.011 -0.0947  0.2497  0.5080
  146SAPE  H15R16069   6.549   6.434   8.913 -1.1352 -0.9088  1.0938
  146SAPE  C21616070   6.558   6.629   9.021  0.6429  0.7425  0.0153
  146SAPE  H16R16071   6.658   6.663   9.054 -0.0721  4.3757 -1.3302
  146SAPE  H16S16072   6.482   6.660   9.097 -0.3314 -1.0806 -0.1859
  146SAPE  C21716073   6.513   6.694   8.884 -0.0349  0.0878 -0.4806
  146SAPE  H17R16074   6.403   6.684   8.891  0.0164 -1.9813 -2.0537
  146SAPE  H17S16075   6.546   6.633   8.797 -0.3989 -0.0868 -0.4966
  146SAPE  C21816076   6.565   6.839   8.869 -0.5452  0.1997 -0.0282
  146SAPE  H18R16077   6.523   6.880   8.775  1.1447  1.1727 -0.3813
  146SAPE  H18S16078   6.675   6.840   8.851 -0.3441  1.3726  1.1845
  146SAPE  C21916079   6.526   6.940   8.976  0.5048 -0.2724  0.3508
  146SAPE  H19R16080   6.583   7.035   8.959  0.6723 -0.8974 -3.0497
  146SAPE  H19S16081   6.550   6.898   9.076 -1.3541 -1.5136  0.2819
  146SAPE  C22016082   6.365   6.968   8.973 -0.7781  0.0620 -0.5191
  146SAPE  H20R16083   6.339   7.041   9.053 -2.2323 -3.1213  2.0884
  146SAPE  H20S16084   6.305   6.876   8.994 -0.5604  0.4022  1.8007
  146SAPE  H20T16085   6.335   7.015   8.877 -1.9039 -0.6482 -0.5289
  146SAPE   C3316086   5.975   6.786  10.173  0.6498 -0.3779  0.6222
  146SAPE   H3X16087   5.889   6.800  10.241  1.6017 -3.9862  2.6934
  146SAPE   H3Y16088   6.024   6.688  10.188  0.6719 -0.5563 -0.5103
  146SAPE   C3416089   5.929   6.777  10.027 -0.0862  0.5224  1.1790
  146SAPE   H4X16090   5.850   6.699  10.020 -1.8904  2.3957 -0.0782
  146SAPE   H4Y16091   6.012   6.754   9.957 -0.8346  0.1197  0.4071
  146SAPE   C3516092   5.876   6.910   9.962 -0.4941  0.2699 -0.2131
  146SAPE   H5X16093   5.962   6.980   9.958  1.4548 -2.1255 -2.1632
  146SAPE   H5Y16094   5.801   6.953  10.032  0.1453 -0.0200  0.6575
  146SAPE   C3616095   5.815   6.891   9.828 -0.1374 -0.0153  0.3579
  146SAPE   H6X16096   5.899   6.878   9.758  1.7754 -0.9524  2.7376
  146SAPE   H6Y16097   5.744   6.974   9.810 -2.3934 -1.7720  0.7977
  146SAPE   C3716098   5.725   6.770   9.802 -0.1296 -0.3812 -0.3346
  146SAPE   H7X16099   5.654   6.753   9.885  2.0357 -0.3559  1.5603
  146SAPE   H7Y16100   5.793   6.683   9.790  1.0741  0.2074  2.0439
  146SAPE   C3816101   5.651   6.780   9.672 -0.2791 -0.3811 -0.1067
  146SAPE   H8X16102   5.579   6.865   9.675  1.4097  1.0203  2.7680
  146SAPE   H8Y16103   5.601   6.684   9.647  1.2689 -1.9362  2.5266
  146SAPE   C3916104   5.745   6.818   9.555  0.3407 -0.2675  0.0350
  146SAPE   H9X16105   5.836   6.755   9.558  0.5617 -0.0466 -1.4416
  146SAPE   H9Y16106   5.774   6.925   9.566 -0.3750 -0.0470 -0.1695
  146SAPE  C31016107   5.692   6.788   9.415 -0.4618 -0.2626 -0.1156
  146SAPE  H10X16108   5.588   6.826   9.403  0.7511  2.3509 -3.1270
  146SAPE  H10Y16109   5.684   6.679   9.400 -1.6430 -0.4242  1.5008
  146SAPE  C31116110   5.764   6.841   9.291  0.2122 -0.6516  0.7500
  146SAPE  H11X16111   5.855   6.783   9.265  0.3546  0.4582 -1.2899
  146SAPE  H11Y16112   5.800   6.944   9.314  1.0723 -1.2390  2.1249
  146SAPE  C31216113   5.670   6.844   9.172  0.4749 -0.3346 -0.2226
  146SAPE  H12X16114   5.723   6.892   9.087  0.3501 -0.6080 -0.4589
  146SAPE  H12Y16115   5.592   6.916   9.204  1.5230  0.7936 -0.1569
  146SAPE  C31316116   5.613   6.710   9.127 -0.3823  0.4310  0.0514
  146SAPE  H13X16117   5.576   6.657   9.217  1.1502  1.5204  1.3582
  146SAPE  H13Y16118   5.695   6.648   9.086 -0.2841  0.8104 -0.3207
  146SAPE  C31416119   5.503   6.717   9.017 -0.1833 -0.0409  0.7634
  146SAPE  H14X16120   5.523   6.807   8.955 -0.8228 -0.3252  0.1304
  146SAPE  H14Y16121   5.406   6.733   9.071 -0.7714 -2.2253  0.4107
  146SAPE  C31516122   5.488   6.587   8.932 -0.2646 -0.2976  0.2754
  146SAPE  H15X16123   5.490   6.501   9.002 -1.6523 -0.5932 -0.0307
  146SAPE  H15Y16124   5.569   6.578   8.856 -1.0847  2.4008 -0.9706
  146SAPE  C31616125   5.355   6.560   8.863  0.3906 -0.2186  0.0300
  146SAPE  H16X16126   5.276   6.578   8.939  0.1080  3.5738 -1.0766
  146SAPE  H16Y16127   5.365   6.451   8.839  0.7441 -0.6860  2.1972
  146SAPE  C31716128   5.340   6.648   8.743  0.4247  0.0529  0.6032
  146SAPE  H17X16129   5.441   6.670   8.703  0.2908  0.9105  0.7178
  146SAPE  H17Y16130   5.301   6.750   8.767  0.6623 -0.4963  3.4321
  146SAPE  C31816131   5.247   6.585   8.644 -0.6254 -0.2051 -0.4252
  146SAPE  H18X16132   5.149   6.551   8.685 -0.1904  0.1943  0.9886
  146SAPE  H18Y16133   5.282   6.489   8.602 -0.4179  0.4313 -1.7255
  146SAPE  H18Z16134   5.239   6.654   8.557  1.9097 -0.3941 -0.8497
  147SAPE     N16135   1.363   4.062   6.354 -0.6537 -0.4840 -0.7268
  147SAPE   HN116136   1.464   4.083   6.340 -0.6009  0.6173  1.1489
  147SAPE   HN216137   1.350   3.968   6.398 -0.4006 -1.8903 -3.5614
  147SAPE   HN316138   1.307   4.057   6.266 -1.5171 -0.1318 -0.2100
  147SAPE   C1216139   1.315   4.189   6.423  0.0785  0.2704 -0.1249
  147SAPE  H12A16140   1.334   4.185   6.533  0.8276  2.6828 -0.1388
  147SAPE  H12B16141   1.204   4.200   6.417 -0.1358 -1.3536  0.6296
  147SAPE   C1116142   1.387   4.310   6.355 -0.3866  0.7278  0.6736
  147SAPE  H11A16143   1.339   4.405   6.387 -2.0802  0.1021  0.0272
  147SAPE  H11B16144   1.381   4.321   6.244  2.4128  4.0045  0.7606
  147SAPE     P16145   1.578   4.396   6.509  0.0359 -0.2489  0.5716
  147SAPE   O1316146   1.720   4.429   6.482 -0.7194  0.2900  0.4591
  147SAPE   O1416147   1.483   4.511   6.537 -0.1431 -0.5381  0.1149
  147SAPE   O1216148   1.524   4.312   6.382 -0.0580 -0.1247 -0.4374
  147SAPE   O1116149   1.556   4.306   6.636 -1.1072  0.4648  0.9139
  147SAPE    C116150   1.621   4.179   6.653 -0.3089 -0.0503 -0.0866
  147SAPE    HA16151   1.551   4.114   6.709 -1.8654  0.4966 -1.3507
  147SAPE    HB16152   1.629   4.123   6.557 -2.8973 -0.2183 -0.2394
  147SAPE    C216153   1.752   4.183   6.740  0.2006  0.4314 -0.0189
  147SAPE    HS16154   1.848   4.174   6.684 -0.5900  4.0739 -2.0871
  147SAPE   O2116155   1.754   4.072   6.835 -0.0175  0.3997  0.2571
  147SAPE   C2116156   1.765   3.951   6.783 -0.8819 -0.1498 -0.3479
  147SAPE   O2216157   1.794   3.928   6.670 -0.2267 -0.1665 -0.0525
  147SAPE   C2216158   1.750   3.851   6.901  0.7554 -0.4288  0.5876
  147SAPE   H2R16159   1.724   3.906   6.994 -1.5656 -0.5806  0.0397
  147SAPE   H2S16160   1.657   3.793   6.886 -0.3178  1.4545 -0.2070
  147SAPE    C316161   1.756   4.304   6.832 -0.2150 -0.0649 -0.2719
  147SAPE    HX16162   1.655   4.292   6.878  0.1163  0.8207  0.7052
  147SAPE    HY16163   1.750   4.390   6.763 -2.1926  0.0061 -0.0300
  147SAPE   O3116164   1.873   4.310   6.918 -0.2012  0.7391 -0.2877
  147SAPE   C3116165   1.838   4.362   7.039 -0.5186  0.1131 -0.4288
  147SAPE   O3216166   1.721   4.381   7.070 -0.6481 -0.3320  0.6897
  147SAPE   C3216167   1.962   4.372   7.128 -0.2813 -0.5331 -0.3335
  147SAPE   H2X16168   2.018   4.456   7.083  1.8805 -0.9672  1.4495
  147SAPE   H2Y16169   2.031   4.285   7.130 -0.8944 -1.0056  2.1192
  147SAPE   C2316170   1.873   3.759   6.923 -0.5052  0.3628  0.1207
  147SAPE   H3R16171   1.966   3.820   6.930  0.2287 -0.5955 -1.0930
  147SAPE   H3S16172   1.889   3.703   6.829  1.6893  0.6116  0.3119
  147SAPE   C2416173   1.866   3.658   7.041 -0.6836  0.2388  0.2558
  147SAPE   H4R16174   1.828   3.707   7.133 -1.9473  0.8013 -0.5486
  147SAPE   H4S16175   1.965   3.609   7.047 -1.2696 -1.0709 -0.4807
  147SAPE   C2516176   1.769   3.549   7.009  0.4469 -0.1026 -0.5991
  147SAPE   H5R16177   1.757   3.533   6.901 -0.4794  1.0053 -0.6720
  147SAPE   C2616178   1.695   3.485   7.107  0.1325  0.7185  0.0588
  147SAPE   H6R16179   1.629   3.403   7.076 -1.9906  0.9201  3.7012
  147SAPE   C2716180   1.693   3.509   7.256  0.1674 -0.4991 -0.3543
  147SAPE   H7R16181   1.788   3.559   7.282 -0.1837 -0.6225  1.2367
  147SAPE   H7S16182   1.710   3.410   7.302  3.0288  0.1725  0.0960
  147SAPE   C2816183   1.577   3.583   7.315  0.1406 -0.2888 -0.2495
  147SAPE   H8R16184   1.521   3.637   7.238  1.8587  0.2567 -1.1374
  147SAPE   C2916185   1.527   3.590   7.440 -0.4554  0.1486 -0.0921
  147SAPE   H9R16186   1.428   3.636   7.453 -0.4691 -0.2218  1.2242
  147SAPE  C21016187   1.585   3.527   7.569 -0.0504  0.0472  0.6324
  147SAPE  H10R16188   1.669   3.592   7.601  1.8648 -1.6980 -0.7569
  147SAPE  H10S16189   1.638   3.433   7.545 -1.0318 -0.2700 -0.3512
  147SAPE  C21116190   1.481   3.511   7.676  0.3637 -0.0021 -0.6881
  147SAPE  H11R16191   1.390   3.460   7.642 -0.2737  0.1844  0.6945
  147SAPE  C21216192   1.483   3.562   7.803  0.2964 -0.4280  0.0865
  147SAPE  H12R16193   1.395   3.565   7.869 -1.9662  1.5593 -2.9162
  147SAPE  C21316194   1.593   3.646   7.865  0.3001  0.2129  0.1593
  147SAPE  H13R16195   1.590   3.751   7.828 -1.4742  0.9349  2.1919
  147SAPE  H13S16196   1.689   3.613   7.820  1.0559  1.0613  1.1015
  147SAPE  C21416197   1.612   3.622   8.009 -0.4086  0.9218 -0.9352
  147SAPE  H14R16198   1.632   3.517   8.034 -1.0900  0.7853 -0.9691
  147SAPE  C21516199   1.612   3.713   8.108 -0.3613 -0.0753 -0.0521
  147SAPE  H15R16200   1.633   3.689   8.213  1.6256  3.4989  0.4654
  147SAPE  C21616201   1.571   3.861   8.079 -0.3139 -0.5200 -0.2346
  147SAPE  H16R16202   1.467   3.871   8.116 -0.3404  0.3403 -0.5329
  147SAPE  H16S16203   1.568   3.881   7.970  0.1218 -1.6944 -0.4763
  147SAPE  C21716204   1.650   3.966   8.162 -0.0544  0.4569  0.3869
  147SAPE  H17R16205   1.741   3.999   8.108 -0.9183 -0.8368 -1.9227
  147SAPE  H17S16206   1.688   3.927   8.259 -0.4152 -0.4742  0.1533
  147SAPE  C21816207   1.564   4.092   8.178  0.8863  0.3394 -0.3148
  147SAPE  H18R16208   1.463   4.064   8.216  0.8722  2.2099  1.0731
  147SAPE  H18S16209   1.536   4.138   8.081 -0.8762  0.2899  0.1537
  147SAPE  C21916210   1.637   4.197   8.261  0.4177 -0.3641 -0.2117
  147SAPE  H19R16211   1.733   4.219   8.210  1.8124 -3.5104  0.9527
  147SAPE  H19S16212   1.661   4.169   8.366  0.6355 -0.2250 -0.2240
  147SAPE  C22016213   1.555   4.327   8.263  0.0106  0.6659  0.2648
  147SAPE  H20R16214   1.612   4.408   8.314 -0.9436  0.1779  2.1617
  147SAPE  H20S16215   1.472   4.304   8.333 -0.8047  1.6624 -0.3554
  147SAPE  H20T16216   1.518   4.357   8.162  1.6429 -1.5474 -1.0374
  147SAPE   C3316217   1.928   4.421   7.272 -0.6501  0.1292 -0.0299
  147SAPE   H3X16218   1.889   4.525   7.282  0.5963  0.7494 -1.3725
  147SAPE   H3Y16219   2.021   4.424   7.332  0.7182 -1.7856 -1.9793
  147SAPE   C3416220   1.836   4.325   7.349  0.4106 -0.3053  0.6687
  147SAPE   H4X16221   1.866   4.225   7.311  0.5652 -0.3348  0.8698
  147SAPE   H4Y16222   1.729   4.325   7.320 -0.3688  1.2763  3.4326
  147SAPE   C3516223   1.848   4.354   7.501 -0.0763 -0.0539  0.5765
  147SAPE   H5X16224   1.953   4.339   7.534  0.0026  1.0750  0.8623
  147SAPE   H5Y16225   1.780   4.278   7.544  1.4087 -2.6701 -1.5708
  147SAPE   C3616226   1.809   4.495   7.554 -0.2067  0.7059  0.1976
  147SAPE   H6X16227   1.698   4.501   7.549 -0.3940 -1.1953  1.5639
  147SAPE   H6Y16228   1.847   4.580   7.493 -2.0271  0.3167 -1.5343
  147SAPE   C3716229   1.849   4.527   7.700  0.5512 -0.0053  0.7087
  147SAPE   H7X16230   1.956   4.523   7.731  0.2825  0.2982  1.7089
  147SAPE   H7Y16231   1.790   4.448   7.753  0.0078 -1.3170 -1.7970
  147SAPE   C3816232   1.790   4.658   7.744 -0.0488  0.0990 -0.1104
  147SAPE   H8X16233   1.692   4.676   7.694 -0.5195 -2.2018 -0.0736
  147SAPE   H8Y16234   1.860   4.736   7.708  0.0198 -0.6453 -1.6150
  147SAPE   C3916235   1.753   4.674   7.893 -0.0909  0.2232 -0.2166
  147SAPE   H9X16236   1.669   4.602   7.903 -0.8979  1.2459  0.4739
  147SAPE   H9Y16237   1.714   4.773   7.925 -0.0933 -0.0083  0.5266
  147SAPE  C31016238   1.869   4.635   7.985 -0.3661 -0.8178  0.1514
  147SAPE  H10X16239   1.962   4.674   7.938 -0.6577 -2.6684 -2.0151
  147SAPE  H10Y16240   1.886   4.525   7.990  1.0007 -0.6884 -1.4577
  147SAPE  C31116241   1.850   4.689   8.123  0.4009 -1.4974 -0.1710
  147SAPE  H11X16242   1.755   4.642   8.157 -1.6529  0.1097 -3.3075
  147SAPE  H11Y16243   1.842   4.800   8.115  0.9384 -1.6079 -2.6468
  147SAPE  C31216244   1.965   4.650   8.227 -0.0646  0.3914  0.6144
  147SAPE  H12X16245   1.975   4.540   8.228  1.4409  0.5250  0.5538
  147SAPE  H12Y16246   1.933   4.677   8.331  0.4945  0.3305  0.8042
  147SAPE  C31316247   2.101   4.719   8.211  0.7158 -0.1254  0.4200
  147SAPE  H13X16248   2.078   4.827   8.198 -0.1220 -0.2961  0.4635
  147SAPE  H13Y16249   2.158   4.681   8.124 -1.0193 -1.1202 -0.3047
  147SAPE  C31416250   2.188   4.681   8.331  0.3820 -1.1898  0.7172
  147SAPE  H14X16251   2.170   4.574   8.356  2.6608 -1.6820  0.3225
  147SAPE  H14Y16252   2.159   4.736   8.423  0.0704  2.9067 -1.7018
  147SAPE  C31516253   2.343   4.696   8.312  0.4739 -0.4455 -0.1896
  147SAPE  H15X16254   2.373   4.797   8.276  0.8125  0.0539  1.4555
  147SAPE  H15Y16255   2.381   4.633   8.228 -0.1392  0.0324 -0.8200
  147SAPE  C31616256   2.418   4.643   8.437 -0.5177 -0.5715 -0.2498
  147SAPE  H16X16257   2.399   4.534   8.452 -0.0455 -0.6333 -0.1110
  147SAPE  H16Y16258   2.363   4.696   8.517 -2.3657 -0.5536 -1.4916
  147SAPE  C31716259   2.570   4.682   8.445  0.6840  0.5538  0.1370
  147SAPE  H17X16260   2.587   4.789   8.421 -1.6277  0.4781 -2.0190
  147SAPE  H17Y16261   2.620   4.613   8.373 -0.3948 -0.7551  0.6323
  147SAPE  C31816262   2.629   4.664   8.593  0.2748  0.2470  0.7662
  147SAPE  H18X16263   2.731   4.709   8.595  0.0226  0.9192 -0.8867
  147SAPE  H18Y16264   2.648   4.557   8.617 -2.5051 -0.4242  0.0821
  147SAPE  H18Z16265   2.557   4.703   8.668 -1.7101  1.9410 -1.9604
  148SAPE     N16266   0.853   1.538   6.709  0.4500  0.0296  0.3580
  148SAPE   HN116267   0.860   1.435   6.697  1.5032  0.1446 -0.0140
  148SAPE   HN216268   0.933   1.596   6.676  0.7447  0.2545  1.4215
  148SAPE   HN316269   0.841   1.561   6.810 -1.1324  0.7132  0.0352
  148SAPE   C1216270   0.719   1.593   6.656 -0.1057 -0.7835  0.6556
  148SAPE  H12A16271   0.635   1.552   6.715  1.7446 -1.5443  2.8325
  148SAPE  H12B16272   0.719   1.568   6.548 -1.8282  2.2942 -0.0882
  148SAPE   C1116273   0.699   1.744   6.689  0.5274  0.2217  0.1526
  148SAPE  H11A16274   0.792   1.799   6.664  0.6756  0.0393  0.2932
  148SAPE  H11B16275   0.687   1.764   6.798  2.8932  0.2483  0.4362
  148SAPE     P16276   0.451   1.798   6.693 -0.0014 -0.2845 -0.2536
  148SAPE   O1316277   0.365   1.898   6.620 -0.2170  0.2427  0.0536
  148SAPE   O1416278   0.405   1.657   6.710 -0.1520 -0.0975  0.3154
  148SAPE   O1216279   0.587   1.802   6.610 -0.9200 -0.4727 -0.0570
  148SAPE   O1116280   0.476   1.858   6.840  0.8673  0.9525  0.1413
  148SAPE    C116281   0.434   1.994   6.866 -0.6205  0.0040 -0.1043
  148SAPE    HA16282   0.330   2.008   6.830 -0.2620  1.1929 -0.7311
  148SAPE    HB16283   0.441   2.005   6.976  0.6341 -0.8693 -0.0913
  148SAPE    C216284   0.527   2.100   6.800  0.4268  0.2218  0.2202
  148SAPE    HS16285   0.496   2.097   6.693  1.0426  0.3299  0.0331
  148SAPE   O2116286   0.666   2.063   6.817 -0.1499 -0.3221 -0.3320
  148SAPE   C2116287   0.748   2.095   6.702 -0.1887  0.8709  0.4351
  148SAPE   O2216288   0.705   2.137   6.600  0.0740 -0.2192  0.2417
  148SAPE   C2216289   0.898   2.075   6.733 -0.2213 -0.3948 -0.2022
  148SAPE   H2R16290   0.917   1.975   6.689 -1.9970 -0.3662 -1.0562
  148SAPE   H2S16291   0.956   2.145   6.669  1.1201 -0.2926  1.0926
  148SAPE    C316292   0.507   2.243   6.847  0.3531  0.5268 -0.4907
  148SAPE    HX16293   0.400   2.269   6.838  0.0788 -0.2773  0.3761
  148SAPE    HY16294   0.568   2.310   6.783  1.6904  0.3401  0.5397
  148SAPE   O3116295   0.545   2.267   6.985 -0.6200  0.4836  0.1882
  148SAPE   C3116296   0.657   2.323   7.013 -0.4412  0.2947  0.6983
  148SAPE   O3216297   0.739   2.367   6.927  0.1321  0.5941  0.2272
  148SAPE   C3216298   0.678   2.327   7.166  0.4364 -0.4904  0.0428
  148SAPE   H2X16299   0.769   2.268   7.192 -0.2254 -1.4499  0.2193
  148SAPE   H2Y16300   0.589   2.291   7.221 -0.1172  0.0117 -0.5280
  148SAPE   C2316301   0.935   2.113   6.878  0.1568  0.3524  1.0236
  148SAPE   H3R16302   0.876   2.056   6.954  0.6137 -1.4049  0.0880
  148SAPE   H3S16303   0.914   2.221   6.894  1.5871  1.1622 -2.2168
  148SAPE   C2416304   1.080   2.093   6.923  0.6398  0.3410  0.7448
  148SAPE   H4R16305   1.148   2.131   6.844 -0.1123  0.6614  0.2523
  148SAPE   H4S16306   1.104   1.984   6.931 -0.8023 -0.0600 -0.3758
  148SAPE   C2516307   1.120   2.169   7.048 -0.6073 -0.5335  0.5416
  148SAPE   H5R16308   1.082   2.272   7.047 -0.7348 -0.5824  0.0962
  148SAPE   C2616309   1.191   2.116   7.146 -0.6110  0.7734 -0.2602
  148SAPE   H6R16310   1.223   2.178   7.232  0.9355  0.3661 -0.5352
  148SAPE   C2716311   1.235   1.976   7.174 -0.4775  0.3614 -0.1823
  148SAPE   H7R16312   1.173   1.897   7.126 -2.9379  0.8170  2.1402
  148SAPE   H7S16313   1.226   1.963   7.284 -2.7080  0.3160 -0.3421
  148SAPE   C2816314   1.378   1.957   7.142 -0.1486  0.2426 -0.8677
  148SAPE   H8R16315   1.389   1.937   7.035  0.9590 -0.5382 -0.6217
  148SAPE   C2916316   1.483   1.977   7.227 -0.2310  0.0577 -0.7689
  148SAPE   H9R16317   1.585   1.965   7.189 -0.1744 -1.3184 -0.2472
  148SAPE  C21016318   1.480   2.010   7.381 -1.3125  0.1133  0.8487
  148SAPE  H10R16319   1.455   1.921   7.443 -3.2234 -0.7822 -1.1370
  148SAPE  H10S16320   1.391   2.077   7.391 -0.9992  0.7697 -0.5992
  148SAPE  C21116321   1.607   2.079   7.430 -0.5206  0.0571  0.6574
  148SAPE  H11R16322   1.684   2.112   7.359 -0.0706 -1.3834  0.4523
  148SAPE  C21216323   1.643   2.111   7.557 -0.3655  0.6626 -0.3469
  148SAPE  H12R16324   1.741   2.158   7.571 -0.4115  0.3071  1.3188
  148SAPE  C21316325   1.570   2.073   7.683 -0.4307 -0.2663  0.5073
  148SAPE  H13R16326   1.590   1.964   7.686  0.5774 -0.0424  2.3517
  148SAPE  H13S16327   1.462   2.093   7.667 -0.5412 -0.4032  1.0632
  148SAPE  C21416328   1.624   2.136   7.802 -0.1708  0.2128 -1.0065
  148SAPE  H14R16329   1.694   2.221   7.792 -0.4459  0.1535 -3.8047
  148SAPE  C21516330   1.611   2.078   7.923 -0.0540 -0.0861 -0.3378
  148SAPE  H15R16331   1.647   2.138   8.008 -1.0045 -0.8625  0.6306
  148SAPE  C21616332   1.540   1.946   7.959 -0.6031 -0.4589 -0.0778
  148SAPE  H16R16333   1.508   1.895   7.865 -0.3068  0.1553 -0.5182
  148SAPE  H16S16334   1.448   1.975   8.014  0.0182  1.1910  0.1072
  148SAPE  C21716335   1.620   1.843   8.049  0.0492  0.0301 -0.9012
  148SAPE  H17R16336   1.646   1.895   8.144  3.2198 -0.5579 -1.3770
  148SAPE  H17S16337   1.715   1.825   7.993  2.0516  1.5689  1.8715
  148SAPE  C21816338   1.537   1.723   8.103  0.8064  0.4902  0.2253
  148SAPE  H18R16339   1.481   1.681   8.017  1.0911  0.6561 -0.0385
  148SAPE  H18S16340   1.458   1.758   8.173  0.7073 -0.3733  0.5578
  148SAPE  C21916341   1.623   1.616   8.170 -0.0830  1.0320 -0.1613
  148SAPE  H19R16342   1.650   1.668   8.264 -0.0867  0.3719  0.2018
  148SAPE  H19S16343   1.713   1.593   8.109 -0.9657 -0.1898 -1.0474
  148SAPE  C22016344   1.546   1.483   8.208 -0.4201 -0.3669  0.0013
  148SAPE  H20R16345   1.478   1.504   8.293  0.8894  0.9552  0.7710
  148SAPE  H20S16346   1.617   1.404   8.241 -1.0874 -0.4135  1.3522
  148SAPE  H20T16347   1.492   1.445   8.119 -0.0824  2.2894 -1.4039
  148SAPE   C3316348   0.706   2.474   7.208 -0.2228 -0.0366 -0.0448
  148SAPE   H3X16349   0.619   2.541   7.194 -2.0189 -2.0286  1.3486
  148SAPE   H3Y16350   0.783   2.506   7.134 -1.1501 -0.3796 -1.1705
  148SAPE   C3416351   0.757   2.491   7.349  0.5136 -0.3072 -0.4095
  148SAPE   H4X16352   0.779   2.599   7.365 -0.1703 -0.4158  1.3749
  148SAPE   H4Y16353   0.856   2.440   7.352  0.5066 -0.1886  2.6071
  148SAPE   C3516354   0.671   2.424   7.455  0.3418  0.2092  0.3629
  148SAPE   H5X16355   0.736   2.358   7.517  0.4812  0.4493  0.4715
  148SAPE   H5Y16356   0.591   2.355   7.420  0.0508 -0.3075  1.9837
  148SAPE   C3616357   0.599   2.532   7.539  0.2408 -0.1691 -0.1159
  148SAPE   H6X16358   0.515   2.571   7.477 -0.5152 -0.7031  0.5735
  148SAPE   H6Y16359   0.663   2.620   7.560 -0.4674 -0.0076  1.3959
  148SAPE   C3716360   0.557   2.486   7.673 -0.1381 -0.5109 -0.6769
  148SAPE   H7X16361   0.497   2.568   7.718  2.5653  0.6731  0.8858
  148SAPE   H7Y16362   0.642   2.465   7.741 -0.7950 -0.9606  0.0179
  148SAPE   C3816363   0.477   2.359   7.664 -0.0365  0.3630  0.2084
  148SAPE   H8X16364   0.539   2.278   7.621  1.3771  1.6914 -0.3413
  148SAPE   H8Y16365   0.392   2.374   7.594 -0.1003 -2.9918 -0.4905
  148SAPE   C3916366   0.416   2.314   7.803 -0.0312 -0.8242  0.8577
  148SAPE   H9X16367   0.373   2.212   7.810  0.4635 -0.9751  1.7120
  148SAPE   H9Y16368   0.336   2.389   7.820  0.1167  0.1237 -2.2108
  148SAPE  C31016369   0.526   2.328   7.916 -0.2410 -0.1818  0.3035
  148SAPE  H10X16370   0.536   2.439   7.922  0.4214 -0.2704  0.9001
  148SAPE  H10Y16371   0.619   2.282   7.876 -0.4276  0.8869 -1.4234
  148SAPE  C31116372   0.485   2.259   8.045  0.2486  0.1869  0.2088
  148SAPE  H11X16373   0.494   2.151   8.021 -3.2785 -0.9101  3.3296
  148SAPE  H11Y16374   0.378   2.275   8.070 -0.3904 -1.0613 -1.6796
  148SAPE  C31216375   0.581   2.300   8.161 -0.3504  0.1941 -0.0274
  148SAPE  H12X16376   0.545   2.244   8.250  2.2629 -0.6688  0.5404
  148SAPE  H12Y16377   0.577   2.410   8.177 -2.2810  0.2118 -0.5246
  148SAPE  C31316378   0.728   2.252   8.136  0.6164 -0.0886 -0.4211
  148SAPE  H13X16379   0.771   2.316   8.056 -2.0735 -0.7774 -2.4936
  148SAPE  H13Y16380   0.734   2.148   8.096 -1.2451 -0.0863 -0.7458
  148SAPE  C31416381   0.830   2.245   8.249  0.4091 -0.7285  0.1038
  148SAPE  H14X16382   0.806   2.334   8.312  0.0337 -1.1105  0.5054
  148SAPE  H14Y16383   0.934   2.247   8.212  0.4642  0.6669  0.2759
  148SAPE  C31516384   0.806   2.123   8.344 -0.5819 -0.4226 -0.0626
  148SAPE  H15X16385   0.799   2.027   8.289  4.0010  0.6784 -2.8487
  148SAPE  H15Y16386   0.716   2.142   8.406 -0.3751 -3.1075  1.1555
  148SAPE  C31616387   0.911   2.114   8.458  0.6740 -0.1932  0.3838
  148SAPE  H16X16388   0.926   2.209   8.513 -0.9226 -1.2348  2.7182
  148SAPE  H16Y16389   1.007   2.079   8.415  0.8049 -0.0421  0.5570
  148SAPE  C31716390   0.877   2.010   8.565  0.4923  1.0893 -0.6133
  148SAPE  H17X16391   0.908   1.910   8.527  0.1786  0.0970  1.6411
  148SAPE  H17Y16392   0.770   2.007   8.595  0.7950  3.9239  0.9450
  148SAPE  C31816393   0.958   2.041   8.692 -0.5614 -0.1698 -0.1444
  148SAPE  H18X16394   1.060   2.007   8.664 -0.7302 -1.2001  0.4792
  148SAPE  H18Y16395   0.907   1.986   8.774 -0.8104  0.6443  0.2470
  148SAPE  H18Z16396   0.964   2.149   8.716 -0.5933 -0.6839  2.2621
  149SAPE     N16397   1.336   3.256   6.331  0.1874  0.3538 -0.8850
  149SAPE   HN116398   1.313   3.300   6.422  2.7540 -1.7868  0.8586
  149SAPE   HN216399   1.374   3.167   6.369  2.7813  1.2660 -1.2852
  149SAPE   HN316400   1.419   3.314   6.308 -0.1145  0.4072 -1.8624
  149SAPE   C1216401   1.218   3.248   6.237 -0.2141 -0.3485 -0.4928
  149SAPE  H12A16402   1.170   3.148   6.244 -0.2707 -0.2072  1.3491
  149SAPE  H12B16403   1.257   3.277   6.137 -0.8896  1.4426 -0.2718
  149SAPE   C1116404   1.124   3.359   6.279 -0.3013 -0.3889  0.3673
  149SAPE  H11A16405   1.026   3.345   6.229 -0.3211  0.6952  0.0749
  149SAPE  H11B16406   1.158   3.459   6.243 -3.4163  0.3232 -0.7188
  149SAPE     P16407   0.975   3.416   6.491 -0.0487 -0.0995  0.1933
  149SAPE   O1316408   1.009   3.545   6.557  0.4314  0.1216  0.1976
  149SAPE   O1416409   0.864   3.410   6.393  0.0424 -0.3846  0.0778
  149SAPE   O1216410   1.107   3.369   6.421  0.3057  0.0330  0.6782
  149SAPE   O1116411   0.940   3.301   6.603 -0.1415 -0.0363  0.0336
  149SAPE    C116412   1.045   3.248   6.681 -0.5377 -1.1777 -0.3284
  149SAPE    HA16413   1.098   3.168   6.624 -1.7660 -0.0935 -3.0537
  149SAPE    HB16414   1.123   3.323   6.708 -0.3073 -1.3578 -0.4830
  149SAPE    C216415   0.988   3.182   6.802  0.4715  0.3351 -0.0818
  149SAPE    HS16416   0.910   3.108   6.770  0.5211  0.6446 -0.9246
  149SAPE   O2116417   0.930   3.283   6.889 -0.2180 -0.9200 -0.0913
  149SAPE   C2116418   0.806   3.261   6.943  0.0249  0.1729  0.0773
  149SAPE   O2216419   0.740   3.158   6.931 -0.2466  0.8091  0.1997
  149SAPE   C2216420   0.761   3.389   7.017  0.4023  0.6039  0.0424
  149SAPE   H2R16421   0.856   3.447   7.014  0.7747  0.0818  1.4197
  149SAPE   H2S16422   0.682   3.440   6.958 -1.2247 -2.4021 -0.4814
  149SAPE    C316423   1.094   3.107   6.882  0.5980  0.2113 -0.7485
  149SAPE    HX16424   1.118   3.009   6.835  2.6346  1.0017 -1.4268
  149SAPE    HY16425   1.051   3.090   6.983  0.0188  4.0878 -0.2879
  149SAPE   O3116426   1.210   3.188   6.897 -0.4247  0.2233  0.1841
  149SAPE   C3116427   1.331   3.148   6.858  0.0780  0.0719  0.1041
  149SAPE   O3216428   1.348   3.044   6.790 -0.2144  0.2830 -0.1667
  149SAPE   C3216429   1.451   3.243   6.907 -0.2612  0.3052 -0.2008
  149SAPE   H2X16430   1.422   3.303   6.996 -0.7174  0.7175 -0.6182
  149SAPE   H2Y16431   1.477   3.312   6.823  1.4792  1.6492  1.4141
  149SAPE   C2316432   0.722   3.365   7.165 -0.4441 -0.7121 -0.0008
  149SAPE   H3R16433   0.808   3.317   7.217 -0.0246 -0.8986 -0.8404
  149SAPE   H3S16434   0.649   3.281   7.166  0.7765 -1.8592 -1.5660
  149SAPE   C2416435   0.674   3.494   7.236 -0.3639 -0.2320 -0.3807
  149SAPE   H4R16436   0.607   3.552   7.169 -2.0629 -1.6072  0.0773
  149SAPE   H4S16437   0.756   3.561   7.268 -0.7285 -1.3584  3.1401
  149SAPE   C2516438   0.594   3.456   7.351 -0.2362 -0.7053 -0.7587
  149SAPE   H5R16439   0.495   3.418   7.323 -0.4368 -0.2158 -0.7178
  149SAPE   C2616440   0.625   3.464   7.478  0.5614 -0.6383 -0.1737
  149SAPE   H6R16441   0.538   3.423   7.532  0.5047  0.8049  0.8397
  149SAPE   C2716442   0.741   3.518   7.547 -0.8017  0.1828 -0.3332
  149SAPE   H7R16443   0.715   3.513   7.655  1.2438  0.2851  0.1733
  149SAPE   H7S16444   0.750   3.628   7.529  0.8206  0.1733  0.4154
  149SAPE   C2816445   0.872   3.458   7.514  0.4650  0.0216 -0.1847
  149SAPE   H8R16446   0.867   3.413   7.414 -2.8304 -1.7506  0.7277
  149SAPE   C2916447   0.975   3.427   7.595 -0.1781  0.3932 -0.7628
  149SAPE   H9R16448   1.070   3.392   7.553 -1.6810 -3.4125 -1.1867
  149SAPE  C21016449   0.979   3.450   7.744 -0.5958 -0.0703 -0.2450
  149SAPE  H10R16450   0.882   3.422   7.789 -0.5387 -0.2300 -0.2210
  149SAPE  H10S16451   0.983   3.560   7.761 -0.0569  0.1779 -1.8052
  149SAPE  C21116452   1.094   3.380   7.811 -0.1424 -0.2319 -0.2725
  149SAPE  H11R16453   1.135   3.297   7.751 -1.7758 -0.0143 -1.7337
  149SAPE  C21216454   1.147   3.415   7.923 -1.1222  0.0457 -0.1874
  149SAPE  H12R16455   1.233   3.358   7.959 -0.5295  0.5599 -0.7764
  149SAPE  C21316456   1.102   3.530   8.013  0.2933  0.1441  0.4631
  149SAPE  H13R16457   1.001   3.560   7.978  0.7014  1.9974  0.8145
  149SAPE  H13S16458   1.167   3.618   7.993 -0.4961  0.0216 -2.9109
  149SAPE  C21416459   1.084   3.477   8.154 -0.4743 -0.0059  0.5419
  149SAPE  H14R16460   0.986   3.427   8.164  0.5078 -2.7606 -2.4790
  149SAPE  C21516461   1.153   3.504   8.264 -0.4422 -0.4349 -0.7529
  149SAPE  H15R16462   1.119   3.473   8.364  0.2178  1.3421  0.0486
  149SAPE  C21616463   1.268   3.593   8.290 -0.1181  0.4161 -0.3145
  149SAPE  H16R16464   1.309   3.632   8.194  0.3756  0.5275 -0.0613
  149SAPE  H16S16465   1.351   3.546   8.347 -2.4278 -1.7348  1.3537
  149SAPE  C21716466   1.209   3.715   8.370  0.8609 -0.2875  0.5821
  149SAPE  H17R16467   1.153   3.681   8.460  0.4116  0.4990  0.6130
  149SAPE  H17S16468   1.129   3.762   8.308 -2.8385 -2.6561  3.2938
  149SAPE  C21816469   1.319   3.810   8.402 -0.0163  0.6559 -0.4865
  149SAPE  H18R16470   1.352   3.856   8.306  1.0078 -2.1619 -1.5277
  149SAPE  H18S16471   1.414   3.762   8.435  1.3980  2.4700 -1.7759
  149SAPE  C21916472   1.273   3.911   8.507  0.6521  0.0444 -0.1664
  149SAPE  H19R16473   1.241   3.858   8.600  1.4453 -0.4958 -0.1910
  149SAPE  H19S16474   1.197   3.978   8.465  2.9901  1.7527 -1.8010
  149SAPE  C22016475   1.395   3.999   8.550  0.4386 -0.7683 -0.0716
  149SAPE  H20R16476   1.367   4.079   8.623 -2.7359 -1.1322 -0.8426
  149SAPE  H20S16477   1.440   4.045   8.459 -1.2805  0.5844 -0.2665
  149SAPE  H20T16478   1.467   3.941   8.613 -1.7803 -2.0764  1.3279
  149SAPE   C3316479   1.582   3.163   6.943  0.0194  0.1187  0.1605
  149SAPE   H3X16480   1.673   3.226   6.948 -1.3179  2.0415  0.8767
  149SAPE   H3Y16481   1.597   3.083   6.867  3.4947  0.5485  0.3187
  149SAPE   C3416482   1.588   3.121   7.087  0.0130  0.2141  0.2054
  149SAPE   H4X16483   1.606   3.201   7.162 -0.7331  1.2950 -0.7407
  149SAPE   H4Y16484   1.667   3.044   7.102  0.1312  0.3372  0.2114
  149SAPE   C3516485   1.460   3.045   7.129 -0.2349  0.4943  0.4034
  149SAPE   H5X16486   1.438   2.976   7.045 -2.3773  1.5062  0.1095
  149SAPE   H5Y16487   1.368   3.106   7.128  0.1433  1.1041 -2.1178
  149SAPE   C3616488   1.474   2.952   7.255  0.0091 -0.0814 -0.0221
  149SAPE   H6X16489   1.547   2.877   7.218 -0.3878  0.5654 -2.1891
  149SAPE   H6Y16490   1.378   2.898   7.271 -0.1316 -0.1204 -0.9696
  149SAPE   C3716491   1.506   3.028   7.381 -0.3518  0.3620  0.0070
  149SAPE   H7X16492   1.430   3.102   7.412 -1.5574 -1.4790  1.6042
  149SAPE   H7Y16493   1.598   3.085   7.357  0.8802 -1.3237  0.5735
  149SAPE   C3816494   1.535   2.938   7.495  0.3919  0.9775 -0.5381
  149SAPE   H8X16495   1.618   2.867   7.476 -0.2388  0.6526 -2.1863
  149SAPE   H8Y16496   1.445   2.876   7.511 -0.1410  1.7885 -0.3242
  149SAPE   C3916497   1.568   3.005   7.624 -0.4637 -0.0392  0.1242
  149SAPE   H9X16498   1.659   3.068   7.624 -1.3000  1.2017 -2.0169
  149SAPE   H9Y16499   1.579   2.922   7.697  0.1269 -0.7344 -0.7363
  149SAPE  C31016500   1.460   3.092   7.681 -0.3108  0.0337  0.4503
  149SAPE  H10X16501   1.363   3.048   7.650  0.4787  0.1698 -2.2726
  149SAPE  H10Y16502   1.464   3.187   7.624  0.4714 -0.3809 -0.1945
  149SAPE  C31116503   1.437   3.111   7.832  0.2529 -0.5362  0.6249
  149SAPE  H11X16504   1.418   3.010   7.873  0.4516 -1.4380 -1.4166
  149SAPE  H11Y16505   1.346   3.172   7.848  1.0149  1.1489 -1.1603
  149SAPE  C31216506   1.562   3.177   7.904  0.2146 -0.4325 -0.9822
  149SAPE  H12X16507   1.581   3.276   7.856 -2.6569  0.5935 -0.0821
  149SAPE  H12Y16508   1.653   3.116   7.888  0.2731 -0.7854  0.6519
  149SAPE  C31316509   1.524   3.215   8.050 -0.3296 -0.6738  0.1586
  149SAPE  H13X16510   1.491   3.123   8.103 -0.4178 -2.6042 -3.0971
  149SAPE  H13Y16511   1.442   3.289   8.050 -0.7878 -1.1285  3.0190
  149SAPE  C31416512   1.650   3.258   8.125  0.3262 -0.0657  0.2480
  149SAPE  H14X16513   1.710   3.335   8.072 -3.9398  2.6254 -0.8396
  149SAPE  H14Y16514   1.716   3.169   8.132  0.3883 -0.3435 -2.8514
  149SAPE  C31516515   1.623   3.307   8.266  0.3423 -0.0009  0.1963
  149SAPE  H15X16516   1.594   3.224   8.335 -1.4323 -0.7182 -1.3897
  149SAPE  H15Y16517   1.541   3.382   8.264 -0.8666 -1.2575  1.5854
  149SAPE  C31616518   1.749   3.367   8.329  1.2236 -0.1553  0.5821
  149SAPE  H16X16519   1.783   3.452   8.266  1.9964 -1.0779 -0.2730
  149SAPE  H16Y16520   1.833   3.294   8.331  2.2208  0.9560  0.1376
  149SAPE  C31716521   1.727   3.421   8.473  0.4828 -0.7724  0.6923
  149SAPE  H17X16522   1.656   3.506   8.459 -2.2476 -3.0538  0.3018
  149SAPE  H17Y16523   1.828   3.457   8.501 -0.1839  1.6220  0.2106
  149SAPE  C31816524   1.679   3.321   8.575 -0.1372  0.1384  0.7419
  149SAPE  H18X16525   1.688   3.365   8.677  0.7902 -0.6333  1.0053
  149SAPE  H18Y16526   1.744   3.231   8.571 -2.0832 -1.2170 -1.6035
  149SAPE  H18Z16527   1.573   3.288   8.570 -0.3851  1.2091 -1.5743
  150SAPE     N16528   6.289   4.225   6.177  0.0826  0.4089 -0.4501
  150SAPE   HN116529   6.285   4.124   6.200 -2.9674  0.2588 -1.4002
  150SAPE   HN216530   6.190   4.258   6.179  0.2161  0.8573 -1.1941
  150SAPE   HN316531   6.334   4.237   6.084  0.9867 -1.6309 -0.2882
  150SAPE   C1216532   6.372   4.290   6.285  0.2914  0.0153 -0.0577
  150SAPE  H12A16533   6.387   4.396   6.258  0.0328  0.4188  1.3569
  150SAPE  H12B16534   6.473   4.246   6.273 -1.2277 -4.1454  1.3943
  150SAPE   C1116535   6.319   4.259   6.420 -0.2195 -0.0812 -0.5126
  150SAPE  H11A16536   6.378   4.316   6.495 -1.0424  1.4951 -1.0385
  150SAPE  H11B16537   6.342   4.151   6.435  0.9196  0.4367  1.5152
  150SAPE     P16538   6.113   4.429   6.429 -0.0069 -0.1074  0.6917
  150SAPE   O1316539   6.135   4.473   6.293  0.2051 -0.1409 -0.6161
  150SAPE   O1416540   5.970   4.434   6.469  0.4076  0.1801 -0.0925
  150SAPE   O1216541   6.175   4.287   6.432 -0.0253  0.3965 -0.7521
  150SAPE   O1116542   6.200   4.524   6.525 -0.1792  0.4177  0.2624
  150SAPE    C116543   6.232   4.478   6.653 -0.0399 -0.1498 -0.2801
  150SAPE    HA16544   6.145   4.473   6.722  1.3605 -1.2952  1.4306
  150SAPE    HB16545   6.277   4.377   6.653 -1.0211 -0.5902  0.5630
  150SAPE    C216546   6.337   4.567   6.724  0.4611 -0.2088  0.1637
  150SAPE    HS16547   6.331   4.548   6.834 -1.7755 -0.3067  0.0481
  150SAPE   O2116548   6.299   4.705   6.711 -0.3999  0.2740  0.5302
  150SAPE   C2116549   6.191   4.741   6.784  0.1257  0.5968 -0.0874
  150SAPE   O2216550   6.135   4.666   6.863 -0.5131  0.0046  0.1382
  150SAPE   C2216551   6.146   4.878   6.737 -0.0278 -0.0463  0.1435
  150SAPE   H2R16552   6.163   4.874   6.627  0.6626 -0.8146  0.2738
  150SAPE   H2S16553   6.038   4.898   6.749 -0.0415 -0.4579  0.6873
  150SAPE    C316554   6.479   4.551   6.670 -0.2014  0.7975  0.7781
  150SAPE    HX16555   6.495   4.618   6.583  0.5191 -0.1490  0.1838
  150SAPE    HY16556   6.497   4.446   6.640  0.4863  1.1872 -0.1826
  150SAPE   O3116557   6.572   4.599   6.771 -0.2226  0.1027  0.3123
  150SAPE   C3116558   6.609   4.510   6.865 -0.7956  0.0518 -0.4751
  150SAPE   O3216559   6.585   4.392   6.868 -0.3006  0.3046  0.1478
  150SAPE   C3216560   6.695   4.585   6.968  0.3515 -0.8387  0.3000
  150SAPE   H2X16561   6.650   4.686   6.976 -1.5152 -1.6984  0.9921
  150SAPE   H2Y16562   6.799   4.594   6.930  0.0139 -1.4464 -0.8004
  150SAPE   C2316563   6.220   5.007   6.790 -0.8050 -0.0396 -0.2446
  150SAPE   H3R16564   6.203   5.095   6.724 -1.7629 -1.4670 -1.9340
  150SAPE   H3S16565   6.330   4.993   6.785 -0.8444  0.2220 -2.2883
  150SAPE   C2416566   6.184   5.050   6.932 -0.0936 -0.0312 -0.5310
  150SAPE   H4R16567   6.088   5.106   6.928  0.2054  0.3706 -2.2856
  150SAPE   H4S16568   6.261   5.126   6.957 -1.6130  0.6863  2.1008
  150SAPE   C2516569   6.173   4.943   7.035  0.1717 -0.3305 -0.5526
  150SAPE   H5R16570   6.080   4.889   7.013 -1.3346  2.0762 -0.2216
  150SAPE   C2616571   6.273   4.907   7.120  1.4548 -0.1906  0.2067
  150SAPE   H6R16572   6.255   4.826   7.192  0.1656  0.8252  1.0658
  150SAPE   C2716573   6.399   4.987   7.131 -0.2908 -1.2986  0.2168
  150SAPE   H7R16574   6.429   4.979   7.238 -0.0469 -0.9516  0.1751
  150SAPE   H7S16575   6.373   5.095   7.125 -0.9827 -1.5132 -0.9552
  150SAPE   C2816576   6.512   4.951   7.030  0.5138  0.3091 -0.0854
  150SAPE   H8R16577   6.483   4.895   6.939  2.3978  0.5933 -0.8929
  150SAPE   C2916578   6.637   4.992   7.047  0.8605  0.1453  0.3751
  150SAPE   H9R16579   6.717   4.958   6.979  2.4639 -1.2369  2.8582
  150SAPE  C21016580   6.681   5.082   7.156  0.9958 -0.6931  0.3880
  150SAPE  H10R16581   6.597   5.113   7.223  1.4950 -0.3339  0.8465
  150SAPE  H10S16582   6.700   5.173   7.096 -1.2302  0.1678  0.9168
  150SAPE  C21116583   6.804   5.043   7.237 -0.3930  0.0224 -0.0750
  150SAPE  H11R16584   6.896   5.062   7.178 -1.8343  1.0683 -2.0315
  150SAPE  C21216585   6.810   5.010   7.364 -0.3645 -0.0400  0.6241
  150SAPE  H12R16586   6.905   4.984   7.413 -0.5900 -1.9462  0.0704
  150SAPE  C21316587   6.687   4.998   7.455  0.2580 -0.2481  0.1257
  150SAPE  H13R16588   6.598   4.972   7.394 -0.6289 -2.1572  2.1454
  150SAPE  H13S16589   6.662   5.095   7.503 -0.9539  0.3972 -1.7774
  150SAPE  C21416590   6.697   4.885   7.552  0.2597 -0.7041  0.3211
  150SAPE  H14R16591   6.692   4.785   7.505  3.0570 -0.5720 -0.3298
  150SAPE  C21516592   6.743   4.887   7.681  0.0763 -0.1487 -0.7361
  150SAPE  H15R16593   6.745   4.798   7.745  3.2034  0.6129  0.3247
  150SAPE  C21616594   6.798   5.009   7.762 -0.2159  0.1437  0.9699
  150SAPE  H16R16595   6.772   5.098   7.702 -2.2793 -0.6801  0.5876
  150SAPE  H16S16596   6.908   5.011   7.777 -0.1892  0.0089  0.8041
  150SAPE  C21716597   6.740   5.021   7.904 -0.1905  0.3556  0.1610
  150SAPE  H17R16598   6.787   5.114   7.944  1.5414  0.7680 -2.6721
  150SAPE  H17S16599   6.764   4.927   7.957 -1.0108  0.5644  0.9014
  150SAPE  C21816600   6.594   5.044   7.899 -0.1907 -0.0889  0.2866
  150SAPE  H18R16601   6.542   4.960   7.848 -2.2112  0.3164  1.5821
  150SAPE  H18S16602   6.563   5.141   7.853 -1.8585 -0.3183  0.8715
  150SAPE  C21916603   6.525   5.051   8.033 -0.4437  0.1455 -0.5984
  150SAPE  H19R16604   6.556   5.134   8.100  3.3428 -3.2854  2.0674
  150SAPE  H19S16605   6.537   4.953   8.083 -0.0112  0.1430 -0.7077
  150SAPE  C22016606   6.373   5.078   8.017  0.3317  0.4710  0.4415
  150SAPE  H20R16607   6.329   4.980   7.987  0.2962  0.4511  0.5576
  150SAPE  H20S16608   6.355   5.156   7.940  1.7006  1.0420  0.6884
  150SAPE  H20T16609   6.323   5.113   8.110 -0.9907 -0.1095 -0.0406
  150SAPE   C3316610   6.680   4.515   7.101  0.3454  0.1018 -0.0541
  150SAPE   H3X16611   6.725   4.413   7.093 -1.6588 -1.0249  2.2140
  150SAPE   H3Y16612   6.578   4.498   7.141  0.9797 -0.4718  1.3780
  150SAPE   C3416613   6.764   4.580   7.215 -0.8842  0.0346 -0.1321
  150SAPE   H4X16614   6.713   4.670   7.257 -1.4757 -1.1272  1.6781
  150SAPE   H4Y16615   6.858   4.614   7.166 -1.9612  1.1547 -1.4423
  150SAPE   C3516616   6.796   4.486   7.320  0.2007 -0.0612  0.2362
  150SAPE   H5X16617   6.843   4.397   7.274  3.5827  0.0712  3.2511
  150SAPE   H5Y16618   6.700   4.452   7.366 -0.5910 -0.9436 -1.9631
  150SAPE   C3616619   6.896   4.546   7.422  0.2321  0.3680  0.3958
  150SAPE   H6X16620   6.861   4.647   7.452  0.1241 -0.0275  1.6460
  150SAPE   H6Y16621   6.993   4.569   7.372  0.1172 -0.7796 -0.3698
  150SAPE   C3716622   6.909   4.454   7.544 -0.1340  0.1899 -0.1323
  150SAPE   H7X16623   6.957   4.357   7.519 -1.3418 -0.2778 -0.6941
  150SAPE   H7Y16624   6.806   4.426   7.576  0.7263 -0.7945  1.9105
  150SAPE   C3816625   6.965   4.526   7.671 -0.3501 -0.0900  0.7025
  150SAPE   H8X16626   6.915   4.622   7.696  0.9630  0.3461  1.7236
  150SAPE   H8Y16627   7.071   4.548   7.644 -0.6706 -0.1893 -0.6958
  150SAPE   C3916628   6.948   4.443   7.798  0.0934 -0.4459 -0.6462
  150SAPE   H9X16629   6.985   4.342   7.771  0.1834 -0.4353 -0.5609
  150SAPE   H9Y16630   6.841   4.429   7.824 -0.0206 -0.2153 -0.9797
  150SAPE  C31016631   7.009   4.507   7.920  0.1025  0.7487 -0.0761
  150SAPE  H10X16632   6.960   4.607   7.927  0.9913  1.1617  0.2445
  150SAPE  H10Y16633   7.118   4.515   7.899  0.4412 -0.6315  1.1053
  150SAPE  C31116634   6.990   4.409   8.033  0.7378  0.3558  0.3761
  150SAPE  H11X16635   7.004   4.304   7.999 -1.0558  0.1968  0.0680
  150SAPE  H11Y16636   6.882   4.414   8.057 -0.0124  0.8929 -2.9366
  150SAPE  C31216637   7.087   4.423   8.152  0.7778  0.1116  0.1252
  150SAPE  H12X16638   7.041   4.393   8.249  3.4007 -1.7021  0.8759
  150SAPE  H12Y16639   7.094   4.533   8.160 -0.2471  0.0953  1.2997
  150SAPE  C31316640   7.226   4.357   8.123  0.6305  0.8309  0.3098
  150SAPE  H13X16641   7.279   4.420   8.048 -0.1667  0.8977 -0.1942
  150SAPE  H13Y16642   7.192   4.261   8.079 -2.0162  1.2565  1.3516
  150SAPE  C31416643   7.310   4.315   8.250  0.3003 -0.6198  0.2691
  150SAPE  H14X16644   7.232   4.294   8.326  0.3004 -1.7199 -0.0396
  150SAPE  H14Y16645   7.362   4.408   8.283 -1.0249  1.0154 -2.0896
  150SAPE  C31516646   7.407   4.204   8.226  0.0443  0.1087 -0.6808
  150SAPE  H15X16647   7.492   4.236   8.161  1.2896  1.1957  1.4363
  150SAPE  H15Y16648   7.352   4.120   8.178 -1.9189  1.3113 -0.5805
  150SAPE  C31616649   7.454   4.139   8.357 -0.2995 -0.0735  0.7491
  150SAPE  H16X16650   7.364   4.103   8.412 -0.6562 -0.8547 -0.3366
  150SAPE  H16Y16651   7.506   4.221   8.412 -0.3771  0.4780  0.0155
  150SAPE  C31716652   7.554   4.026   8.322 -0.3724 -0.7519 -0.7604
  150SAPE  H17X16653   7.638   4.061   8.258 -1.3198  0.7251 -1.2171
  150SAPE  H17Y16654   7.494   3.954   8.261 -1.7424  0.3850 -0.7874
  150SAPE  C31816655   7.597   3.950   8.450  0.1736  0.6402 -0.7377
  150SAPE  H18X16656   7.510   3.889   8.483  1.5356 -0.8238  0.2068
  150SAPE  H18Y16657   7.635   4.015   8.532  0.0619 -0.5191  0.2365
  150SAPE  H18Z16658   7.682   3.881   8.430 -0.8472 -1.4178  1.7675
  151SAPE     N16659   1.657   1.514   6.409 -0.0899 -0.1107 -0.4127
  151SAPE   HN116660   1.674   1.604   6.359 -0.8698 -0.2062 -0.8503
  151SAPE   HN216661   1.709   1.433   6.369 -1.9038 -2.4977  1.8571
  151SAPE   HN316662   1.557   1.493   6.391 -0.3123 -0.8127  1.5064
  151SAPE   C1216663   1.684   1.514   6.555 -0.9775  0.3910  0.1829
  151SAPE  H12A16664   1.646   1.416   6.591  0.2241 -0.9272 -2.0280
  151SAPE  H12B16665   1.625   1.596   6.601  1.0165  1.1445  1.4888
  151SAPE   C1116666   1.838   1.517   6.579  0.1530 -0.6104 -0.0999
  151SAPE  H11A16667   1.872   1.539   6.683  0.7323  1.4797 -0.7053
  151SAPE  H11B16668   1.876   1.611   6.533 -1.4960  0.1112 -0.0319
  151SAPE     P16669   2.070   1.404   6.512 -0.1427  0.1802  0.3677
  151SAPE   O1316670   2.119   1.266   6.478  0.1591  0.4009 -0.2288
  151SAPE   O1416671   2.108   1.512   6.420  0.1370 -0.2934  0.3584
  151SAPE   O1216672   1.910   1.400   6.530  0.1107 -0.2464  0.5576
  151SAPE   O1116673   2.115   1.444   6.653  0.0614 -0.0458 -0.4273
  151SAPE    C116674   2.152   1.581   6.686  0.1632  0.0239  0.0516
  151SAPE    HA16675   2.250   1.600   6.637  0.7031 -2.8772 -0.1139
  151SAPE    HB16676   2.078   1.651   6.642  2.3434  3.1015  1.0551
  151SAPE    C216677   2.152   1.612   6.841  0.3057 -0.1314 -0.1299
  151SAPE    HS16678   2.226   1.541   6.882  1.0275  0.5924 -0.1570
  151SAPE   O2116679   2.021   1.586   6.887  0.2669 -0.0045 -0.0112
  151SAPE   C2116680   2.001   1.464   6.928 -0.4101 -0.6593  0.8977
  151SAPE   O2216681   2.086   1.385   6.961 -0.6365  0.1867  0.3152
  151SAPE   C2216682   1.852   1.429   6.949 -0.4763 -0.0311 -0.7162
  151SAPE   H2R16683   1.800   1.526   6.938 -0.7456 -0.1389 -0.4065
  151SAPE   H2S16684   1.823   1.353   6.874  1.9879 -1.4771 -0.2712
  151SAPE    C316685   2.188   1.754   6.880  0.7127  0.1031 -0.1111
  151SAPE    HX16686   2.121   1.826   6.828 -3.4760 -1.9648  2.2274
  151SAPE    HY16687   2.295   1.773   6.856  0.7136  0.4905  0.2061
  151SAPE   O3116688   2.180   1.771   7.020  0.6250  1.0831 -0.6417
  151SAPE   C3116689   2.056   1.818   7.064 -0.0953  0.7289  0.2244
  151SAPE   O3216690   1.964   1.857   6.993 -0.4440  0.8047 -0.3985
  151SAPE   C3216691   2.059   1.832   7.212  0.1166  0.2414 -0.0023
  151SAPE   H2X16692   2.158   1.881   7.225 -0.0681  1.4282 -2.7251
  151SAPE   H2Y16693   2.065   1.727   7.248 -1.8292  0.0615 -0.1337
  151SAPE   C2316694   1.831   1.383   7.092 -0.5070 -0.0200 -0.3116
  151SAPE   H3R16695   1.916   1.317   7.120 -1.6763 -1.4449 -0.0821
  151SAPE   H3S16696   1.742   1.317   7.082 -1.6604  1.7190 -1.8238
  151SAPE   C2416697   1.822   1.478   7.212 -0.0048  0.1183 -0.4832
  151SAPE   H4R16698   1.762   1.561   7.170 -2.2867 -1.8851 -1.3280
  151SAPE   H4S16699   1.928   1.502   7.235  0.1302 -1.4627  0.6305
  151SAPE   C2516700   1.741   1.411   7.319  0.6732 -0.5372  0.0332
  151SAPE   H5R16701   1.671   1.335   7.281  0.7063  0.4991 -2.1610
  151SAPE   C2616702   1.747   1.434   7.453  0.0383 -0.5846 -0.3386
  151SAPE   H6R16703   1.676   1.380   7.518 -0.2965 -3.5943 -3.0786
  151SAPE   C2716704   1.829   1.538   7.526 -0.1882  0.7719 -0.5732
  151SAPE   H7R16705   1.876   1.606   7.452 -0.2283  2.5933  1.0422
  151SAPE   H7S16706   1.917   1.482   7.564 -0.8066 -1.3586 -2.1487
  151SAPE   C2816707   1.754   1.624   7.620 -0.0616  0.4142 -0.3621
  151SAPE   H8R16708   1.738   1.731   7.599 -2.5963 -0.0933 -1.2355
  151SAPE   C2916709   1.719   1.582   7.743  0.0746  0.1676 -0.5275
  151SAPE   H9R16710   1.654   1.650   7.800 -2.3807 -2.1881 -0.4461
  151SAPE  C21016711   1.737   1.441   7.798 -0.5590  0.9519 -0.3100
  151SAPE  H10R16712   1.775   1.379   7.714 -0.3258 -1.6223  1.6234
  151SAPE  H10S16713   1.641   1.399   7.833 -0.8703 -0.0521 -2.2745
  151SAPE  C21116714   1.833   1.424   7.913 -0.0938  0.1985 -0.5410
  151SAPE  H11R16715   1.844   1.510   7.981 -0.9580 -1.3793  1.6939
  151SAPE  C21216716   1.898   1.313   7.958  0.3011  0.3920  0.0484
  151SAPE  H12R16717   1.973   1.326   8.037 -0.7210  0.2715  1.0426
  151SAPE  C21316718   1.875   1.176   7.889  0.6460  0.3798  0.0895
  151SAPE  H13R16719   1.934   1.162   7.796  0.0884  0.8785 -0.3419
  151SAPE  H13S16720   1.771   1.166   7.852  0.6158  1.3445 -0.0971
  151SAPE  C21416721   1.910   1.061   7.979  0.8918  0.5303 -0.1262
  151SAPE  H14R16722   2.017   1.037   7.973  0.3953 -2.9129  3.1405
  151SAPE  C21516723   1.817   0.974   8.042 -0.3185 -0.1263 -0.2766
  151SAPE  H15R16724   1.857   0.895   8.108 -2.1486 -0.8606 -0.0048
  151SAPE  C21616725   1.665   0.981   8.046  0.2524  0.7299 -0.1518
  151SAPE  H16R16726   1.618   0.896   7.993  0.2503 -1.2317  2.8772
  151SAPE  H16S16727   1.615   1.069   7.998 -2.5297 -0.1592  1.0084
  151SAPE  C21716728   1.612   0.983   8.195 -0.1936  0.2630 -0.5085
  151SAPE  H17R16729   1.679   0.922   8.259  1.0203 -0.0055 -1.9847
  151SAPE  H17S16730   1.510   0.942   8.208 -0.5622  0.9089 -1.3279
  151SAPE  C21816731   1.599   1.126   8.248  0.3207 -0.5155 -0.0382
  151SAPE  H18R16732   1.535   1.199   8.193  1.5211  1.1484  0.7443
  151SAPE  H18S16733   1.699   1.174   8.246  0.9058 -1.7352 -1.3900
  151SAPE  C21916734   1.552   1.121   8.399 -0.1456 -0.8100  0.6630
  151SAPE  H19R16735   1.640   1.075   8.449 -0.3411 -1.1270  0.7123
  151SAPE  H19S16736   1.467   1.050   8.396 -0.0130 -0.9552  0.0711
  151SAPE  C22016737   1.508   1.252   8.461  0.0038  0.2476  0.5042
  151SAPE  H20R16738   1.483   1.232   8.567 -0.0188  1.8409  0.8194
  151SAPE  H20S16739   1.592   1.324   8.442  0.2102 -0.4910 -1.5329
  151SAPE  H20T16740   1.418   1.287   8.406  0.0206  1.1348  1.0238
  151SAPE   C3316741   1.939   1.907   7.268 -0.4017 -0.2083 -0.3481
  151SAPE   H3X16742   1.844   1.861   7.233  0.1334 -0.0621 -2.0672
  151SAPE   H3Y16743   1.930   2.011   7.230 -0.6545 -0.3028 -0.5514
  151SAPE   C3416744   1.943   1.913   7.422  0.3779  0.8959  0.2855
  151SAPE   H4X16745   1.929   1.811   7.462  0.1492  0.8050 -0.0273
  151SAPE   H4Y16746   1.859   1.975   7.459  1.1065  0.5872  2.5640
  151SAPE   C3516747   2.075   1.960   7.477 -0.3784  0.3190  0.5237
  151SAPE   H5X16748   2.107   2.053   7.424 -0.0778  0.1600  0.4213
  151SAPE   H5Y16749   2.159   1.889   7.457 -2.5654 -2.1096 -0.2897
  151SAPE   C3616750   2.066   1.975   7.627  0.3106 -0.4525  0.0027
  151SAPE   H6X16751   1.968   2.027   7.640  0.5199  0.3200 -1.4927
  151SAPE   H6Y16752   2.148   2.044   7.653  1.9295 -2.0277 -0.8153
  151SAPE   C3716753   2.092   1.849   7.705  0.7368 -0.9065  0.3558
  151SAPE   H7X16754   2.200   1.830   7.722  0.6856 -0.3948  1.2541
  151SAPE   H7Y16755   2.028   1.769   7.660 -0.8612  0.8233 -0.5381
  151SAPE   C3816756   2.024   1.861   7.845  0.3442  0.4806 -0.1895
  151SAPE   H8X16757   1.914   1.844   7.842  0.1059  1.2311  2.7982
  151SAPE   H8Y16758   2.050   1.961   7.887  0.8625 -0.8903  2.9153
  151SAPE   C3916759   2.087   1.769   7.946  0.2472 -0.3867 -0.0147
  151SAPE   H9X16760   2.198   1.771   7.951  0.2387  1.5957 -0.1053
  151SAPE   H9Y16761   2.064   1.663   7.922 -0.2229  0.1215 -1.8655
  151SAPE  C31016762   2.046   1.789   8.093 -0.4484 -0.2669  0.1371
  151SAPE  H10X16763   1.935   1.783   8.091 -0.3080 -2.4715 -1.8170
  151SAPE  H10Y16764   2.064   1.883   8.150 -0.6616 -0.2009  0.0948
  151SAPE  C31116765   2.085   1.668   8.186 -0.3103 -0.1478 -0.3026
  151SAPE  H11X16766   2.191   1.687   8.215 -0.1826  0.3116 -1.0459
  151SAPE  H11Y16767   2.088   1.575   8.125 -1.4935 -1.4783  1.6417
  151SAPE  C31216768   1.981   1.657   8.297 -0.8722 -0.8084  1.0413
  151SAPE  H12X16769   1.892   1.608   8.252 -0.0533 -1.5934  0.2339
  151SAPE  H12Y16770   1.962   1.754   8.347  1.7075  0.6751 -0.6963
  151SAPE  C31316771   2.034   1.559   8.400 -0.3282  0.6481  0.5951
  151SAPE  H13X16772   2.130   1.588   8.446  1.0681  0.7525 -2.2586
  151SAPE  H13Y16773   2.055   1.464   8.346 -1.4741 -0.4489  2.0280
  151SAPE  C31416774   1.929   1.540   8.508 -0.4007  0.7224 -0.2234
  151SAPE  H14X16775   1.831   1.558   8.458 -1.1313 -0.5472  0.7147
  151SAPE  H14Y16776   1.937   1.607   8.596 -0.1368  0.0548  0.2657
  151SAPE  C31516777   1.924   1.385   8.552 -0.1199  0.8899  0.4783
  151SAPE  H15X16778   2.028   1.368   8.588 -0.1217  1.1379  0.6020
  151SAPE  H15Y16779   1.886   1.315   8.475  2.2485 -0.8057  0.7817
  151SAPE  C31616780   1.829   1.377   8.679  0.7984  0.2449 -0.0380
  151SAPE  H16X16781   1.732   1.425   8.654  0.3842 -0.8493 -0.5692
  151SAPE  H16Y16782   1.860   1.438   8.767 -1.8474  1.4351  0.1224
  151SAPE  C31716783   1.787   1.235   8.717 -0.6939  0.1702  0.0324
  151SAPE  H17X16784   1.701   1.205   8.653 -0.8512  0.2311  0.2153
  151SAPE  H17Y16785   1.753   1.229   8.822 -1.3147  1.8440 -0.0528
  151SAPE  C31816786   1.904   1.132   8.717  0.5502  0.0733  0.5576
  151SAPE  H18X16787   1.963   1.121   8.623 -1.2509  1.3257 -0.7556
  151SAPE  H18Y16788   1.871   1.035   8.758  1.5483 -0.2603  0.5934
  151SAPE  H18Z16789   1.985   1.156   8.790  0.8644 -0.1790  0.2897
  152SAPE     N16790   6.538   4.897   6.359  0.1225  0.6921 -0.1258
  152SAPE   HN116791   6.518   4.980   6.299 -1.7526 -0.6152 -1.3801
  152SAPE   HN216792   6.574   4.920   6.454 -0.1054 -1.4893  0.5036
  152SAPE   HN316793   6.606   4.840   6.304  0.3910 -1.0610  1.9716
  152SAPE   C1216794   6.403   4.822   6.370 -0.0885  0.0429 -0.4860
  152SAPE  H12A16795   6.353   4.866   6.459  1.0881  0.0243  0.2026
  152SAPE  H12B16796   6.412   4.712   6.384 -0.7756 -0.2069 -1.9370
  152SAPE   C1116797   6.315   4.846   6.241  0.3702  0.2981 -0.7462
  152SAPE  H11A16798   6.206   4.828   6.247  0.2444  0.8658 -1.2465
  152SAPE  H11B16799   6.355   4.779   6.162 -0.9395 -0.0032 -1.1617
  152SAPE     P16800   6.226   5.093   6.185 -0.0138 -0.0965  0.3483
  152SAPE   O1316801   6.301   5.219   6.190 -0.9723 -1.1853 -0.3380
  152SAPE   O1416802   6.149   5.057   6.060  0.2017  0.4176  0.0439
  152SAPE   O1216803   6.332   4.979   6.192 -0.0192 -0.3207  0.3529
  152SAPE   O1116804   6.132   5.070   6.310 -0.1321  0.3264 -0.3782
  152SAPE    C116805   5.989   5.054   6.292  0.5640  0.2043  0.1498
  152SAPE    HA16806   5.949   5.154   6.267  1.6591  0.1514 -1.8937
  152SAPE    HB16807   5.959   4.988   6.208  4.0919  1.6087 -2.3149
  152SAPE    C216808   5.927   4.982   6.418  0.0981  0.2406 -0.4372
  152SAPE    HS16809   5.818   4.969   6.397  0.0147  2.3322 -1.4846
  152SAPE   O2116810   5.949   5.059   6.537 -0.3874  0.1663 -0.3533
  152SAPE   C2116811   5.883   5.171   6.540 -0.2089 -0.1937 -0.1359
  152SAPE   O2216812   5.803   5.210   6.454 -0.0763 -0.3703 -0.2572
  152SAPE   C2216813   5.919   5.251   6.665  0.7880  0.1020 -0.1386
  152SAPE   H2R16814   5.850   5.231   6.750  1.0968  2.1624  0.6121
  152SAPE   H2S16815   6.016   5.209   6.699  0.6208  0.6674  1.0729
  152SAPE    C316816   5.985   4.832   6.420 -0.6565 -0.0867 -1.1421
  152SAPE    HX16817   6.096   4.832   6.420 -0.6571 -0.7137 -1.1227
  152SAPE    HY16818   5.939   4.780   6.333 -1.1223 -2.6773  0.5902
  152SAPE   O3116819   5.942   4.773   6.549 -0.0595  0.0091  0.2225
  152SAPE   C3116820   5.824   4.720   6.562 -0.5408 -0.0386 -0.2056
  152SAPE   O3216821   5.735   4.728   6.479 -0.4028  0.1203  0.3960
  152SAPE   C3216822   5.817   4.637   6.688 -0.8500  0.1966  0.1823
  152SAPE   H2X16823   5.837   4.704   6.775  0.5866  1.4667 -1.1067
  152SAPE   H2Y16824   5.898   4.561   6.684 -1.3858 -0.5136  2.2622
  152SAPE   C2316825   5.934   5.401   6.645 -0.6983  0.2422  0.1811
  152SAPE   H3R16826   5.832   5.442   6.629 -1.1228 -1.5395 -1.8619
  152SAPE   H3S16827   5.993   5.433   6.557 -0.1526 -1.1036  0.0559
  152SAPE   C2416828   5.980   5.472   6.776  0.3656  0.3029  0.3031
  152SAPE   H4R16829   5.916   5.455   6.865  1.7351 -0.3707  1.1768
  152SAPE   H4S16830   5.971   5.581   6.755 -1.4256  0.5786  2.2422
  152SAPE   C2516831   6.121   5.447   6.802  0.1121 -0.1724  0.0174
  152SAPE   H5R16832   6.186   5.434   6.715  0.3253 -3.1278  0.5677
  152SAPE   C2616833   6.172   5.429   6.922  0.0220  0.7489 -0.1749
  152SAPE   H6R16834   6.274   5.387   6.921 -0.5957 -0.7900 -0.2131
  152SAPE   C2716835   6.105   5.440   7.065  0.7991 -0.5823  0.4448
  152SAPE   H7R16836   6.078   5.334   7.088  1.1812 -0.5633  0.9835
  152SAPE   H7S16837   6.009   5.494   7.050  0.9631 -0.3955  0.0710
  152SAPE   C2816838   6.195   5.518   7.160 -0.3748 -0.4507 -0.6954
  152SAPE   H8R16839   6.239   5.613   7.127  0.3191 -0.7483 -0.6488
  152SAPE   C2916840   6.212   5.482   7.287 -0.2671  0.3439  0.3765
  152SAPE   H9R16841   6.273   5.537   7.361  0.5903 -0.4964  0.2862
  152SAPE  C21016842   6.142   5.364   7.349 -0.0101 -0.0089 -0.2709
  152SAPE  H10R16843   6.046   5.344   7.296 -0.7836 -3.2055  2.1962
  152SAPE  H10S16844   6.115   5.383   7.455 -1.7639  0.1026 -0.7150
  152SAPE  C21116845   6.208   5.227   7.340 -0.2767  0.1416 -0.3671
  152SAPE  H11R16846   6.282   5.212   7.260 -0.4146  0.0513 -0.4791
  152SAPE  C21216847   6.165   5.119   7.410 -0.7154  0.0171 -0.5360
  152SAPE  H12R16848   6.211   5.024   7.383 -1.0522 -0.0141 -1.0256
  152SAPE  C21316849   6.057   5.111   7.511 -0.4932 -0.1625 -0.1405
  152SAPE  H13R16850   5.978   5.038   7.482 -0.5466 -0.3175  0.3874
  152SAPE  H13S16851   6.003   5.206   7.531  2.6918  1.4781  0.9800
  152SAPE  C21416852   6.123   5.065   7.643 -0.2418  0.2965 -0.0398
  152SAPE  H14R16853   6.224   5.023   7.634  0.2759  1.7126 -1.1255
  152SAPE  C21516854   6.071   5.060   7.768  0.2194  0.1120  1.0145
  152SAPE  H15R16855   6.139   5.025   7.847  2.7708 -0.2616 -1.2879
  152SAPE  C21616856   5.932   5.107   7.805 -0.3875  0.3794  0.4257
  152SAPE  H16R16857   5.867   5.107   7.715  1.3263 -0.3616 -0.8468
  152SAPE  H16S16858   5.939   5.208   7.852  3.5787  1.2615 -1.8528
  152SAPE  C21716859   5.861   5.011   7.906 -0.0264 -0.0384  0.4233
  152SAPE  H17R16860   5.876   4.905   7.875  0.1639  0.2865 -0.6230
  152SAPE  H17S16861   5.751   5.026   7.909 -0.0174 -0.0566  1.0064
  152SAPE  C21816862   5.915   5.011   8.046 -0.5830  0.1837 -0.0415
  152SAPE  H18R16863   6.025   4.995   8.049 -0.4933  0.4743 -1.3976
  152SAPE  H18S16864   5.875   4.916   8.088 -0.1458 -0.3320 -0.7610
  152SAPE  C21916865   5.846   5.123   8.133 -0.3789  0.8088  0.0320
  152SAPE  H19R16866   5.738   5.102   8.151 -0.9428  2.4483 -1.3412
  152SAPE  H19S16867   5.841   5.222   8.084 -0.0028  2.0948  2.5309
  152SAPE  C22016868   5.916   5.139   8.274 -0.0867  0.0033 -0.2985
  152SAPE  H20R16869   6.019   5.181   8.266 -0.0748  0.1156  0.4593
  152SAPE  H20S16870   5.924   5.045   8.333 -0.3386 -0.4863 -1.0287
  152SAPE  H20T16871   5.849   5.208   8.329 -0.6360 -0.7451 -0.0191
  152SAPE   C3316872   5.688   4.556   6.705  0.8522 -0.0154 -0.2098
  152SAPE   H3X16873   5.671   4.504   6.608  0.7336  0.9897 -0.7426
  152SAPE   H3Y16874   5.602   4.624   6.724  1.2731 -0.3119  2.9625
  152SAPE   C3416875   5.687   4.451   6.813  0.0251 -0.4395 -0.5058
  152SAPE   H4X16876   5.777   4.385   6.809  0.5138  0.2141 -0.4204
  152SAPE   H4Y16877   5.594   4.391   6.812 -0.3432  0.1025  0.6463
  152SAPE   C3516878   5.693   4.518   6.952 -0.1595 -0.3852  0.0633
  152SAPE   H5X16879   5.617   4.598   6.959  0.4826 -0.0394  3.7515
  152SAPE   H5Y16880   5.791   4.569   6.960 -0.7942  1.4437 -2.8577
  152SAPE   C3616881   5.670   4.424   7.070  0.1886 -0.3797  0.5217
  152SAPE   H6X16882   5.758   4.359   7.088  0.6390  0.4404  1.2958
  152SAPE   H6Y16883   5.585   4.354   7.056 -0.6794  0.7481  0.0547
  152SAPE   C3716884   5.653   4.496   7.205 -0.1584  0.1455 -0.5146
  152SAPE   H7X16885   5.557   4.551   7.200 -1.2265 -1.7722 -1.7157
  152SAPE   H7Y16886   5.744   4.557   7.226 -0.4023  0.0997  0.7130
  152SAPE   C3816887   5.646   4.397   7.321  0.3088  0.1133  0.3993
  152SAPE   H8X16888   5.738   4.336   7.328 -1.8668 -3.1944  1.3616
  152SAPE   H8Y16889   5.552   4.339   7.305  2.5521 -3.8093  0.7988
  152SAPE   C3916890   5.635   4.462   7.450 -0.4937 -0.2526  0.8739
  152SAPE   H9X16891   5.554   4.535   7.468  0.1082  0.4935  0.5574
  152SAPE   H9Y16892   5.734   4.510   7.466 -1.5965  2.4772 -0.3271
  152SAPE  C31016893   5.612   4.353   7.560  0.8842  0.0368  0.3640
  152SAPE  H10X16894   5.691   4.275   7.560  1.7189  0.8608  0.1952
  152SAPE  H10Y16895   5.513   4.304   7.562 -0.0406  1.8304 -0.9205
  152SAPE  C31116896   5.632   4.416   7.701 -0.0178  0.0892 -0.1195
  152SAPE  H11X16897   5.538   4.475   7.702 -0.9723 -1.4014  0.4193
  152SAPE  H11Y16898   5.718   4.486   7.700  0.4944 -0.5471 -0.3498
  152SAPE  C31216899   5.640   4.309   7.817 -0.5966  0.0637 -0.4472
  152SAPE  H12X16900   5.738   4.262   7.796 -0.1776  0.9972 -0.6069
  152SAPE  H12Y16901   5.556   4.238   7.802  0.0317 -0.8426  0.2659
  152SAPE  C31316902   5.603   4.353   7.956  0.4607 -0.3396 -0.2900
  152SAPE  H13X16903   5.507   4.410   7.958  1.5641  1.5385  0.2319
  152SAPE  H13Y16904   5.674   4.432   7.988  1.1539  0.0930 -2.7781
  152SAPE  C31416905   5.602   4.240   8.058  0.0672 -0.0136 -0.3894
  152SAPE  H14X16906   5.703   4.194   8.064  0.2881  0.6085  0.7149
  152SAPE  H14Y16907   5.544   4.155   8.016 -0.2557  0.5603 -1.1071
  152SAPE  C31516908   5.556   4.279   8.196 -0.5288  0.4277 -0.1731
  152SAPE  H15X16909   5.466   4.343   8.203 -1.4633 -0.9159  0.3310
  152SAPE  H15Y16910   5.634   4.341   8.246 -1.6749  0.7279  1.2945
  152SAPE  C31616911   5.520   4.161   8.289  0.1268 -0.2971 -0.5521
  152SAPE  H16X16912   5.604   4.089   8.295 -0.3279 -1.0841 -2.8448
  152SAPE  H16Y16913   5.433   4.108   8.245  0.8356 -0.7158 -1.4680
  152SAPE  C31716914   5.476   4.203   8.424 -0.3957  0.2412  0.7497
  152SAPE  H17X16915   5.387   4.269   8.417 -1.1416 -0.8458 -0.2849
  152SAPE  H17Y16916   5.557   4.254   8.479  0.8791 -1.2319  0.2735
  152SAPE  C31816917   5.460   4.080   8.505 -0.1759 -0.0752 -0.3802
  152SAPE  H18X16918   5.551   4.016   8.508  0.2239  0.3109 -3.3200
  152SAPE  H18Y16919   5.374   4.025   8.463 -1.3333  1.1415  0.3710
  152SAPE  H18Z16920   5.435   4.096   8.612  0.2746 -0.2019 -0.2522
  153SAPE     N16921   2.226   5.408   6.204 -0.4627  0.3349  0.1726
  153SAPE   HN116922   2.202   5.509   6.208  0.3703  0.5527 -0.2399
  153SAPE   HN216923   2.154   5.347   6.160 -0.5267 -0.0674  0.8196
  153SAPE   HN316924   2.252   5.373   6.299 -1.2893 -0.5022  0.1079
  153SAPE   C1216925   2.352   5.385   6.120  0.1194  0.1218 -0.1203
  153SAPE  H12A16926   2.344   5.431   6.020 -0.8821  0.8611  0.2887
  153SAPE  H12B16927   2.371   5.276   6.107  0.9147 -0.0589  2.1484
  153SAPE   C1116928   2.474   5.451   6.188  0.0851  0.0824  0.0322
  153SAPE  H11A16929   2.458   5.561   6.186  1.9988  0.4080  1.2720
  153SAPE  H11B16930   2.571   5.438   6.135  0.8439 -0.3344  1.4925
  153SAPE     P16931   2.559   5.281   6.360 -0.1305  0.4229 -0.3403
  153SAPE   O1316932   2.461   5.173   6.382 -0.5246  0.2319  0.2106
  153SAPE   O1416933   2.672   5.255   6.264 -0.0772  0.0537 -0.1113
  153SAPE   O1216934   2.481   5.415   6.335  0.4335  1.2878  0.0005
  153SAPE   O1116935   2.627   5.305   6.501 -0.5553  0.9372 -0.3778
  153SAPE    C116936   2.582   5.386   6.611  0.3841 -0.3573 -0.4938
  153SAPE    HA16937   2.472   5.397   6.603  0.3700  0.7636  0.9406
  153SAPE    HB16938   2.604   5.330   6.705  0.3435 -0.8644 -0.7834
  153SAPE    C216939   2.641   5.530   6.619 -0.0328 -0.2652  0.0761
  153SAPE    HS16940   2.609   5.588   6.529  0.5779  1.2379  0.8129
  153SAPE   O2116941   2.781   5.515   6.630 -0.4278 -0.0470  0.2916
  153SAPE   C2116942   2.857   5.605   6.581 -0.9312  0.4584 -0.1030
  153SAPE   O2216943   2.818   5.708   6.524  0.2110 -0.1580  0.1803
  153SAPE   C2216944   2.999   5.574   6.620 -0.2885 -0.2672  1.0792
  153SAPE   H2R16945   2.996   5.503   6.706 -1.1920 -0.3470  0.9885
  153SAPE   H2S16946   3.040   5.521   6.531 -2.3306 -1.6057  0.8961
  153SAPE    C316947   2.585   5.611   6.739 -0.2587 -0.3752 -0.1090
  153SAPE    HX16948   2.477   5.623   6.716 -0.0719 -1.3982 -1.5286
  153SAPE    HY16949   2.631   5.712   6.741 -2.0093  0.4932 -1.9163
  153SAPE   O3116950   2.597   5.532   6.861  0.0663 -0.7881  0.4575
  153SAPE   C3116951   2.704   5.557   6.929 -0.5951 -0.5684 -0.0227
  153SAPE   O3216952   2.793   5.637   6.900  0.2835  0.0188  0.8083
  153SAPE   C3216953   2.700   5.474   7.056 -0.3653  0.1019 -1.0956
  153SAPE   H2X16954   2.637   5.386   7.033 -2.2064  1.5116 -1.5642
  153SAPE   H2Y16955   2.654   5.537   7.135  1.9191  1.8940 -1.1081
  153SAPE   C2316956   3.088   5.701   6.651 -0.0093 -0.0808  0.1469
  153SAPE   H3R16957   3.064   5.778   6.574  0.0895 -1.7590 -1.6241
  153SAPE   H3S16958   3.194   5.669   6.652 -0.1867 -0.6510  1.9408
  153SAPE   C2416959   3.056   5.763   6.784 -0.4028  0.1632  0.7723
  153SAPE   H4R16960   3.068   5.680   6.857  2.2633 -0.2742 -0.1076
  153SAPE   H4S16961   2.946   5.778   6.783 -0.4286 -0.0534 -0.4225
  153SAPE   C2516962   3.120   5.895   6.819 -0.2532  0.0953  0.5890
  153SAPE   H5R16963   3.083   5.978   6.757  0.0211  0.0160  0.3226
  153SAPE   C2616964   3.213   5.911   6.911  0.0546 -0.4870  0.0877
  153SAPE   H6R16965   3.238   6.015   6.936 -0.9604 -0.7010  2.1086
  153SAPE   C2716966   3.279   5.808   6.996  0.3022  0.0850 -0.1898
  153SAPE   H7R16967   3.323   5.724   6.938 -2.4621 -1.0682 -0.7246
  153SAPE   H7S16968   3.212   5.769   7.075  2.6872 -0.7804  1.4575
  153SAPE   C2816969   3.394   5.881   7.060  0.2029  0.4428  0.0609
  153SAPE   H8R16970   3.489   5.889   7.005  1.1948  0.4319  1.7271
  153SAPE   C2916971   3.392   5.937   7.180  0.0863 -0.0398  0.7339
  153SAPE   H9R16972   3.482   5.990   7.214 -0.7783  1.6243  0.5236
  153SAPE  C21016973   3.277   5.947   7.273  0.3466 -0.1446 -0.6535
  153SAPE  H10R16974   3.183   5.901   7.236 -0.3908  1.4290 -0.7660
  153SAPE  H10S16975   3.258   6.051   7.306 -1.7592 -1.0007  0.9311
  153SAPE  C21116976   3.313   5.858   7.387 -0.1889  0.3085 -0.5347
  153SAPE  H11R16977   3.358   5.759   7.368  1.3304 -0.1856  4.7724
  153SAPE  C21216978   3.272   5.871   7.512  0.1605  0.2967 -0.2944
  153SAPE  H12R16979   3.292   5.789   7.583 -1.5137 -1.4326 -1.7802
  153SAPE  C21316980   3.192   5.979   7.580 -0.2704 -0.2567  0.2410
  153SAPE  H13R16981   3.100   5.934   7.625 -1.6124  0.9371 -1.2477
  153SAPE  H13S16982   3.146   6.049   7.507  2.3719 -0.9900 -2.2112
  153SAPE  C21416983   3.275   6.057   7.679  0.4717 -0.0535 -0.2952
  153SAPE  H14R16984   3.296   6.160   7.648  2.2546 -0.0004  1.0041
  153SAPE  C21516985   3.296   6.027   7.807 -0.2018  0.1505 -0.5361
  153SAPE  H15R16986   3.351   6.099   7.869 -1.2026 -1.6989  2.6505
  153SAPE  C21616987   3.253   5.894   7.865  0.2094  0.7146  0.1449
  153SAPE  H16R16988   3.346   5.843   7.896 -1.3470 -1.7864  0.8501
  153SAPE  H16S16989   3.195   5.828   7.797  0.6917  0.6472 -0.2031
  153SAPE  C21716990   3.171   5.891   8.000  0.4596  0.3791 -0.0674
  153SAPE  H17R16991   3.138   5.786   8.018  1.0244  0.1305 -0.4383
  153SAPE  H17S16992   3.086   5.957   7.974  0.6953  1.1789  1.1654
  153SAPE  C21816993   3.245   5.946   8.117  0.0682  0.0632 -0.5338
  153SAPE  H18R16994   3.340   5.979   8.070  0.3893 -0.6845 -0.4148
  153SAPE  H18S16995   3.267   5.876   8.200 -0.2929 -1.1820 -1.4663
  153SAPE  C21916996   3.193   6.083   8.174  0.0622 -0.2687 -0.0142
  153SAPE  H19R16997   3.095   6.066   8.224 -0.4007  0.6546 -0.6142
  153SAPE  H19S16998   3.177   6.155   8.092 -0.2214 -1.9219 -1.4294
  153SAPE  C22016999   3.297   6.148   8.262  0.4014  0.0756  0.1431
  153SAPE  H20R17000   3.391   6.144   8.203 -0.1632 -2.9796 -0.6130
  153SAPE  H20S17001   3.318   6.101   8.361  1.0866 -1.0756 -0.5309
  153SAPE  H20T17002   3.273   6.256   8.274  0.3339  0.1165 -0.3666
  153SAPE   C3317003   2.849   5.435   7.092  0.0501 -0.1682 -0.3962
  153SAPE   H3X17004   2.914   5.518   7.058 -0.1071 -0.9376 -2.6824
  153SAPE   H3Y17005   2.881   5.338   7.049  2.8389  0.2329  0.7064
  153SAPE   C3417006   2.876   5.424   7.240  0.0967  0.6038  0.2081
  153SAPE   H4X17007   2.849   5.320   7.264 -0.0776  1.2326  2.8895
  153SAPE   H4Y17008   2.805   5.493   7.289 -1.6127 -0.9751 -0.0175
  153SAPE   C3517009   3.020   5.440   7.261  0.4173 -0.0371  0.2262
  153SAPE   H5X17010   3.041   5.542   7.222  3.0998 -0.5961  0.0707
  153SAPE   H5Y17011   3.074   5.362   7.204 -1.6081 -0.8022 -0.6790
  153SAPE   C3617012   3.054   5.442   7.410  0.0297 -1.4708  0.4665
  153SAPE   H6X17013   3.165   5.435   7.413  0.2053  0.8397  0.0718
  153SAPE   H6Y17014   2.998   5.352   7.442 -0.7961 -2.0863 -2.5226
  153SAPE   C3717015   2.998   5.555   7.494 -0.0560  0.2303 -0.8418
  153SAPE   H7X17016   2.892   5.531   7.517 -0.0647  2.1447  1.3602
  153SAPE   H7Y17017   3.026   5.647   7.437 -1.9452  0.1028 -2.0024
  153SAPE   C3817018   3.088   5.574   7.620 -0.1738  0.2789  0.5378
  153SAPE   H8X17019   3.064   5.673   7.666 -2.4647  1.9103 -3.8500
  153SAPE   H8Y17020   3.196   5.562   7.593 -0.6412 -0.4805 -1.0971
  153SAPE   C3917021   3.059   5.473   7.732  0.1044 -0.0927  0.1246
  153SAPE   H9X17022   3.103   5.376   7.699 -0.9933 -0.6533  0.2808
  153SAPE   H9Y17023   2.949   5.466   7.730  0.2031 -1.9117 -0.0687
  153SAPE  C31017024   3.111   5.503   7.877  0.2147  0.7568  0.5139
  153SAPE  H10X17025   3.058   5.594   7.912  0.3545  0.4481  1.5482
  153SAPE  H10Y17026   3.216   5.538   7.883 -0.1415  1.9174  0.0801
  153SAPE  C31117027   3.093   5.385   7.979  0.0295 -0.0751  0.2357
  153SAPE  H11X17028   3.101   5.423   8.083 -0.2512  0.9292 -0.1082
  153SAPE  H11Y17029   3.176   5.311   7.983  1.2814  1.2532 -0.8233
  153SAPE  C31217030   2.948   5.327   7.976  0.2284 -0.3693 -0.1732
  153SAPE  H12X17031   2.906   5.278   7.886 -1.3096 -0.8487  0.7991
  153SAPE  H12Y17032   2.878   5.411   7.993  0.7342  0.2679 -1.1920
  153SAPE  C31317033   2.936   5.233   8.099  0.1416 -0.0749  0.2268
  153SAPE  H13X17034   2.828   5.215   8.114 -0.4135  0.0566 -3.1842
  153SAPE  H13Y17035   2.976   5.282   8.190 -3.1021  0.0203  1.6755
  153SAPE  C31417036   3.005   5.096   8.082 -0.4477 -0.2791 -0.0144
  153SAPE  H14X17037   3.116   5.109   8.081 -0.6117  1.2180  0.8727
  153SAPE  H14Y17038   2.985   5.070   7.976 -1.5351  1.3215 -0.2068
  153SAPE  C31517039   2.958   4.977   8.182 -0.0297 -0.5234 -0.1708
  153SAPE  H15X17040   3.005   4.882   8.149 -0.4545 -0.6771 -0.3395
  153SAPE  H15Y17041   2.848   4.975   8.170 -0.1890  0.3423  1.1095
  153SAPE  C31617042   2.985   5.013   8.332 -0.4939 -0.1827 -0.7089
  153SAPE  H16X17043   2.967   5.122   8.347  1.5612  0.0824 -0.0348
  153SAPE  H16Y17044   3.091   5.003   8.365 -0.0524  1.2083 -1.6351
  153SAPE  C31717045   2.906   4.920   8.428  1.2751  0.0415  0.0894
  153SAPE  H17X17046   2.795   4.923   8.427  1.2776  0.5700  1.2852
  153SAPE  H17Y17047   2.930   4.956   8.530 -1.4985  1.0187  0.4300
  153SAPE  C31817048   2.953   4.772   8.416  0.0214  0.8352  0.7139
  153SAPE  H18X17049   2.960   4.751   8.307  0.9929  1.1932  0.7037
  153SAPE  H18Y17050   2.897   4.701   8.480 -0.8452  1.0811  0.2424
  153SAPE  H18Z17051   3.057   4.767   8.455  0.8576  1.3001 -1.3823
  154SAPE     N17052   0.429   4.124   6.060 -0.1692  0.0389 -0.3208
  154SAPE   HN117053   0.463   4.093   5.967  0.8831 -1.0597  0.4182
  154SAPE   HN217054   0.518   4.169   6.090 -0.4356  1.8051 -1.9948
  154SAPE   HN317055   0.418   4.038   6.116  0.4527 -0.3347 -0.7724
  154SAPE   C1217056   0.303   4.205   6.066  0.2034 -0.2344  0.0917
  154SAPE  H12A17057   0.272   4.203   6.173 -0.4052  1.0971 -0.0490
  154SAPE  H12B17058   0.239   4.156   5.990 -1.2860 -0.6715  1.5856
  154SAPE   C1117059   0.326   4.346   6.012  0.5011 -0.0456  0.4060
  154SAPE  H11A17060   0.261   4.419   6.064 -1.3356 -0.4400 -1.2936
  154SAPE  H11B17061   0.281   4.343   5.911  1.6630  1.5466 -0.1731
  154SAPE     P17062   0.518   4.506   6.087  0.2645  0.2635 -0.4536
  154SAPE   O1317063   0.667   4.514   6.066  0.6772 -0.0500  0.2329
  154SAPE   O1417064   0.444   4.636   6.073 -0.5112  0.1027 -0.1761
  154SAPE   O1217065   0.460   4.394   5.993 -0.6641 -0.1773 -0.3960
  154SAPE   O1117066   0.494   4.444   6.226  0.0436 -0.4463  0.2750
  154SAPE    C117067   0.384   4.476   6.324  0.2256 -0.0889  0.4295
  154SAPE    HA17068   0.299   4.522   6.270  0.0693 -0.1247  0.6469
  154SAPE    HB17069   0.337   4.386   6.367  0.1683 -0.3894 -0.2484
  154SAPE    C217070   0.433   4.571   6.437 -0.1863  0.3216  0.3003
  154SAPE    HS17071   0.453   4.669   6.391 -2.0145  0.4839 -0.1970
  154SAPE   O2117072   0.548   4.509   6.496  0.4068  0.0553  0.2294
  154SAPE   C2117073   0.633   4.591   6.559  0.0708  0.3410  0.5892
  154SAPE   O2217074   0.632   4.712   6.558  0.0692  0.7847  0.5557
  154SAPE   C2217075   0.735   4.499   6.622 -0.1971  0.4711  0.4220
  154SAPE   H2R17076   0.690   4.399   6.642 -0.2978  0.2374 -0.9453
  154SAPE   H2S17077   0.816   4.487   6.546 -1.7220  2.3857 -1.5825
  154SAPE    C317078   0.310   4.581   6.539  0.1951  0.4842  1.0845
  154SAPE    HX17079   0.278   4.481   6.576 -1.2037 -0.1688 -1.7693
  154SAPE    HY17080   0.232   4.626   6.474 -0.1382 -1.2697  0.2405
  154SAPE   O3117081   0.349   4.656   6.657  0.3977  0.0422  0.2748
  154SAPE   C3117082   0.345   4.785   6.649 -0.7676 -0.7688 -0.0418
  154SAPE   O3217083   0.337   4.852   6.548 -0.0785  0.0576  0.4565
  154SAPE   C3217084   0.379   4.835   6.788 -0.1120  0.0693 -0.7783
  154SAPE   H2X17085   0.368   4.945   6.777  1.2866  0.1592 -1.4370
  154SAPE   H2Y17086   0.487   4.822   6.809 -0.3949  1.5131  1.7224
  154SAPE   C2317087   0.785   4.565   6.752 -0.1710 -0.5001 -0.0667
  154SAPE   H3R17088   0.819   4.670   6.752 -0.1755 -0.4528 -3.3653
  154SAPE   H3S17089   0.878   4.508   6.774 -0.7776 -1.1174  0.9500
  154SAPE   C2417090   0.681   4.547   6.865  0.6006  0.2380 -0.1381
  154SAPE   H4R17091   0.648   4.441   6.862  0.8618 -0.0009  3.4443
  154SAPE   H4S17092   0.598   4.612   6.831  3.1148  2.7129 -1.7671
  154SAPE   C2517093   0.738   4.581   7.000 -0.5997  0.0169 -0.8365
  154SAPE   H5R17094   0.754   4.689   7.012 -0.6304 -0.1304  0.6191
  154SAPE   C2617095   0.755   4.489   7.100 -0.2768 -1.0554 -0.2535
  154SAPE   H6R17096   0.787   4.533   7.195 -0.2135 -1.7990  0.0694
  154SAPE   C2717097   0.731   4.340   7.104 -1.1635 -0.3251  0.0930
  154SAPE   H7R17098   0.644   4.307   7.043 -0.7086  1.4363 -1.5583
  154SAPE   H7S17099   0.704   4.325   7.210 -1.6982  3.5909  0.5711
  154SAPE   C2817100   0.845   4.253   7.051 -0.4239  0.2602  0.4210
  154SAPE   H8R17101   0.876   4.264   6.946  1.5237  0.8432  1.0233
  154SAPE   C2917102   0.914   4.165   7.127 -0.6871  0.2429 -0.1739
  154SAPE   H9R17103   0.992   4.097   7.088  0.3235  1.9410 -1.1844
  154SAPE  C21017104   0.912   4.127   7.275 -0.4304  0.1920  0.3437
  154SAPE  H10R17105   0.838   4.044   7.273 -0.6593  0.4301 -1.0772
  154SAPE  H10S17106   0.855   4.209   7.325 -0.7358 -0.6057  1.3202
  154SAPE  C21117107   1.045   4.106   7.342  0.3870 -0.3662 -0.3389
  154SAPE  H11R17108   1.094   4.200   7.371 -0.3295  0.6125 -2.1633
  154SAPE  C21217109   1.100   3.993   7.386  0.4791 -0.3133  0.3401
  154SAPE  H12R17110   1.198   3.983   7.436  1.7574  3.4599 -1.2551
  154SAPE  C21317111   1.041   3.851   7.368  0.6746  0.0328 -0.9558
  154SAPE  H13R17112   0.940   3.844   7.416  1.3933 -3.7532  0.1912
  154SAPE  H13S17113   1.109   3.781   7.422  0.4391  2.8945  3.3046
  154SAPE  C21417114   1.010   3.793   7.229  0.1824 -0.5551 -0.0477
  154SAPE  H14R17115   0.945   3.859   7.170 -0.1011  0.0654  0.9365
  154SAPE  C21517116   1.053   3.679   7.176 -0.5933  0.6878  0.0047
  154SAPE  H15R17117   1.037   3.668   7.068 -1.9407 -0.2950  0.2929
  154SAPE  C21617118   1.150   3.578   7.253 -0.1288  0.2122  0.1795
  154SAPE  H16R17119   1.160   3.593   7.363  0.1336 -0.8353  0.3044
  154SAPE  H16S17120   1.248   3.595   7.205 -0.1335  0.4076  0.2378
  154SAPE  C21717121   1.110   3.433   7.228 -0.6242 -0.3381  0.0531
  154SAPE  H17R17122   1.129   3.412   7.120 -2.3403  0.4256 -0.4269
  154SAPE  H17S17123   1.000   3.424   7.240 -0.9335  1.2606 -1.2851
  154SAPE  C21817124   1.202   3.331   7.299 -0.3272 -0.0949  0.4670
  154SAPE  H18R17125   1.211   3.354   7.407 -0.8666 -1.8027  0.9001
  154SAPE  H18S17126   1.304   3.342   7.257 -1.1039  1.9101 -0.9911
  154SAPE  C21917127   1.162   3.182   7.274  0.2332 -0.2051 -0.1191
  154SAPE  H19R17128   1.235   3.132   7.341  1.6654  0.5588 -1.0827
  154SAPE  H19S17129   1.178   3.160   7.167  0.0330  1.7560 -0.5691
  154SAPE  C22017130   1.022   3.139   7.319  0.1105 -0.1298 -0.4857
  154SAPE  H20R17131   0.952   3.179   7.244  0.1720 -0.1778 -0.5686
  154SAPE  H20S17132   0.996   3.200   7.408  1.9858 -1.3819  0.9765
  154SAPE  H20T17133   1.013   3.028   7.325  0.7187 -0.1263  0.7612
  154SAPE   C3317134   0.292   4.772   6.893 -0.0303  0.0823 -0.2052
  154SAPE   H3X17135   0.347   4.687   6.938 -0.4396  0.0930  0.3226
  154SAPE   H3Y17136   0.194   4.731   6.858  0.2800  0.0940 -1.0925
  154SAPE   C3417137   0.262   4.859   7.013 -0.1623  0.1365  0.3809
  154SAPE   H4X17138   0.192   4.802   7.078 -2.2884  1.9088 -0.3084
  154SAPE   H4Y17139   0.202   4.946   6.979 -1.5045  0.5912  3.6791
  154SAPE   C3517140   0.389   4.904   7.085  0.0317 -0.3502  0.0303
  154SAPE   H5X17141   0.418   4.996   7.030  0.4703 -0.0968  0.6675
  154SAPE   H5Y17142   0.471   4.829   7.083 -0.5209 -0.9711  0.7620
  154SAPE   C3617143   0.349   4.939   7.224 -0.0078 -0.3339 -0.4945
  154SAPE   H6X17144   0.270   5.017   7.220  0.3669  0.0085 -1.3390
  154SAPE   H6Y17145   0.430   4.997   7.272  0.8271 -1.0993 -0.9589
  154SAPE   C3717146   0.314   4.821   7.315 -0.7375  0.5727  0.2317
  154SAPE   H7X17147   0.260   4.749   7.251  0.6159 -0.7114  0.5009
  154SAPE   H7Y17148   0.226   4.852   7.375 -1.0100 -1.8421  1.1423
  154SAPE   C3817149   0.427   4.753   7.382  0.1568 -0.1210  0.0110
  154SAPE   H8X17150   0.511   4.751   7.310 -2.4035  0.7962 -3.1216
  154SAPE   H8Y17151   0.407   4.645   7.398 -0.5233  0.0448  0.3097
  154SAPE   C3917152   0.460   4.820   7.518  0.0064  0.2257 -0.4370
  154SAPE   H9X17153   0.363   4.828   7.573  1.2115  1.8631  1.5384
  154SAPE   H9Y17154   0.500   4.923   7.501  0.5229  0.4729  2.0433
  154SAPE  C31017155   0.559   4.736   7.602 -0.8979  1.0314  0.1510
  154SAPE  H10X17156   0.654   4.724   7.545  0.7508 -1.5388  3.3174
  154SAPE  H10Y17157   0.527   4.632   7.618  2.0173 -0.0416 -0.5698
  154SAPE  C31117158   0.582   4.792   7.741  0.5015 -0.3911  0.7031
  154SAPE  H11X17159   0.494   4.770   7.804 -0.6181 -0.6380 -0.9088
  154SAPE  H11Y17160   0.592   4.902   7.731 -0.6733 -0.4872 -1.7866
  154SAPE  C31217161   0.697   4.707   7.795 -0.3688  0.3398 -0.9355
  154SAPE  H12X17162   0.788   4.737   7.740 -1.7109  0.8604 -2.8978
  154SAPE  H12Y17163   0.677   4.598   7.779  0.6929  0.1267 -0.8442
  154SAPE  C31317164   0.723   4.728   7.945 -0.0435  0.3881 -0.0940
  154SAPE  H13X17165   0.623   4.719   7.992 -0.2230  0.1863 -0.5134
  154SAPE  H13Y17166   0.760   4.831   7.967  1.3612 -0.1095 -0.0610
  154SAPE  C31417167   0.827   4.625   7.995  0.4636 -0.2831 -0.1561
  154SAPE  H14X17168   0.918   4.614   7.932 -0.0937 -1.9305 -0.7045
  154SAPE  H14Y17169   0.783   4.523   7.998 -1.4557  0.5097 -0.9919
  154SAPE  C31517170   0.889   4.669   8.125  0.1627 -0.0142 -0.2619
  154SAPE  H15X17171   0.890   4.779   8.113  1.1510  0.0609  0.4098
  154SAPE  H15Y17172   0.992   4.637   8.152 -0.3010  0.3230  2.0806
  154SAPE  C31617173   0.806   4.618   8.244  0.5184  0.2624 -0.7698
  154SAPE  H16X17174   0.808   4.507   8.241  1.2459  0.2117  0.9523
  154SAPE  H16Y17175   0.697   4.636   8.228 -0.0189 -1.7796  0.2857
  154SAPE  C31717176   0.852   4.651   8.389 -0.5465 -0.1654 -0.1228
  154SAPE  H17X17177   0.862   4.761   8.395 -0.3129 -0.1873 -0.1009
  154SAPE  H17Y17178   0.950   4.598   8.399 -1.7390 -2.2224  0.8697
  154SAPE  C31817179   0.774   4.588   8.503 -0.8393  0.0863  0.6269
  154SAPE  H18X17180   0.817   4.614   8.602 -0.4489  0.9078  0.2500
  154SAPE  H18Y17181   0.778   4.478   8.495 -3.2548 -0.0592  0.9477
  154SAPE  H18Z17182   0.674   4.635   8.494 -0.1028  1.2500 -1.8032
  155SAPE     N17183   1.070   5.178   6.364  0.0977 -1.0448 -0.0073
  155SAPE   HN117184   0.987   5.174   6.300  0.4796  2.1757 -0.7665
  155SAPE   HN217185   1.108   5.269   6.333 -1.8286 -0.1421  0.1943
  155SAPE   HN317186   1.121   5.089   6.343  1.8325 -0.2712  0.8842
  155SAPE   C1217187   1.012   5.198   6.495  0.6556 -0.4305  0.6231
  155SAPE  H12A17188   1.090   5.172   6.570  0.5607 -2.6162  0.0080
  155SAPE  H12B17189   0.927   5.128   6.511  1.2176 -0.9852  1.2153
  155SAPE   C1117190   0.965   5.338   6.516  0.7680  0.1032 -0.2553
  155SAPE  H11A17191   1.049   5.410   6.527 -0.2951  1.1128  1.6267
  155SAPE  H11B17192   0.922   5.331   6.619 -0.5443  0.7082 -0.7499
  155SAPE     P17193   0.751   5.470   6.458  0.1578  0.5328  0.0213
  155SAPE   O1317194   0.723   5.561   6.345  0.4921  0.4790  0.1363
  155SAPE   O1417195   0.638   5.391   6.511  0.6151  0.0311 -0.3808
  155SAPE   O1217196   0.870   5.371   6.415  0.2145 -0.3399  0.1895
  155SAPE   O1117197   0.807   5.556   6.576  0.6384 -0.2995 -0.4476
  155SAPE    C117198   0.876   5.680   6.560 -0.9387 -0.4215  0.2161
  155SAPE    HA17199   0.981   5.659   6.531 -1.2830 -1.8104 -0.0481
  155SAPE    HB17200   0.833   5.735   6.474 -1.7673  1.2366  1.6624
  155SAPE    C217201   0.862   5.773   6.690  0.3015  0.1416 -0.4825
  155SAPE    HS17202   0.942   5.849   6.676  0.3852  0.0857 -0.3070
  155SAPE   O2117203   0.881   5.699   6.808  0.2721 -0.1614  0.2186
  155SAPE   C2117204   1.008   5.657   6.831  0.4151  0.6870  0.2652
  155SAPE   O2217205   1.104   5.681   6.760  0.0076  0.2333 -0.4561
  155SAPE   C2217206   1.006   5.571   6.961  0.4395 -0.8775 -0.5965
  155SAPE   H2R17207   1.028   5.630   7.053 -0.2756  0.9832 -1.5958
  155SAPE   H2S17208   0.905   5.526   6.962  0.4840 -0.9545  0.5940
  155SAPE    C317209   0.725   5.832   6.688  1.0939 -0.0007  0.1687
  155SAPE    HX17210   0.650   5.754   6.661  1.2939  0.0425 -0.5276
  155SAPE    HY17211   0.711   5.896   6.598  2.3639  0.3787  0.2372
  155SAPE   O3117212   0.696   5.914   6.808 -0.0786  0.5432  0.5531
  155SAPE   C3117213   0.576   5.905   6.854  0.3121  0.3086  0.3598
  155SAPE   O3217214   0.487   5.838   6.808  0.3319  0.0637 -0.0017
  155SAPE   C3217215   0.570   5.986   6.983  0.0342  0.1498  1.0099
  155SAPE   H2X17216   0.627   6.081   6.971  1.9953 -1.3107 -1.6587
  155SAPE   H2Y17217   0.622   5.925   7.060 -0.5736  0.9898  2.0988
  155SAPE   C2317218   1.102   5.452   6.958  0.5743 -1.0858 -0.0855
  155SAPE   H3R17219   1.049   5.373   6.900 -0.2206 -1.5036  1.1868
  155SAPE   H3S17220   1.090   5.418   7.063 -0.8801 -0.3802 -0.0075
  155SAPE   C2417221   1.250   5.466   6.917  0.1078 -0.6443 -0.4339
  155SAPE   H4R17222   1.259   5.489   6.809  3.3509  0.1728 -0.0528
  155SAPE   H4S17223   1.297   5.368   6.940 -2.3287 -1.3451  1.7949
  155SAPE   C2517224   1.329   5.580   6.994  0.1432  0.7389 -0.4551
  155SAPE   H5R17225   1.340   5.674   6.938 -3.5590  1.8330  0.5231
  155SAPE   C2617226   1.386   5.581   7.120  0.3677 -0.0376  0.2367
  155SAPE   H6R17227   1.434   5.669   7.165  0.6839 -0.9912  1.8173
  155SAPE   C2717228   1.382   5.466   7.211 -0.8159 -0.6410 -0.4272
  155SAPE   H7R17229   1.486   5.450   7.246 -0.7286  3.4138  1.4359
  155SAPE   H7S17230   1.350   5.373   7.158  2.1146 -1.1799 -1.3598
  155SAPE   C2817231   1.286   5.484   7.320 -0.3469 -0.0960  0.0275
  155SAPE   H8R17232   1.188   5.511   7.279  0.2319 -0.0324 -1.3509
  155SAPE   C2917233   1.308   5.480   7.453 -0.1630 -0.7018 -0.4166
  155SAPE   H9R17234   1.217   5.475   7.516 -0.8236  2.6772 -1.0313
  155SAPE  C21017235   1.445   5.471   7.525  0.1041 -0.0574  1.0069
  155SAPE  H10R17236   1.529   5.453   7.454 -0.7558  1.5238 -0.4371
  155SAPE  H10S17237   1.448   5.380   7.588 -1.4084 -1.4237 -0.8309
  155SAPE  C21117238   1.489   5.601   7.597 -0.0980 -0.3544  0.4087
  155SAPE  H11R17239   1.532   5.676   7.529 -0.9713 -1.0308 -0.8994
  155SAPE  C21217240   1.486   5.629   7.732  0.0933  0.7109 -1.1001
  155SAPE  H12R17241   1.544   5.714   7.771  1.7857 -1.2367  0.7669
  155SAPE  C21317242   1.422   5.542   7.833 -0.4615 -0.2786 -0.2474
  155SAPE  H13R17243   1.471   5.442   7.833  0.3931  0.1110 -2.3607
  155SAPE  H13S17244   1.321   5.507   7.805  0.3023 -2.2787 -0.5882
  155SAPE  C21417245   1.438   5.580   7.974 -0.4868  0.4203 -0.2417
  155SAPE  H14R17246   1.352   5.621   8.028 -1.0695 -0.9862 -0.0627
  155SAPE  C21517247   1.546   5.575   8.053  0.1380  0.2365 -0.8408
  155SAPE  H15R17248   1.523   5.614   8.154 -0.4337 -1.3169 -0.3602
  155SAPE  C21617249   1.688   5.548   8.016 -0.1116  0.0326 -0.5388
  155SAPE  H16R17250   1.714   5.526   7.911  2.9476  0.2416  0.1335
  155SAPE  H16S17251   1.718   5.456   8.071 -0.6017  0.9916  1.3958
  155SAPE  C21717252   1.776   5.660   8.070 -0.1964 -1.3446  0.3663
  155SAPE  H17R17253   1.763   5.759   8.021  3.1306 -0.0139  2.0128
  155SAPE  H17S17254   1.881   5.626   8.058  0.4760  1.1211 -1.1224
  155SAPE  C21817255   1.786   5.674   8.229  0.2886 -0.4965  0.2877
  155SAPE  H18R17256   1.797   5.575   8.279  1.1029  0.5072  2.1252
  155SAPE  H18S17257   1.689   5.719   8.260 -0.1876 -1.5461  0.3692
  155SAPE  C21917258   1.897   5.766   8.270  0.3260 -0.6009 -0.5419
  155SAPE  H19R17259   1.914   5.855   8.206  2.6567  0.2368  1.1620
  155SAPE  H19S17260   1.994   5.711   8.265 -0.4615 -1.9118 -1.8862
  155SAPE  C22017261   1.882   5.824   8.415 -0.4053 -0.3941  0.1363
  155SAPE  H20R17262   1.870   5.742   8.488 -0.9407 -2.4070 -2.1757
  155SAPE  H20S17263   1.796   5.894   8.417  1.2922  1.7906 -0.4816
  155SAPE  H20T17264   1.971   5.887   8.440  1.5014 -3.0123  0.1489
  155SAPE   C3317265   0.424   6.009   7.035  0.1174  0.0897 -0.1063
  155SAPE   H3X17266   0.378   5.908   7.045  2.8474 -1.0287  1.4880
  155SAPE   H3Y17267   0.368   6.074   6.965 -0.5284  1.2559  1.4538
  155SAPE   C3417268   0.429   6.074   7.168 -0.4257 -0.0779  0.1371
  155SAPE   H4X17269   0.349   6.146   7.197  1.6280  2.7247 -0.8917
  155SAPE   H4Y17270   0.525   6.131   7.171 -0.1667 -0.3463 -2.1779
  155SAPE   C3517271   0.450   5.975   7.277  0.3341  0.1890 -0.0515
  155SAPE   H5X17272   0.551   5.934   7.257 -0.0184 -0.6174 -0.2020
  155SAPE   H5Y17273   0.388   5.886   7.256  1.1446  0.5079 -4.1685
  155SAPE   C3617274   0.447   6.042   7.418  0.2141 -0.1549  0.2898
  155SAPE   H6X17275   0.359   6.107   7.432 -0.0443 -0.7803  1.7035
  155SAPE   H6Y17276   0.536   6.110   7.418  1.5694 -1.8633  1.6944
  155SAPE   C3717277   0.465   5.942   7.532  0.1929  0.3336  0.5834
  155SAPE   H7X17278   0.557   5.887   7.503 -0.5942 -0.8616  0.3007
  155SAPE   H7Y17279   0.378   5.873   7.537  1.3946 -1.2923 -0.0971
  155SAPE   C3817280   0.490   6.004   7.669  0.5132 -0.3560  0.6693
  155SAPE   H8X17281   0.396   6.044   7.712  0.2853 -1.5970  1.3309
  155SAPE   H8Y17282   0.556   6.093   7.658 -2.3690  1.9959  1.8547
  155SAPE   C3917283   0.551   5.908   7.773  0.3956  0.3686 -0.4453
  155SAPE   H9X17284   0.638   5.858   7.725  1.3958 -0.8868  2.5605
  155SAPE   H9Y17285   0.476   5.830   7.800  1.9650 -0.7686  0.7430
  155SAPE  C31017286   0.577   5.970   7.913 -0.2393  0.7973  0.8453
  155SAPE  H10X17287   0.480   6.006   7.953  0.4927  1.9503  1.6295
  155SAPE  H10Y17288   0.646   6.057   7.908 -1.6020  1.8807  0.7936
  155SAPE  C31117289   0.636   5.871   8.018  0.0149  0.3516  0.0398
  155SAPE  H11X17290   0.731   5.819   7.990 -0.3406 -1.4650  2.0770
  155SAPE  H11Y17291   0.552   5.799   8.027 -1.9995  2.6900  0.2282
  155SAPE  C31217292   0.645   5.925   8.161  0.4652 -0.0023  0.2469
  155SAPE  H12X17293   0.718   6.008   8.152 -0.8802  1.1911  0.0378
  155SAPE  H12Y17294   0.689   5.849   8.229  0.7737 -0.2595 -0.2340
  155SAPE  C31317295   0.522   5.988   8.221 -0.3470  0.5013  0.2197
  155SAPE  H13X17296   0.430   5.936   8.189 -0.4388  0.2502  0.9062
  155SAPE  H13Y17297   0.527   6.092   8.180 -1.9622  0.0780 -1.1037
  155SAPE  C31417298   0.534   5.997   8.378  0.1523 -0.4256  1.2673
  155SAPE  H14X17299   0.634   6.042   8.396  0.9835 -1.0833 -1.3195
  155SAPE  H14Y17300   0.522   5.898   8.427 -0.3971 -0.8181  0.3695
  155SAPE  C31517301   0.432   6.090   8.436 -0.6532  0.4020  0.5770
  155SAPE  H15X17302   0.335   6.036   8.442 -1.2637  1.3973 -0.1553
  155SAPE  H15Y17303   0.410   6.174   8.368 -2.6345 -0.9768 -0.5297
  155SAPE  C31617304   0.465   6.129   8.584 -0.3831 -0.4400 -0.6201
  155SAPE  H16X17305   0.572   6.160   8.590 -0.1492 -1.3650  0.1060
  155SAPE  H16Y17306   0.468   6.050   8.662 -0.1106  0.5216  0.3738
  155SAPE  C31717307   0.378   6.240   8.644 -0.2785  0.7052 -0.3223
  155SAPE  H17X17308   0.274   6.202   8.644  0.2584 -0.7746 -0.2865
  155SAPE  H17Y17309   0.391   6.326   8.574  0.4644  1.0291  0.2134
  155SAPE  C31817310   0.419   6.286   8.782  0.3215 -0.2699 -0.8879
  155SAPE  H18X17311   0.394   6.224   8.871  0.2792 -1.1861 -1.5308
  155SAPE  H18Y17312   0.374   6.384   8.810  2.3608  0.0440  1.3633
  155SAPE  H18Z17313   0.530   6.289   8.790  0.6648 -3.0512 -3.4741
  156SAPE     N17314   5.914   6.620   6.202  0.1971 -0.1546  0.0687
  156SAPE   HN117315   5.931   6.721   6.220  1.9917 -0.4875  0.2941
  156SAPE   HN217316   5.940   6.593   6.105 -0.3331 -0.0804 -0.1013
  156SAPE   HN317317   5.810   6.608   6.208 -0.1763  3.0691  0.6865
  156SAPE   C1217318   5.991   6.537   6.311 -0.3816  0.1419 -0.4282
  156SAPE  H12A17319   6.098   6.558   6.293 -0.5003 -0.2412 -1.6431
  156SAPE  H12B17320   5.992   6.429   6.282  1.0116 -0.2854  1.1288
  156SAPE   C1117321   5.953   6.565   6.463 -0.1007 -0.0756 -0.0776
  156SAPE  H11A17322   5.968   6.673   6.485 -0.2912  0.2359 -1.4279
  156SAPE  H11B17323   6.037   6.518   6.519 -0.7206 -1.2865 -0.1483
  156SAPE     P17324   5.776   6.448   6.614 -0.0383 -0.0646 -0.0251
  156SAPE   O1317325   5.701   6.328   6.574 -0.2162 -0.3334 -0.2088
  156SAPE   O1417326   5.901   6.425   6.692  0.1771 -0.6288 -0.3940
  156SAPE   O1217327   5.819   6.520   6.487 -0.0874  0.3492 -0.0988
  156SAPE   O1117328   5.679   6.545   6.690  0.3872 -0.0118 -0.1067
  156SAPE    C117329   5.723   6.630   6.798  0.2520  0.4047 -0.7803
  156SAPE    HA17330   5.830   6.655   6.780  0.1157  0.6825 -1.1925
  156SAPE    HB17331   5.672   6.728   6.797 -0.1036  0.2591  0.9766
  156SAPE    C217332   5.693   6.575   6.935 -0.4389  0.7078  0.1085
  156SAPE    HS17333   5.722   6.646   7.015 -3.3354 -0.4990  2.3245
  156SAPE   O2117334   5.764   6.456   6.958 -0.2070 -0.0960 -0.1968
  156SAPE   C2117335   5.891   6.455   7.000 -0.2046  0.2510  0.1664
  156SAPE   O2217336   5.959   6.554   7.006  0.3756 -0.0558 -1.3639
  156SAPE   C2217337   5.924   6.303   7.025  0.5057 -0.3380  0.2003
  156SAPE   H2R17338   5.844   6.252   7.083 -0.6018 -2.8528 -3.4121
  156SAPE   H2S17339   5.910   6.260   6.924  2.9702 -0.5266 -0.1038
  156SAPE    C317340   5.538   6.553   6.953  0.1074  0.0532  0.0830
  156SAPE    HX17341   5.531   6.494   7.047 -0.2325  2.0295  1.3299
  156SAPE    HY17342   5.511   6.487   6.868  1.9376  1.0967 -1.3477
  156SAPE   O3117343   5.460   6.673   6.949 -0.3291 -0.3709  0.5805
  156SAPE   C3117344   5.438   6.723   7.072 -0.4889 -0.3370 -0.7760
  156SAPE   O3217345   5.487   6.689   7.178 -0.4294  0.5953  0.7246
  156SAPE   C3217346   5.350   6.839   7.053 -0.0359 -0.4732 -0.3876
  156SAPE   H2X17347   5.250   6.800   7.083 -0.4870 -0.6697 -2.0866
  156SAPE   H2Y17348   5.350   6.863   6.945 -1.4620  0.4736 -0.1883
  156SAPE   C2317349   6.063   6.261   7.070  0.8199  0.0219 -0.1360
  156SAPE   H3R17350   6.133   6.306   6.996 -1.4458 -1.2559 -3.1437
  156SAPE   H3S17351   6.076   6.151   7.059  3.0320  0.4317 -2.0670
  156SAPE   C2417352   6.106   6.285   7.215  0.4608 -0.6405  0.1850
  156SAPE   H4R17353   6.095   6.395   7.229 -0.0794 -0.5948 -0.5899
  156SAPE   H4S17354   6.212   6.251   7.218  0.9400  0.5218 -2.2087
  156SAPE   C2517355   6.028   6.220   7.324  0.2189  0.2100  0.7592
  156SAPE   H5R17356   6.060   6.118   7.348 -0.5754  0.0533  1.1768
  156SAPE   C2617357   5.927   6.269   7.410  0.2576  0.2807  0.1062
  156SAPE   H6R17358   5.876   6.208   7.486 -0.7134  2.2390  1.0704
  156SAPE   C2717359   5.897   6.411   7.411  0.0705 -0.0286 -0.0348
  156SAPE   H7R17360   5.969   6.482   7.364  0.3048 -0.5434 -0.4664
  156SAPE   H7S17361   5.906   6.442   7.517  0.5825  0.4867 -0.2279
  156SAPE   C2817362   5.760   6.444   7.364  0.4630  0.1382  0.1157
  156SAPE   H8R17363   5.768   6.498   7.269 -1.6037  3.2544  1.6418
  156SAPE   C2917364   5.643   6.444   7.432 -0.9684  0.1463 -0.4219
  156SAPE   H9R17365   5.550   6.481   7.387 -0.4089  1.5184 -0.4715
  156SAPE  C21017366   5.631   6.392   7.571  0.1586 -0.3859 -0.3939
  156SAPE  H10R17367   5.675   6.464   7.643 -1.6005 -1.1788  1.5059
  156SAPE  H10S17368   5.686   6.296   7.583 -1.3793 -1.1390  0.6587
  156SAPE  C21117369   5.485   6.353   7.601 -0.5913 -0.6544  0.0932
  156SAPE  H11R17370   5.425   6.319   7.515 -0.6964 -1.5351  0.5096
  156SAPE  C21217371   5.440   6.332   7.729 -0.2767 -0.4595 -0.8696
  156SAPE  H12R17372   5.336   6.297   7.742 -0.4176  0.3126  0.1149
  156SAPE  C21317373   5.507   6.360   7.865 -0.0573 -0.0626 -0.5794
  156SAPE  H13R17374   5.616   6.352   7.848 -0.0615  1.1260 -1.2577
  156SAPE  H13S17375   5.480   6.281   7.938 -0.8281 -0.0987 -0.9017
  156SAPE  C21417376   5.468   6.499   7.916 -0.3331  0.5090 -0.8016
  156SAPE  H14R17377   5.479   6.577   7.839 -1.0413 -0.6463 -2.1091
  156SAPE  C21517378   5.432   6.530   8.043  0.1028 -0.1982  0.4694
  156SAPE  H15R17379   5.387   6.630   8.052 -0.3604 -0.2861 -0.8164
  156SAPE  C21617380   5.420   6.436   8.160  0.2507 -0.2571  0.0306
  156SAPE  H16R17381   5.457   6.464   8.261 -1.7127 -2.3679  1.4188
  156SAPE  H16S17382   5.483   6.345   8.148 -0.7573 -1.1560  1.3621
  156SAPE  C21717383   5.271   6.397   8.186  0.6907  0.0659 -0.4506
  156SAPE  H17R17384   5.217   6.365   8.095 -0.6295 -1.0929  0.7041
  156SAPE  H17S17385   5.226   6.488   8.231 -2.4511 -1.6195  0.0247
  156SAPE  C21817386   5.256   6.289   8.290 -0.2088  0.6324  0.0056
  156SAPE  H18R17387   5.312   6.313   8.383  1.5996 -1.3888 -0.5358
  156SAPE  H18S17388   5.300   6.192   8.259  0.7668  0.6428  1.3106
  156SAPE  C21917389   5.111   6.265   8.318 -0.2172  0.6385 -0.1362
  156SAPE  H19R17390   5.062   6.199   8.243 -3.4906  0.1909  2.3216
  156SAPE  H19S17391   5.058   6.362   8.314 -0.1962  0.7088  1.0570
  156SAPE  C22017392   5.085   6.210   8.464 -0.1489 -0.1534 -0.3894
  156SAPE  H20R17393   4.978   6.187   8.477  0.2312 -1.6911  0.1579
  156SAPE  H20S17394   5.111   6.285   8.541  1.0610  0.1416 -1.0548
  156SAPE  H20T17395   5.144   6.117   8.478 -0.0782 -0.0512 -0.0346
  156SAPE   C3317396   5.395   6.968   7.131 -0.4889 -0.8151 -0.5510
  156SAPE   H3X17397   5.370   7.060   7.075  2.0522  0.8159  0.9113
  156SAPE   H3Y17398   5.504   6.982   7.141 -0.7713  1.3520 -0.2009
  156SAPE   C3417399   5.323   6.958   7.269 -0.7931 -0.4881  0.7152
  156SAPE   H4X17400   5.362   6.879   7.336 -0.5657  0.9801  2.3397
  156SAPE   H4Y17401   5.218   6.921   7.265 -1.1591  0.6355 -0.3987
  156SAPE   C3517402   5.326   7.088   7.351 -0.0604 -0.7427 -0.3958
  156SAPE   H5X17403   5.256   7.160   7.304  0.1716  1.0095  1.8487
  156SAPE   H5Y17404   5.432   7.124   7.347  0.2307 -1.3074  1.6051
  156SAPE   C3617405   5.287   7.073   7.502  0.6240  0.1367 -0.2666
  156SAPE   H6X17406   5.339   6.985   7.545  1.5348  0.7797 -0.0486
  156SAPE   H6Y17407   5.177   7.056   7.490  0.3371  2.2092 -0.8361
  156SAPE   C3717408   5.314   7.200   7.582 -0.2390  0.1667  0.5092
  156SAPE   H7X17409   5.423   7.216   7.583 -0.3728  1.1230  0.1425
  156SAPE   H7Y17410   5.273   7.186   7.684 -0.8711 -2.3984 -0.0504
  156SAPE   C3817411   5.249   7.331   7.527 -0.4926  0.0189  0.3799
  156SAPE   H8X17412   5.141   7.316   7.505  0.2401 -1.4322 -2.5373
  156SAPE   H8Y17413   5.294   7.338   7.426 -0.9407 -1.1432  0.0846
  156SAPE   C3917414   5.256   7.456   7.621  0.2504  0.2798 -1.0084
  156SAPE   H9X17415   5.181   7.443   7.701  0.9397 -0.9292 -0.5354
  156SAPE   H9Y17416   5.213   7.532   7.552  0.3585  0.7857 -0.5216
  156SAPE  C31017417   5.400   7.489   7.671 -0.5677 -0.3810  0.3334
  156SAPE  H10X17418   5.463   7.501   7.580  0.0595  2.3306  1.0681
  156SAPE  H10Y17419   5.441   7.406   7.732  0.8051 -0.7636 -1.0945
  156SAPE  C31117420   5.400   7.626   7.737 -0.6313 -0.2968  0.8806
  156SAPE  H11X17421   5.331   7.634   7.823 -0.8208  0.5489  0.6592
  156SAPE  H11Y17422   5.364   7.692   7.655  1.3043 -0.0086  0.2170
  156SAPE  C31217423   5.535   7.674   7.781  0.0167  0.2820 -0.3898
  156SAPE  H12X17424   5.603   7.672   7.693 -1.1889 -2.9940 -1.3279
  156SAPE  H12Y17425   5.576   7.607   7.859 -1.2754  0.2033  0.2325
  156SAPE  C31317426   5.517   7.811   7.851  0.2297 -0.3222 -0.1309
  156SAPE  H13X17427   5.440   7.803   7.931 -0.7139  0.3907 -0.9491
  156SAPE  H13Y17428   5.470   7.885   7.782 -1.2946  0.0995  1.3133
  156SAPE  C31417429   5.644   7.866   7.912  0.2881 -0.1821  0.2361
  156SAPE  H14X17430   5.679   7.792   7.986  0.8760 -0.7676 -0.6177
  156SAPE  H14Y17431   5.627   7.963   7.963 -0.8994 -0.7586  0.9627
  156SAPE  C31517432   5.757   7.886   7.803  0.0302 -0.4626 -0.5191
  156SAPE  H15X17433   5.776   7.795   7.742 -3.0203 -0.5707 -1.3653
  156SAPE  H15Y17434   5.851   7.901   7.860 -0.1068  0.3938 -0.5157
  156SAPE  C31617435   5.732   8.016   7.729 -0.1980  0.8406  0.0644
  156SAPE  H16X17436   5.721   8.095   7.806 -2.8173  0.4993  0.0740
  156SAPE  H16Y17437   5.636   8.025   7.674 -0.1790  1.2368  0.1001
  156SAPE  C31717438   5.853   8.064   7.645  0.4559 -0.0628  0.9437
  156SAPE  H17X17439   5.954   8.047   7.688  1.4763  1.2973 -0.8485
  156SAPE  H17Y17440   5.845   8.172   7.622  0.3144 -0.7053 -2.3430
  156SAPE  C31817441   5.853   8.022   7.501 -0.4541 -0.3358  0.4113
  156SAPE  H18X17442   5.764   8.062   7.447  1.6678  1.6580 -1.7239
  156SAPE  H18Y17443   5.843   7.911   7.496 -0.2438 -0.2708 -2.0531
  156SAPE  H18Z17444   5.947   8.054   7.451 -0.9095  1.0027  0.3916
  157SAPE     N17445   3.267   0.651   6.470  0.2295 -0.2987 -0.9051
  157SAPE   HN117446   3.278   0.585   6.549 -0.4221  0.6613  0.0140
  157SAPE   HN217447   3.210   0.605   6.396 -0.4988  2.3506 -2.0738
  157SAPE   HN317448   3.357   0.673   6.423 -0.2659 -1.6895 -2.5747
  157SAPE   C1217449   3.220   0.783   6.531  0.1114  0.8959 -0.0861
  157SAPE  H12A17450   3.306   0.822   6.590  1.5057 -0.7080 -0.9758
  157SAPE  H12B17451   3.139   0.763   6.604  0.9457 -1.5266  0.2371
  157SAPE   C1117452   3.191   0.873   6.415  0.2429 -0.5976 -0.2671
  157SAPE  H11A17453   3.128   0.827   6.335  1.6043 -1.9128 -0.6041
  157SAPE  H11B17454   3.289   0.905   6.373  0.1613  1.9861  1.4169
  157SAPE     P17455   2.987   1.024   6.490 -0.1687  0.2635  0.4800
  157SAPE   O1317456   2.943   1.106   6.373  0.5980 -0.1041 -0.6778
  157SAPE   O1417457   2.918   0.892   6.506  0.4628  0.4449  0.1686
  157SAPE   O1217458   3.146   0.991   6.484  0.1129 -0.1212  0.0997
  157SAPE   O1117459   2.973   1.102   6.629  0.5567  0.6606 -0.0381
  157SAPE    C117460   3.070   1.096   6.735  0.6390 -0.8634  0.5784
  157SAPE    HA17461   3.145   1.017   6.715  2.5132  0.9077  0.5548
  157SAPE    HB17462   3.112   1.199   6.735 -1.8949  0.2262  0.7444
  157SAPE    C217463   3.001   1.064   6.871  0.4587 -0.3055 -0.4866
  157SAPE    HS17464   3.068   1.080   6.958  0.8536 -0.2619 -0.7932
  157SAPE   O2117465   2.943   0.932   6.876 -0.1564  0.1445  0.4359
  157SAPE   C2117466   3.047   0.846   6.884  0.2976  0.3650  0.1061
  157SAPE   O2217467   3.159   0.866   6.911 -0.2669  0.0127 -0.5227
  157SAPE   C2217468   2.992   0.706   6.873 -0.2054  0.1963 -0.1484
  157SAPE   H2R17469   2.995   0.684   6.764  0.4038 -2.3876  0.3743
  157SAPE   H2S17470   3.071   0.653   6.930 -0.8529 -1.6038 -0.8783
  157SAPE    C317471   2.892   1.180   6.888 -0.7178  0.3540  1.2159
  157SAPE    HX17472   2.819   1.184   6.804 -1.9558 -1.9493  2.1329
  157SAPE    HY17473   2.947   1.276   6.900 -0.8624  0.3541  1.8981
  157SAPE   O3117474   2.824   1.156   7.009 -0.1725  0.5441 -1.0422
  157SAPE   C3117475   2.709   1.102   7.006 -0.5589 -0.2631 -0.4066
  157SAPE   O3217476   2.649   1.062   6.907 -0.1187  0.0781 -0.0708
  157SAPE   C3217477   2.650   1.083   7.150 -0.2834 -0.0007 -0.7482
  157SAPE   H2X17478   2.570   1.005   7.153 -0.5897  0.3700  1.4166
  157SAPE   H2Y17479   2.608   1.186   7.155  2.0746  0.9557 -0.2065
  157SAPE   C2317480   2.852   0.683   6.931  0.0205 -0.4907  0.4189
  157SAPE   H3R17481   2.827   0.576   6.912  0.9701 -0.7310  0.4834
  157SAPE   H3S17482   2.776   0.745   6.880  2.2304  1.2791 -0.8001
  157SAPE   C2417483   2.852   0.708   7.084 -0.0343 -0.8703 -0.0687
  157SAPE   H4R17484   2.750   0.694   7.127 -0.7885 -1.1266 -1.9065
  157SAPE   H4S17485   2.883   0.811   7.110 -1.6052 -0.6995  1.2365
  157SAPE   C2517486   2.936   0.606   7.143  0.2403  0.4309  0.5674
  157SAPE   H5R17487   2.904   0.502   7.131 -0.2995  0.7297 -0.6533
  157SAPE   C2617488   3.039   0.633   7.225 -0.6078  0.4654 -0.0412
  157SAPE   H6R17489   3.092   0.548   7.271 -1.8795 -0.9298 -1.0877
  157SAPE   C2717490   3.091   0.768   7.273  0.4912  0.4736  0.1078
  157SAPE   H7R17491   3.003   0.835   7.273 -0.6386 -0.9893  0.1874
  157SAPE   H7S17492   3.168   0.793   7.196 -0.1443  3.9715  0.5159
  157SAPE   C2817493   3.152   0.768   7.416 -0.7433  0.0708 -0.3471
  157SAPE   H8R17494   3.240   0.833   7.424 -2.3684  2.1840  0.6923
  157SAPE   C2917495   3.106   0.713   7.535 -0.0390 -0.5389  0.6239
  157SAPE   H9R17496   3.175   0.708   7.620 -0.1536 -0.8928  0.6954
  157SAPE  C21017497   2.983   0.628   7.540 -0.2134  0.1744  0.4583
  157SAPE  H10R17498   3.007   0.520   7.537 -1.0613 -0.0055 -0.0983
  157SAPE  H10S17499   2.907   0.638   7.459  0.0449 -1.7956 -0.0346
  157SAPE  C21117500   2.918   0.668   7.660 -0.5000  0.0977 -0.3106
  157SAPE  H11R17501   2.846   0.751   7.648  0.0050  0.6471  0.4351
  157SAPE  C21217502   2.938   0.627   7.784 -0.7073  0.1664  0.2255
  157SAPE  H12R17503   2.875   0.672   7.862  0.0081 -0.4467  1.1608
  157SAPE  C21317504   3.019   0.514   7.838  0.4426  0.5076 -0.2103
  157SAPE  H13R17505   3.119   0.557   7.857  0.1646  1.5598 -1.1251
  157SAPE  H13S17506   3.039   0.446   7.753 -2.0101  2.2505 -2.2528
  157SAPE  C21417507   2.945   0.444   7.956 -0.4551  0.1772  0.4883
  157SAPE  H14R17508   2.884   0.357   7.929 -0.7776  0.8656 -1.0968
  157SAPE  C21517509   2.957   0.475   8.087 -0.7364  0.6555 -0.6049
  157SAPE  H15R17510   2.919   0.411   8.168 -1.2553  2.1469  0.3608
  157SAPE  C21617511   3.033   0.601   8.124  0.5760  0.8572  0.4774
  157SAPE  H16R17512   2.983   0.690   8.081  1.8413  1.4517  0.2251
  157SAPE  H16S17513   3.139   0.605   8.090  0.0900  0.0901 -1.2190
  157SAPE  C21717514   3.030   0.620   8.272  0.0487  0.2800  0.3635
  157SAPE  H17R17515   3.095   0.542   8.318 -0.5010 -1.1660 -1.2770
  157SAPE  H17S17516   2.925   0.617   8.309 -0.6595  2.5329 -1.3543
  157SAPE  C21817517   3.092   0.748   8.316  0.2684  0.6238  0.0917
  157SAPE  H18R17518   3.061   0.825   8.243  0.8961 -1.1138 -2.0772
  157SAPE  H18S17519   3.203   0.755   8.306  0.5134 -1.0851  1.2709
  157SAPE  C21917520   3.049   0.785   8.464  0.3193  0.1368  0.5040
  157SAPE  H19R17521   2.943   0.817   8.454 -0.1455 -1.0479  1.5422
  157SAPE  H19S17522   3.125   0.862   8.490 -0.3658  1.3767 -1.0807
  157SAPE  C22017523   3.061   0.661   8.557 -0.1403  0.0370 -0.2127
  157SAPE  H20R17524   3.053   0.703   8.659 -3.6323 -0.1120 -0.3672
  157SAPE  H20S17525   3.162   0.619   8.541  0.4663  1.6839 -0.9256
  157SAPE  H20T17526   2.997   0.572   8.540 -0.7456  0.4108  0.1075
  157SAPE   C3317527   2.754   1.061   7.262  0.3119  0.2333 -1.1067
  157SAPE   H3X17528   2.823   1.148   7.266 -0.2557  0.5752  1.9651
  157SAPE   H3Y17529   2.810   0.965   7.263 -1.6157 -0.9724  3.0600
  157SAPE   C3417530   2.675   1.056   7.398 -0.0662  0.0383  0.1508
  157SAPE   H4X17531   2.611   0.965   7.401 -1.1173  0.6478 -2.7810
  157SAPE   H4Y17532   2.606   1.143   7.399  1.4247  1.2439 -0.0408
  157SAPE   C3517533   2.768   1.057   7.523 -0.1481 -0.9319  0.4958
  157SAPE   H5X17534   2.839   1.141   7.508 -1.7817  0.4397  0.3063
  157SAPE   H5Y17535   2.821   0.959   7.515  0.9630 -0.1666 -1.8462
  157SAPE   C3617536   2.691   1.055   7.660 -0.5303 -0.1279  0.3093
  157SAPE   H6X17537   2.611   0.978   7.662  0.1585 -0.8277  1.0761
  157SAPE   H6Y17538   2.641   1.155   7.662 -0.4238 -0.0851  0.9583
  157SAPE   C3717539   2.786   1.022   7.781 -0.1521  0.1626  0.1858
  157SAPE   H7X17540   2.889   1.055   7.757 -0.4128 -0.2368 -1.5291
  157SAPE   H7Y17541   2.787   0.911   7.777  0.7295  0.1874 -0.2391
  157SAPE   C3817542   2.737   1.075   7.918 -0.3238  0.4375  0.6405
  157SAPE   H8X17543   2.627   1.058   7.917 -0.6791  2.5450  0.2792
  157SAPE   H8Y17544   2.765   1.182   7.911 -2.3975  1.0099  0.6255
  157SAPE   C3917545   2.794   1.005   8.042  0.0999 -0.9213 -0.7322
  157SAPE   H9X17546   2.902   1.015   8.018  0.0947  1.0981 -0.0662
  157SAPE   H9Y17547   2.784   0.895   8.053 -0.3801 -0.6091  2.6274
  157SAPE  C31017548   2.744   1.059   8.182 -0.2991  0.3212 -0.0734
  157SAPE  H10X17549   2.783   0.995   8.264 -1.9736 -0.4676  0.1127
  157SAPE  H10Y17550   2.634   1.046   8.185 -0.6172  2.9640  2.6513
  157SAPE  C31117551   2.779   1.209   8.211  0.4797  0.0091  0.1093
  157SAPE  H11X17552   2.755   1.241   8.315 -1.1627 -0.1985 -0.1816
  157SAPE  H11Y17553   2.719   1.268   8.139  1.7724  0.3966 -0.6585
  157SAPE  C31217554   2.923   1.246   8.167 -0.2888  0.3483  0.0652
  157SAPE  H12X17555   2.937   1.356   8.175 -3.9804  0.9602 -0.7773
  157SAPE  H12Y17556   2.911   1.230   8.057  1.0999 -0.1761 -0.0164
  157SAPE  C31317557   3.038   1.162   8.226  1.2861 -0.4579 -0.0974
  157SAPE  H13X17558   3.048   1.054   8.203 -0.1215 -1.2697  2.8778
  157SAPE  H13Y17559   3.009   1.154   8.333  0.6395  2.4833 -0.0143
  157SAPE  C31417560   3.182   1.216   8.213  0.6779  0.1921  0.2198
  157SAPE  H14X17561   3.188   1.242   8.105  1.2869 -0.4713  0.0833
  157SAPE  H14Y17562   3.262   1.143   8.239  1.9606  1.3276 -0.4743
  157SAPE  C31517563   3.210   1.350   8.288 -0.8203  0.2550  0.2467
  157SAPE  H15X17564   3.216   1.326   8.397 -1.4672  1.8349  0.6510
  157SAPE  H15Y17565   3.119   1.413   8.282 -1.1928 -0.3358 -0.2535
  157SAPE  C31617566   3.326   1.433   8.233 -0.0149  0.6351 -0.4362
  157SAPE  H16X17567   3.336   1.533   8.281  1.3072  0.8064 -1.0407
  157SAPE  H16Y17568   3.316   1.441   8.123  2.1274  2.0879 -0.5606
  157SAPE  C31717569   3.469   1.378   8.262  0.0394 -0.2057 -0.5989
  157SAPE  H17X17570   3.472   1.275   8.222 -2.0150  0.4142 -2.4400
  157SAPE  H17Y17571   3.481   1.363   8.371 -1.0672 -3.6945 -0.9032
  157SAPE  C31817572   3.580   1.461   8.200 -0.7072 -0.1341  0.5701
  157SAPE  H18X17573   3.570   1.568   8.229  0.1086 -0.6433  2.8364
  157SAPE  H18Y17574   3.572   1.455   8.089 -0.0633  0.9932  0.4567
  157SAPE  H18Z17575   3.679   1.425   8.234 -1.0621 -3.2358 -1.4974
  158SAPE     N17576   4.675   5.210   6.235  0.1120 -0.0645  0.0681
  158SAPE   HN117577   4.590   5.155   6.210 -0.1365  0.5110 -0.3793
  158SAPE   HN217578   4.652   5.306   6.268  0.3365 -0.1528  0.4717
  158SAPE   HN317579   4.721   5.214   6.142 -1.0387 -0.0161 -0.5140
  158SAPE   C1217580   4.761   5.126   6.330  0.1070  0.2091 -0.2802
  158SAPE  H12A17581   4.711   5.044   6.385 -2.2178  2.6065  1.2629
  158SAPE  H12B17582   4.789   5.196   6.411 -0.4102  1.2107 -0.9676
  158SAPE   C1117583   4.892   5.075   6.261  0.6424  0.0895 -0.0902
  158SAPE  H11A17584   4.876   5.006   6.176 -0.6609  0.3378 -0.0477
  158SAPE  H11B17585   4.948   5.025   6.343 -0.1172  0.8441  0.9044
  158SAPE     P17586   5.029   5.300   6.284  0.3310  0.2736  0.4362
  158SAPE   O1317587   5.162   5.334   6.222 -0.3168 -0.2374  0.1118
  158SAPE   O1417588   4.928   5.407   6.296 -0.3676 -0.1110 -0.1104
  158SAPE   O1217589   4.970   5.181   6.204  0.4534  0.4466  0.3160
  158SAPE   O1117590   5.048   5.227   6.417  0.1397 -0.0843  0.1319
  158SAPE    C117591   5.166   5.234   6.503 -0.1071  0.5326 -0.0007
  158SAPE    HA17592   5.178   5.141   6.562 -0.4041  0.8386  0.5510
  158SAPE    HB17593   5.257   5.250   6.442  0.9902 -1.1402  1.1868
  158SAPE    C217594   5.149   5.334   6.620 -0.0489  0.2952  0.2797
  158SAPE    HS17595   5.214   5.308   6.707 -3.6885 -1.9173  2.4559
  158SAPE   O2117596   5.015   5.343   6.660 -0.1657  0.5011 -0.1381
  158SAPE   C2117597   4.975   5.246   6.753 -1.5913  0.1599 -0.3962
  158SAPE   O2217598   5.056   5.155   6.787  0.1544  0.6943  0.3427
  158SAPE   C2217599   4.825   5.239   6.776 -0.4978  0.4141 -0.0999
  158SAPE   H2R17600   4.796   5.142   6.730  1.4066  0.4926 -1.5384
  158SAPE   H2S17601   4.808   5.234   6.885 -0.3685  1.1025 -0.0434
  158SAPE    C317602   5.207   5.469   6.576  0.1958  0.7884 -0.0647
  158SAPE    HX17603   5.150   5.484   6.482 -0.3131  1.0404  0.2847
  158SAPE    HY17604   5.316   5.453   6.560  0.7438  3.6163  0.5916
  158SAPE   O3117605   5.192   5.576   6.674  0.1576 -0.7923  0.5131
  158SAPE   C3117606   5.124   5.678   6.621  0.0310 -0.6596  0.2707
  158SAPE   O3217607   5.094   5.697   6.505  0.0411  0.2109 -0.2132
  158SAPE   C3217608   5.106   5.791   6.735 -0.1955  0.7860  0.1919
  158SAPE   H2X17609   5.188   5.865   6.727  0.2678  0.1764 -0.8540
  158SAPE   H2Y17610   5.107   5.747   6.837  1.3172 -2.3171 -1.0905
  158SAPE   C2317611   4.747   5.356   6.715  0.2252 -0.1076  0.5713
  158SAPE   H3R17612   4.639   5.332   6.727 -1.1590  4.6508 -1.5048
  158SAPE   H3S17613   4.756   5.373   6.606  1.7100  0.4232  0.7722
  158SAPE   C2417614   4.779   5.488   6.788 -0.3485 -0.3250 -0.1287
  158SAPE   H4R17615   4.739   5.565   6.719 -2.8448 -2.5227 -1.2118
  158SAPE   H4S17616   4.890   5.492   6.779 -0.6815  0.9350 -5.0811
  158SAPE   C2517617   4.725   5.493   6.931 -0.0853 -0.1616 -0.1149
  158SAPE   H5R17618   4.615   5.493   6.940 -0.1228  0.5925 -0.5213
  158SAPE   C2617619   4.798   5.500   7.042 -0.1867 -0.3532  0.2511
  158SAPE   H6R17620   4.742   5.504   7.137 -0.8625 -0.8242 -0.1284
  158SAPE   C2717621   4.948   5.523   7.060  0.6550 -0.0822  0.0240
  158SAPE   H7R17622   4.980   5.562   6.961 -3.4296  0.9346 -0.9962
  158SAPE   H7S17623   4.995   5.423   7.074 -1.0657 -1.0484 -1.0013
  158SAPE   C2817624   4.985   5.629   7.170 -0.0617  0.2833 -0.6564
  158SAPE   H8R17625   4.997   5.733   7.134  1.7053  0.0715 -0.7273
  158SAPE   C2917626   4.989   5.604   7.305  0.3377  0.0259 -0.6977
  158SAPE   H9R17627   5.014   5.681   7.380 -0.4349 -0.8158  0.4514
  158SAPE  C21017628   4.959   5.474   7.375  0.0458  0.3780  0.0282
  158SAPE  H10R17629   4.982   5.395   7.300 -1.8906 -1.0446  0.8989
  158SAPE  H10S17630   4.852   5.459   7.402 -0.0155  1.7160  0.5868
  158SAPE  C21117631   5.043   5.466   7.499  0.3120 -0.6769 -0.5449
  158SAPE  H11R17632   5.126   5.395   7.512  0.5062 -0.6386 -1.4805
  158SAPE  C21217633   5.023   5.538   7.614  0.1079  0.5555  0.5245
  158SAPE  H12R17634   5.088   5.522   7.702  2.2847 -0.2062 -1.1649
  158SAPE  C21317635   4.914   5.642   7.637 -0.2659 -0.1138  0.1713
  158SAPE  H13R17636   4.869   5.680   7.543 -0.0858 -0.0021  0.1313
  158SAPE  H13S17637   4.952   5.736   7.683 -3.1063  0.2858  1.8661
  158SAPE  C21417638   4.814   5.564   7.733  0.1786 -0.4414  1.1254
  158SAPE  H14R17639   4.733   5.511   7.680  0.2587  1.8817 -1.4088
  158SAPE  C21517640   4.819   5.562   7.867 -0.9964 -0.5151 -0.1854
  158SAPE  H15R17641   4.738   5.509   7.917 -2.3369 -1.3002 -3.0829
  158SAPE  C21617642   4.923   5.631   7.952 -0.2571 -0.1181 -0.4162
  158SAPE  H16R17643   4.912   5.739   7.930 -2.3411 -0.3258 -0.5402
  158SAPE  H16S17644   5.019   5.588   7.916  0.3899 -0.0418  1.1664
  158SAPE  C21717645   4.901   5.600   8.101 -0.3722 -0.3959  0.0176
  158SAPE  H17R17646   4.800   5.636   8.129 -0.9797 -1.8817 -0.2178
  158SAPE  H17S17647   4.973   5.660   8.161  1.0650 -1.5165 -0.5667
  158SAPE  C21817648   4.908   5.454   8.142  0.1974  0.0951  0.0181
  158SAPE  H18R17649   4.993   5.410   8.086 -0.3336 -0.8651 -0.0436
  158SAPE  H18S17650   4.810   5.406   8.121  0.1183  1.0532 -1.9863
  158SAPE  C21917651   4.935   5.434   8.291 -0.2298  0.7293 -0.2945
  158SAPE  H19R17652   5.023   5.496   8.317 -0.1124 -0.5129  2.4596
  158SAPE  H19S17653   4.975   5.331   8.306  2.4604  1.3930 -2.3783
  158SAPE  C22017654   4.817   5.458   8.387  0.0879  0.2222  1.1091
  158SAPE  H20R17655   4.748   5.371   8.384 -1.1984  1.2641 -2.2404
  158SAPE  H20S17656   4.765   5.549   8.348  0.1345 -1.7042 -3.8236
  158SAPE  H20T17657   4.846   5.454   8.494 -0.4671 -1.3935  1.2145
  158SAPE   C3317658   4.977   5.871   6.718 -0.4494  0.2485 -0.1106
  158SAPE   H3X17659   4.897   5.794   6.724  0.4265 -0.4697  3.9602
  158SAPE   H3Y17660   4.956   5.905   6.614  0.7460 -0.0660 -0.4585
  158SAPE   C3417661   4.954   5.980   6.822  0.2475  0.0080 -0.1361
  158SAPE   H4X17662   4.933   5.924   6.916 -0.7006  0.5969  0.0079
  158SAPE   H4Y17663   4.869   6.042   6.788  0.5507  1.8740  2.4060
  158SAPE   C3517664   5.080   6.073   6.842  0.3545  0.7687 -0.0488
  158SAPE   H5X17665   5.123   6.100   6.743 -0.8976  1.4175 -0.4359
  158SAPE   H5Y17666   5.163   6.023   6.896  1.7254  1.9286 -1.0484
  158SAPE   C3617667   5.064   6.207   6.909  0.2253 -0.0480 -0.0820
  158SAPE   H6X17668   5.017   6.201   7.009  2.2966 -2.8386  0.7703
  158SAPE   H6Y17669   4.991   6.266   6.849 -2.2041 -0.7352  2.1261
  158SAPE   C3717670   5.193   6.285   6.920 -0.1899 -0.1829  0.0562
  158SAPE   H7X17671   5.271   6.216   6.960 -0.0731  0.4937  1.0074
  158SAPE   H7Y17672   5.234   6.314   6.821 -0.5629 -2.0993 -0.6882
  158SAPE   C3817673   5.179   6.416   6.994  0.0361 -0.1617 -0.8447
  158SAPE   H8X17674   5.110   6.485   6.942  1.8075  0.7137 -2.0866
  158SAPE   H8Y17675   5.280   6.462   7.000 -0.3142  0.5160 -0.1146
  158SAPE   C3917676   5.125   6.404   7.139 -0.1374 -0.7828 -0.3889
  158SAPE   H9X17677   5.176   6.325   7.198  2.6925  1.3996  0.2110
  158SAPE   H9Y17678   5.021   6.365   7.133 -0.5519  0.4329 -1.1913
  158SAPE  C31017679   5.136   6.538   7.220  0.0992  0.2464 -0.0937
  158SAPE  H10X17680   5.082   6.609   7.153 -2.4916 -1.8318 -0.2462
  158SAPE  H10Y17681   5.244   6.557   7.240 -0.6020  3.7390  0.7699
  158SAPE  C31117682   5.066   6.524   7.357 -0.0956  0.5512 -0.0355
  158SAPE  H11X17683   5.125   6.464   7.429  0.8606 -0.3138 -1.4920
  158SAPE  H11Y17684   4.973   6.463   7.344  0.3909  0.0979 -1.5865
  158SAPE  C31217685   5.045   6.649   7.434 -0.1748  0.6226  0.0850
  158SAPE  H12X17686   4.958   6.643   7.503 -2.2031  0.1826 -2.3888
  158SAPE  H12Y17687   5.027   6.730   7.360 -1.6874  1.2554  1.1152
  158SAPE  C31317688   5.165   6.706   7.513 -0.8320 -0.2101  0.1717
  158SAPE  H13X17689   5.171   6.817   7.509  1.7521 -0.2809  1.0606
  158SAPE  H13Y17690   5.254   6.669   7.458 -1.7690 -1.2431 -0.6546
  158SAPE  C31417691   5.170   6.646   7.648  0.1469  0.2405  0.2104
  158SAPE  H14X17692   5.268   6.650   7.700  0.4679 -2.6769 -0.0976
  158SAPE  H14Y17693   5.152   6.537   7.632  0.0046 -0.0325  2.1217
  158SAPE  C31517694   5.058   6.683   7.751 -0.2721 -0.0668 -0.1550
  158SAPE  H15X17695   4.965   6.630   7.721 -0.1676  0.4135 -1.3754
  158SAPE  H15Y17696   5.047   6.792   7.731 -0.4885 -0.1787 -0.6764
  158SAPE  C31617697   5.091   6.671   7.894 -0.2698  0.8741 -0.6058
  158SAPE  H16X17698   5.184   6.729   7.910 -0.5528  0.5375  2.5959
  158SAPE  H16Y17699   5.120   6.565   7.912 -1.9278  0.6534  0.8418
  158SAPE  C31717700   4.982   6.698   7.993  0.7385 -0.1149 -0.6704
  158SAPE  H17X17701   4.899   6.634   7.956  1.1731 -0.5613 -0.8773
  158SAPE  H17Y17702   4.969   6.808   7.986  2.2947  0.3528  2.6499
  158SAPE  C31817703   5.017   6.661   8.135 -0.0229 -0.4108 -0.1229
  158SAPE  H18X17704   5.042   6.553   8.144  0.5735 -0.1198  1.9835
  158SAPE  H18Y17705   4.926   6.666   8.198  0.4352  0.0882  0.5150
  158SAPE  H18Z17706   5.091   6.730   8.182 -1.2355  2.2183 -1.9356
  159SAPE     N17707   3.704   1.961   6.128  0.1991 -0.1239 -0.3633
  159SAPE   HN117708   3.791   2.016   6.138  0.4620 -0.3613 -1.3140
  159SAPE   HN217709   3.678   1.960   6.027 -0.3263 -1.5531 -0.2238
  159SAPE   HN317710   3.625   2.009   6.175  2.0902  2.5262  0.2250
  159SAPE   C1217711   3.711   1.818   6.180  0.2334  0.3355  0.7769
  159SAPE  H12A17712   3.686   1.750   6.095 -0.1048  0.1233  1.0419
  159SAPE  H12B17713   3.630   1.806   6.255 -0.6772 -0.4898 -0.3040
  159SAPE   C1117714   3.852   1.777   6.209  0.6182 -0.0362 -0.4408
  159SAPE  H11A17715   3.858   1.673   6.245  1.1624 -0.0163 -0.4728
  159SAPE  H11B17716   3.897   1.835   6.292  0.9776  3.7448 -3.1179
  159SAPE     P17717   4.065   1.723   6.068  0.0692 -0.0319  0.2655
  159SAPE   O1317718   4.029   1.598   5.998 -0.3874  0.0707 -0.1216
  159SAPE   O1417719   4.166   1.812   6.009 -0.5323  0.2778  0.1321
  159SAPE   O1217720   3.927   1.793   6.088  0.1784  0.3923  0.1553
  159SAPE   O1117721   4.116   1.677   6.208 -0.0679 -0.0377 -0.4993
  159SAPE    C117722   4.192   1.771   6.286 -0.0736  0.2153 -0.0023
  159SAPE    HA17723   4.284   1.804   6.233 -1.6031  1.1624 -2.1544
  159SAPE    HB17724   4.130   1.863   6.298  0.0244  0.8357 -3.4708
  159SAPE    C217725   4.230   1.716   6.424 -0.5762  0.5065  0.3999
  159SAPE    HS17726   4.307   1.640   6.398 -2.9915 -2.3674  1.3165
  159SAPE   O2117727   4.119   1.645   6.486 -0.0139  0.0899 -0.0616
  159SAPE   C2117728   4.019   1.718   6.535 -0.0738  0.0774 -0.0845
  159SAPE   O2217729   4.008   1.841   6.529 -0.1904  0.1043 -0.8773
  159SAPE   C2217730   3.931   1.629   6.621  0.1551 -0.2318 -0.5908
  159SAPE   H2R17731   3.849   1.591   6.557 -1.0845  1.6306 -0.1418
  159SAPE   H2S17732   3.996   1.551   6.668 -3.2791 -2.9922 -0.2528
  159SAPE    C317733   4.295   1.816   6.519 -0.1947  0.1372  0.3403
  159SAPE    HX17734   4.240   1.912   6.530 -0.0122  0.1912  0.8402
  159SAPE    HY17735   4.399   1.842   6.489  0.6324 -0.3089  2.6494
  159SAPE   O3117736   4.303   1.749   6.652  0.3110  0.2066  0.3634
  159SAPE   C3117737   4.386   1.807   6.734 -0.3162 -0.3194 -0.3878
  159SAPE   O3217738   4.456   1.907   6.711 -0.5305 -0.3256 -0.1397
  159SAPE   C3217739   4.386   1.724   6.864  0.0980  0.6472 -0.0737
  159SAPE   H2X17740   4.396   1.616   6.842 -0.3455  0.8924 -1.5123
  159SAPE   H2Y17741   4.286   1.749   6.905  0.7256  2.3415  0.5008
  159SAPE   C2317742   3.874   1.717   6.732  0.4965 -0.9996 -0.1468
  159SAPE   H3R17743   3.791   1.675   6.791  0.4502  0.1307  0.6052
  159SAPE   H3S17744   3.826   1.813   6.704  3.0657 -0.0146 -1.3746
  159SAPE   C2417745   3.988   1.749   6.836 -0.0920  0.4505 -0.7116
  159SAPE   H4R17746   3.946   1.833   6.896  1.5565  0.1673  0.8789
  159SAPE   H4S17747   4.080   1.788   6.787  2.5493 -2.0856  2.0047
  159SAPE   C2517748   4.024   1.645   6.934  0.2053  0.4691 -0.1998
  159SAPE   H5R17749   4.062   1.551   6.892  0.9608  0.7320 -0.1099
  159SAPE   C2617750   4.007   1.654   7.066  0.9432 -0.3422 -0.2026
  159SAPE   H6R17751   4.053   1.576   7.128  0.5300 -1.1432 -0.8967
  159SAPE   C2717752   3.956   1.769   7.147  0.2520 -0.5922  0.3401
  159SAPE   H7R17753   3.945   1.862   7.086  1.2566  0.2114  1.3713
  159SAPE   H7S17754   4.027   1.794   7.228 -0.2896 -1.4659  1.0979
  159SAPE   C2817755   3.822   1.732   7.208 -0.7244 -0.0487 -0.1154
  159SAPE   H8R17756   3.764   1.670   7.138 -1.1198 -0.9249  0.9690
  159SAPE   C2917757   3.781   1.750   7.341  0.6935  0.2735 -0.1439
  159SAPE   H9R17758   3.687   1.704   7.374  0.1403  1.1288 -0.5197
  159SAPE  C21017759   3.863   1.802   7.460 -0.6766  0.3091 -0.2399
  159SAPE  H10R17760   3.793   1.858   7.526 -1.8317  0.7089 -1.7764
  159SAPE  H10S17761   3.934   1.873   7.414 -0.8587 -0.7581 -2.2076
  159SAPE  C21117762   3.938   1.696   7.541  0.4322  0.2510 -0.3712
  159SAPE  H11R17763   3.966   1.612   7.477  1.9243 -1.4643  2.4320
  159SAPE  C21217764   3.967   1.691   7.675  0.0318 -0.4144  0.5613
  159SAPE  H12R17765   4.035   1.611   7.708  0.8824  0.2177  0.3592
  159SAPE  C21317766   3.931   1.790   7.782 -0.5658 -0.3550  0.5178
  159SAPE  H13R17767   3.892   1.883   7.738 -0.5237 -0.1027  1.0100
  159SAPE  H13S17768   4.016   1.820   7.847 -2.1272 -0.5914  2.7614
  159SAPE  C21417769   3.827   1.711   7.866 -1.0816  0.2869  0.6831
  159SAPE  H14R17770   3.734   1.679   7.816 -1.3653 -0.6746  1.8149
  159SAPE  C21517771   3.855   1.679   7.995 -0.4316 -0.6952 -0.0744
  159SAPE  H15R17772   3.780   1.625   8.053 -0.3120 -0.8713 -0.0837
  159SAPE  C21617773   3.980   1.710   8.075  0.1515  1.0712 -0.0858
  159SAPE  H16R17774   4.038   1.797   8.037 -0.0448  0.9614 -0.6317
  159SAPE  H16S17775   4.043   1.620   8.085  0.2085  0.8383 -2.3241
  159SAPE  C21717776   3.945   1.755   8.224 -0.3026  0.7271  1.5734
  159SAPE  H17R17777   3.907   1.662   8.272 -1.4250  1.0845  1.4084
  159SAPE  H17S17778   3.860   1.828   8.219 -2.1805 -1.5150 -0.5041
  159SAPE  C21817779   4.070   1.806   8.296  0.2626 -0.9260  0.0512
  159SAPE  H18R17780   4.107   1.901   8.253  0.2597 -1.1920 -0.5477
  159SAPE  H18S17781   4.150   1.729   8.283 -0.4620 -1.9177  1.3430
  159SAPE  C21917782   4.067   1.803   8.455 -0.7594  0.3077  0.3707
  159SAPE  H19R17783   4.013   1.713   8.492  1.5513 -1.1734  0.2522
  159SAPE  H19S17784   4.001   1.885   8.491 -0.7888  0.6808 -0.5202
  159SAPE  C22017785   4.207   1.809   8.520 -0.3660 -0.0190 -0.4313
  159SAPE  H20R17786   4.251   1.909   8.501  2.5119 -1.2376 -0.3769
  159SAPE  H20S17787   4.276   1.726   8.494  0.4731  0.7696 -0.7312
  159SAPE  H20T17788   4.211   1.806   8.631  1.4583 -0.9859 -0.5079
  159SAPE   C3317789   4.473   1.777   6.978  0.2324  0.0472  0.1416
  159SAPE   H3X17790   4.469   1.888   6.990 -1.8072 -0.2799  3.2235
  159SAPE   H3Y17791   4.581   1.760   6.958 -0.1109 -1.9500 -0.0582
  159SAPE   C3417792   4.449   1.721   7.116  0.4437  0.2433  0.2129
  159SAPE   H4X17793   4.537   1.734   7.183 -0.2592 -0.1571  1.2380
  159SAPE   H4Y17794   4.435   1.611   7.113 -2.1499  0.5857 -3.8220
  159SAPE   C3517795   4.330   1.782   7.195  0.6839  0.5367 -0.6210
  159SAPE   H5X17796   4.244   1.723   7.158  1.1332  0.4297 -1.5059
  159SAPE   H5Y17797   4.314   1.887   7.161 -0.1072  1.1309  1.5179
  159SAPE   C3617798   4.345   1.782   7.349 -0.0171 -0.1058 -0.2904
  159SAPE   H6X17799   4.251   1.825   7.387 -0.9191 -2.6624  0.4568
  159SAPE   H6Y17800   4.428   1.843   7.391  0.0439  0.3026 -0.9985
  159SAPE   C3717801   4.364   1.642   7.402  0.3743 -0.1889  0.0395
  159SAPE   H7X17802   4.470   1.615   7.384  0.8230  1.3845  0.3085
  159SAPE   H7Y17803   4.290   1.568   7.364 -0.6866 -0.3794  2.3885
  159SAPE   C3817804   4.334   1.629   7.554 -0.2578  0.1336 -0.0917
  159SAPE   H8X17805   4.347   1.519   7.567  2.6911  0.5117  0.3497
  159SAPE   H8Y17806   4.226   1.650   7.573 -0.1648  0.6468 -0.1333
  159SAPE   C3917807   4.429   1.691   7.655 -0.1757  0.0069 -0.3977
  159SAPE   H9X17808   4.446   1.799   7.639  1.7213 -0.2762 -0.4113
  159SAPE   H9Y17809   4.531   1.648   7.642 -1.0955 -2.7318  0.9967
  159SAPE  C31017810   4.382   1.674   7.801  0.2283  0.6814  0.2835
  159SAPE  H10X17811   4.372   1.565   7.820 -1.0024  0.6853 -0.3049
  159SAPE  H10Y17812   4.281   1.713   7.823  0.2692  1.1203 -0.2971
  159SAPE  C31117813   4.479   1.733   7.903 -0.0138  0.3855 -0.3735
  159SAPE  H11X17814   4.511   1.832   7.864 -2.3822  1.1722 -0.4045
  159SAPE  H11Y17815   4.573   1.673   7.902  0.5883  1.2938 -3.5386
  159SAPE  C31217816   4.430   1.752   8.045  0.5554 -0.4188 -0.1581
  159SAPE  H12X17817   4.375   1.664   8.085 -0.6670  0.1851 -0.5009
  159SAPE  H12Y17818   4.361   1.840   8.045  2.2662  0.9502 -0.3013
  159SAPE  C31317819   4.543   1.802   8.145  0.3221 -0.3623  0.2299
  159SAPE  H13X17820   4.617   1.866   8.093  1.9499 -1.8933  0.6081
  159SAPE  H13Y17821   4.600   1.716   8.187  0.8620  0.3187  0.8935
  159SAPE  C31417822   4.496   1.903   8.256  0.6233 -0.4216  0.0112
  159SAPE  H14X17823   4.425   1.863   8.331  2.2569  0.6311  2.1706
  159SAPE  H14Y17824   4.436   1.991   8.221  0.5103  0.5705  2.5661
  159SAPE  C31517825   4.618   1.953   8.336  0.3238  1.2639  0.5251
  159SAPE  H15X17826   4.701   1.983   8.269 -0.9021  0.0807 -1.5761
  159SAPE  H15Y17827   4.657   1.874   8.403  1.8680  2.3618  0.9302
  159SAPE  C31617828   4.571   2.074   8.425  0.2059  0.3665  0.2963
  159SAPE  H16X17829   4.488   2.033   8.487  2.1633 -0.7305  2.2433
  159SAPE  H16Y17830   4.547   2.162   8.362  2.6900 -0.8659 -2.4938
  159SAPE  C31717831   4.684   2.104   8.530 -0.2262 -0.2117  0.0089
  159SAPE  H17X17832   4.788   2.102   8.490 -0.4150 -0.2379 -0.4822
  159SAPE  H17Y17833   4.678   2.026   8.609 -0.7652 -0.9917 -0.7948
  159SAPE  C31817834   4.654   2.240   8.601  0.1811 -0.1247  0.3093
  159SAPE  H18X17835   4.726   2.256   8.684 -0.6879 -0.3806  1.1308
  159SAPE  H18Y17836   4.557   2.244   8.656 -1.0517 -2.7997 -1.5267
  159SAPE  H18Z17837   4.655   2.322   8.527  0.0315  1.8056  2.3791
  160SAPE     N17838   5.541   1.328   6.303  0.0778  0.0491  1.0586
  160SAPE   HN117839   5.516   1.247   6.244  0.8711 -0.1938  1.0546
  160SAPE   HN217840   5.447   1.350   6.341  0.4567  0.2680  1.8955
  160SAPE   HN317841   5.568   1.411   6.246 -2.2629  0.2285  0.1496
  160SAPE   C1217842   5.629   1.281   6.412 -0.3800  0.8989 -0.7036
  160SAPE  H12A17843   5.649   1.360   6.488  0.5929 -0.6224  0.6575
  160SAPE  H12B17844   5.726   1.239   6.378 -0.7430 -0.0089 -0.6416
  160SAPE   C1117845   5.559   1.166   6.493 -0.2509  0.4743 -0.1606
  160SAPE  H11A17846   5.463   1.197   6.540  0.2279 -0.5787  1.5788
  160SAPE  H11B17847   5.618   1.140   6.584 -0.9905  0.3204  0.2798
  160SAPE     P17848   5.633   0.923   6.429  0.2310  0.2818  0.1503
  160SAPE   O1317849   5.565   0.829   6.340  0.7566 -0.0625  0.0634
  160SAPE   O1417850   5.768   0.960   6.389 -0.2172 -0.3114 -0.4387
  160SAPE   O1217851   5.543   1.048   6.418  0.0172 -0.7193 -0.1365
  160SAPE   O1117852   5.621   0.854   6.576  0.4000 -0.0079 -0.6793
  160SAPE    C117853   5.507   0.884   6.664  0.2927  0.5203  0.3649
  160SAPE    HA17854   5.497   0.993   6.682 -1.0693  0.5452 -0.4293
  160SAPE    HB17855   5.415   0.837   6.623 -0.1391  1.4086  0.3055
  160SAPE    C217856   5.542   0.808   6.796 -0.5797 -0.6707  0.0135
  160SAPE    HS17857   5.580   0.706   6.777  1.5991 -0.3151  2.2538
  160SAPE   O2117858   5.428   0.806   6.877  0.7408 -0.4182 -0.2924
  160SAPE   C2117859   5.424   0.713   6.971 -0.4735  0.6713 -0.3961
  160SAPE   O2217860   5.505   0.617   6.983 -0.1492  0.2676  0.1488
  160SAPE   C2217861   5.305   0.747   7.065  0.3865 -0.2352 -0.0601
  160SAPE   H2R17862   5.315   0.680   7.153 -0.6474  0.0249  0.2736
  160SAPE   H2S17863   5.324   0.852   7.095 -3.0565 -0.1888  2.3486
  160SAPE    C317864   5.661   0.879   6.869 -0.4503  0.1593 -0.0038
  160SAPE    HX17865   5.610   0.978   6.876  0.7292  0.7127  1.0451
  160SAPE    HY17866   5.752   0.876   6.806  0.8235 -1.9056  1.8805
  160SAPE   O3117867   5.686   0.833   7.004  0.6227 -0.1465 -0.1259
  160SAPE   C3117868   5.755   0.917   7.071  0.3173  0.0050  0.0626
  160SAPE   O3217869   5.809   1.021   7.034  0.1585  0.0705 -0.7258
  160SAPE   C3217870   5.761   0.846   7.214  0.2156 -0.0662  0.6381
  160SAPE   H2X17871   5.658   0.848   7.256  0.1229 -1.1391  0.4883
  160SAPE   H2Y17872   5.819   0.908   7.286 -0.6033  0.0910  1.1631
  160SAPE   C2317873   5.155   0.730   7.014  0.0003  0.0589 -0.2905
  160SAPE   H3R17874   5.133   0.622   7.000 -0.0810  0.1867 -1.1676
  160SAPE   H3S17875   5.148   0.773   6.912  0.5104 -0.6181 -0.6191
  160SAPE   C2417876   5.058   0.814   7.102 -0.1267 -0.0843 -0.5036
  160SAPE   H4R17877   4.959   0.786   7.060 -0.1104 -1.9981  0.6500
  160SAPE   H4S17878   5.081   0.919   7.078 -1.3305  0.2368 -0.3084
  160SAPE   C2517879   5.035   0.776   7.250 -0.5747 -0.2661 -0.5587
  160SAPE   H5R17880   5.005   0.672   7.267  1.4874 -0.3644  2.9217
  160SAPE   C2617881   5.034   0.850   7.360 -0.9222 -0.1644  0.1530
  160SAPE   H6R17882   5.037   0.808   7.461  0.5996  0.4505  0.3878
  160SAPE   C2717883   5.066   0.999   7.366  0.7725 -0.0089  0.7106
  160SAPE   H7R17884   4.979   1.059   7.401  2.1795  2.4226  0.1517
  160SAPE   H7S17885   5.079   1.039   7.263  2.3652  0.4332  1.0679
  160SAPE   C2817886   5.180   1.028   7.460 -0.5470 -0.6256  0.7824
  160SAPE   H8R17887   5.284   1.010   7.430 -0.2886  1.1403  0.5585
  160SAPE   C2917888   5.159   1.066   7.585  0.7844 -0.1483 -1.0930
  160SAPE   H9R17889   5.245   1.091   7.647  0.9029 -0.3609 -1.1685
  160SAPE  C21017890   5.025   1.088   7.659  0.1788 -0.8493  0.1585
  160SAPE  H10R17891   4.948   1.047   7.591 -0.0455 -1.1672  0.6016
  160SAPE  H10S17892   5.012   1.196   7.676  1.3293 -0.4882 -1.1058
  160SAPE  C21117893   4.998   1.008   7.782 -0.0823 -0.4040  0.0937
  160SAPE  H11R17894   4.940   0.914   7.771 -1.5945  0.7814 -2.4937
  160SAPE  C21217895   5.038   1.040   7.908 -0.2526  0.3619  0.2292
  160SAPE  H12R17896   5.006   0.976   7.992  0.6130  0.3247  0.5337
  160SAPE  C21317897   5.117   1.158   7.954  0.5157 -0.1228  0.4355
  160SAPE  H13R17898   5.154   1.213   7.865 -1.3469 -0.7808 -0.7947
  160SAPE  H13S17899   5.199   1.110   8.012  1.4065  0.6655 -0.1594
  160SAPE  C21417900   5.043   1.252   8.043 -0.6212 -0.6552  0.0959
  160SAPE  H14R17901   5.012   1.344   7.992 -1.4996  0.3568  2.4113
  160SAPE  C21517902   5.016   1.243   8.171 -0.9442 -0.2768  0.1742
  160SAPE  H15R17903   4.966   1.327   8.222  0.4830  0.0972  0.9863
  160SAPE  C21617904   5.056   1.128   8.263  0.1951  0.1416  0.4247
  160SAPE  H16R17905   5.118   1.060   8.200 -0.5719 -1.3246  1.2288
  160SAPE  H16S17906   4.965   1.071   8.291 -1.3378  1.8993 -0.9105
  160SAPE  C21717907   5.130   1.169   8.395 -0.1154  0.0119 -0.2906
  160SAPE  H17R17908   5.204   1.243   8.359 -1.3240 -0.0280 -2.9920
  160SAPE  H17S17909   5.190   1.078   8.419  1.1806  0.4266 -1.9092
  160SAPE  C21817910   5.047   1.228   8.509  0.4647  0.0729 -0.0143
  160SAPE  H18R17911   4.967   1.157   8.539  0.6450 -0.4336 -0.7104
  160SAPE  H18S17912   4.985   1.311   8.468 -1.3378 -1.9601 -1.4825
  160SAPE  C21917913   5.130   1.268   8.624 -0.8623 -0.3431 -0.1541
  160SAPE  H19R17914   5.223   1.321   8.598 -1.6342  0.5855 -1.0746
  160SAPE  H19S17915   5.165   1.170   8.663 -0.2856 -0.6396 -1.3893
  160SAPE  C22017916   5.054   1.334   8.738 -0.9502  0.5385 -0.4127
  160SAPE  H20R17917   5.112   1.358   8.830  1.1485 -4.0532 -0.4216
  160SAPE  H20S17918   4.966   1.274   8.765 -0.6840 -1.1435 -3.0884
  160SAPE  H20T17919   5.006   1.429   8.705 -0.2739  0.8478 -0.5319
  160SAPE   C3317920   5.826   0.702   7.210  0.3657  0.3952 -0.1744
  160SAPE   H3X17921   5.935   0.714   7.191  1.0494 -1.2750  2.4196
  160SAPE   H3Y17922   5.761   0.645   7.140  1.3487 -0.7751 -0.1563
  160SAPE   C3417923   5.820   0.620   7.349 -0.4858  0.1730 -0.1981
  160SAPE   H4X17924   5.859   0.519   7.324 -1.5518 -0.2009 -0.3798
  160SAPE   H4Y17925   5.714   0.616   7.381  0.3073  1.8338  2.7863
  160SAPE   C3517926   5.905   0.672   7.459 -0.2447 -0.5479  0.0417
  160SAPE   H5X17927   5.887   0.782   7.465 -0.4348 -0.5572 -0.3844
  160SAPE   H5Y17928   6.009   0.672   7.420  0.5333  0.4100  1.9988
  160SAPE   C3617929   5.905   0.593   7.588  0.0653  0.0636 -0.2511
  160SAPE   H6X17930   5.996   0.606   7.650  0.5822  1.8836 -1.3338
  160SAPE   H6Y17931   5.888   0.485   7.569  0.6649 -0.0484 -0.1602
  160SAPE   C3717932   5.790   0.638   7.682 -0.0747 -0.0497  0.3108
  160SAPE   H7X17933   5.693   0.644   7.628 -0.5864  0.4106  1.2562
  160SAPE   H7Y17934   5.808   0.747   7.697  1.7268 -0.1267 -1.1910
  160SAPE   C3817935   5.770   0.564   7.814  0.4399 -0.1604  0.3924
  160SAPE   H8X17936   5.777   0.456   7.789 -0.2801  0.0425 -0.7068
  160SAPE   H8Y17937   5.667   0.596   7.839  0.7063  2.2495 -1.4517
  160SAPE   C3917938   5.863   0.612   7.930  0.1680 -0.3679  0.0855
  160SAPE   H9X17939   5.854   0.723   7.938  2.4725 -0.2094  0.8607
  160SAPE   H9Y17940   5.969   0.599   7.899  0.0148 -0.6494 -0.3136
  160SAPE  C31017941   5.830   0.546   8.066  0.0692  0.0084 -0.3144
  160SAPE  H10X17942   5.908   0.587   8.133 -1.3423  1.2630  0.5893
  160SAPE  H10Y17943   5.853   0.437   8.066 -0.1231 -0.0332  0.6448
  160SAPE  C31117944   5.697   0.573   8.121 -0.0110 -0.3634 -0.1404
  160SAPE  H11X17945   5.619   0.542   8.049 -0.7505 -2.1027  1.3676
  160SAPE  H11Y17946   5.680   0.678   8.152 -4.1687 -1.3087  1.1072
  160SAPE  C31217947   5.687   0.493   8.247  0.2093 -0.1693  0.6568
  160SAPE  H12X17948   5.769   0.509   8.320  0.6684  1.8864 -0.2642
  160SAPE  H12Y17949   5.685   0.384   8.228 -0.7093 -0.4984  2.4542
  160SAPE  C31317950   5.552   0.527   8.316 -0.8201  0.1236  0.0054
  160SAPE  H13X17951   5.473   0.459   8.276 -1.3172  1.8124 -1.9601
  160SAPE  H13Y17952   5.523   0.632   8.295 -0.5511  0.3499  0.7733
  160SAPE  C31417953   5.556   0.505   8.472  0.1091 -0.4366 -0.2840
  160SAPE  H14X17954   5.641   0.572   8.499 -1.1046  1.2190 -0.4572
  160SAPE  H14Y17955   5.589   0.401   8.490  0.0372 -1.2117 -4.2234
  160SAPE  C31517956   5.430   0.534   8.553  1.2780  0.3587  0.1585
  160SAPE  H15X17957   5.364   0.445   8.545  2.0647 -0.2028 -0.1714
  160SAPE  H15Y17958   5.397   0.631   8.511 -1.3340 -0.4716  0.1534
  160SAPE  C31617959   5.460   0.551   8.704  0.1028  0.4357  0.4905
  160SAPE  H16X17960   5.518   0.644   8.724 -1.9083  1.3757  2.2276
  160SAPE  H16Y17961   5.528   0.464   8.714 -0.0192 -0.1540 -3.0341
  160SAPE  C31717962   5.336   0.533   8.789  0.0676 -0.1275  0.3118
  160SAPE  H17X17963   5.292   0.432   8.777 -1.5775  0.7304 -0.9722
  160SAPE  H17Y17964   5.266   0.608   8.746  0.3148 -0.3842 -0.5366
  160SAPE  C31817965   5.350   0.564   8.941 -0.0377  0.5972  0.0089
  160SAPE  H18X17966   5.451   0.529   8.974 -0.8893 -3.9347 -1.7443
  160SAPE  H18Y17967   5.272   0.516   9.003  1.4792 -0.1291  1.4088
  160SAPE  H18Z17968   5.349   0.673   8.962  2.2787  0.5217  0.6534
  161SOPE     N17969   4.681   2.153  10.570 -0.3545 -1.1122 -0.0830
  161SOPE   HN117970   4.637   2.082  10.508 -0.2999  0.3685 -1.8830
  161SOPE   HN217971   4.780   2.120  10.578  0.7730  1.8937 -0.8717
  161SOPE   HN317972   4.621   2.139  10.653  1.6240  0.3742  1.6430
  161SOPE   C1217973   4.666   2.297  10.530  0.6942  0.0759  0.3710
  161SOPE  H12A17974   4.759   2.322  10.474  1.3415 -0.8099  1.0129
  161SOPE  H12B17975   4.665   2.358  10.623  0.5074 -0.9662  1.0566
  161SOPE   C1117976   4.536   2.320  10.446  0.3960  0.1387  0.3025
  161SOPE  H11A17977   4.553   2.268  10.350  2.9862 -2.3826  2.0635
  161SOPE  H11B17978   4.528   2.430  10.430 -0.4899  0.2266  1.2714
  161SOPE     P17979   4.358   2.301  10.645 -0.1883  0.0511  0.1505
  161SOPE   O1317980   4.450   2.245  10.750 -0.1928 -0.8756 -0.3466
  161SOPE   O1417981   4.217   2.259  10.648  0.3225  0.1891  0.1436
  161SOPE   O1217982   4.423   2.263  10.505  0.2993  0.1458 -0.7957
  161SOPE   O1117983   4.366   2.454  10.662 -0.9474  0.2570  0.2001
  161SOPE    C117984   4.250   2.536  10.619 -0.4571 -0.3426  0.2078
  161SOPE    HA17985   4.218   2.612  10.693  0.3541 -2.0488  2.3460
  161SOPE    HB17986   4.161   2.471  10.599  0.0730 -1.2346  0.7184
  161SOPE    C217987   4.284   2.617  10.485 -0.8774  0.6456  0.0715
  161SOPE    HS17988   4.203   2.691  10.468 -0.6432  0.8173 -0.2981
  161SOPE   O2117989   4.289   2.532  10.373  0.2972  0.2663  0.5162
  161SOPE   C2117990   4.178   2.475  10.325  0.3640 -0.1062 -0.4743
  161SOPE   O2217991   4.067   2.485  10.369  0.2798 -0.4355 -0.4469
  161SOPE   C2217992   4.220   2.398  10.207 -0.9586 -0.1187 -0.2313
  161SOPE   H2R17993   4.203   2.289  10.220  1.2583 -0.5266 -0.4798
  161SOPE   H2S17994   4.329   2.399  10.186 -1.3902 -0.8745 -2.7553
  161SOPE    C317995   4.422   2.693  10.507  0.1232 -0.2907 -0.3923
  161SOPE    HX17996   4.513   2.631  10.515 -0.6748 -1.3884  0.2884
  161SOPE    HY17997   4.422   2.733  10.610  0.2668 -1.6206  0.1304
  161SOPE   O3117998   4.429   2.798  10.406 -0.0511  0.6910  0.4204
  161SOPE   C3117999   4.520   2.775  10.307  0.0193 -0.3706 -0.1908
  161SOPE   O3218000   4.592   2.679  10.302  0.1876  0.7040  0.7303
  161SOPE   C3218001   4.517   2.902  10.217 -0.3044 -0.5738 -0.2179
  161SOPE   H2X18002   4.580   2.968  10.281 -0.5574  0.1135 -0.6749
  161SOPE   H2Y18003   4.413   2.933  10.192  0.4513  1.2532 -1.1214
  161SOPE   C2318004   4.144   2.444  10.083 -0.2003 -0.3110  0.3945
  161SOPE   H3R18005   4.040   2.472  10.112 -1.0221 -1.6881 -1.1196
  161SOPE   H3S18006   4.133   2.362  10.009  0.8016  0.3944 -0.5393
  161SOPE   C2418007   4.212   2.571  10.023 -0.2043  0.4375  0.1851
  161SOPE   H4R18008   4.210   2.650  10.101  1.1204 -1.3669  2.1021
  161SOPE   H4S18009   4.320   2.544  10.015 -0.2273  0.6500 -1.1051
  161SOPE   C2518010   4.156   2.641   9.902  1.0850  0.5418 -0.6536
  161SOPE   H5R18011   4.045   2.634   9.909  1.1289  2.6887  3.7451
  161SOPE   H5S18012   4.188   2.747   9.901 -0.7995  1.1469 -2.3445
  161SOPE   C2618013   4.200   2.583   9.763  0.1861 -0.0511  0.5150
  161SOPE   H6R18014   4.310   2.571   9.755  0.1640  0.6759 -1.0351
  161SOPE   H6S18015   4.163   2.480   9.745  0.7484  0.1675 -2.0161
  161SOPE   C2718016   4.161   2.674   9.644  0.2033  0.0224 -0.8011
  161SOPE   H7R18017   4.052   2.669   9.628 -0.2479 -0.2546  2.0443
  161SOPE   H7S18018   4.183   2.774   9.688  3.1603 -0.7533 -0.3830
  161SOPE   C2818019   4.238   2.627   9.524 -0.9354 -0.2640 -0.0712
  161SOPE   H8R18020   4.344   2.625   9.557 -0.4504  3.1700 -1.1658
  161SOPE   H8S18021   4.201   2.527   9.491 -2.7587  0.5373 -0.5602
  161SOPE   C2918022   4.223   2.725   9.411  0.1964  0.3965  0.2482
  161SOPE   H9118023   4.220   2.833   9.432  0.3232  0.8056 -1.6870
  161SOPE  C21018024   4.227   2.705   9.280 -0.0811 -0.5042 -0.6449
  161SOPE  H10118025   4.225   2.795   9.217 -0.1987 -0.9823 -1.3440
  161SOPE  C21118026   4.243   2.576   9.207  0.2200 -0.0834  0.0840
  161SOPE  H11R18027   4.172   2.569   9.122 -1.8375 -0.6293  1.7991
  161SOPE  H11S18028   4.225   2.489   9.274 -1.3986  1.3520  1.5398
  161SOPE  C21218029   4.394   2.569   9.155  0.0463 -0.7596  0.4121
  161SOPE  H12R18030   4.422   2.464   9.133 -0.2723 -0.7017 -0.3003
  161SOPE  H12S18031   4.461   2.608   9.234  0.2200 -2.8508  1.3178
  161SOPE  C21318032   4.430   2.659   9.030 -0.0918  0.4707  0.4023
  161SOPE  H13R18033   4.398   2.763   9.053  1.0891  0.4002  2.3954
  161SOPE  H13S18034   4.366   2.642   8.941  0.2062  2.4358 -0.2126
  161SOPE  C21418035   4.580   2.650   8.991  0.1330  0.1333  0.3489
  161SOPE  H14R18036   4.637   2.616   9.080  0.3301  0.8755  0.5118
  161SOPE  H14S18037   4.625   2.751   8.981  1.2057 -0.5098 -1.5340
  161SOPE  C21518038   4.603   2.569   8.865  0.3629 -0.2428 -0.5450
  161SOPE  H15R18039   4.552   2.611   8.776 -1.6705 -0.0756  0.6701
  161SOPE  H15S18040   4.571   2.464   8.886  0.2340 -0.3298 -1.1620
  161SOPE  C21618041   4.755   2.572   8.835  0.7614  0.4595  0.7697
  161SOPE  H16R18042   4.786   2.678   8.825  2.8336 -0.0111  1.9736
  161SOPE  H16S18043   4.784   2.512   8.746 -1.8115  1.2589 -0.6749
  161SOPE  C21718044   4.847   2.512   8.945  0.0852 -0.0661 -0.1039
  161SOPE  H17R18045   4.796   2.425   8.991 -0.5907  0.8540  0.9275
  161SOPE  H17S18046   4.849   2.587   9.027 -1.2102  0.8905 -0.9447
  161SOPE  C21818047   4.983   2.470   8.894  0.6450  0.1705  0.0971
  161SOPE  H18R18048   4.969   2.373   8.842 -2.9498  2.6636 -3.8383
  161SOPE  H18S18049   5.058   2.464   8.976  1.0563  1.7457 -0.1489
  161SOPE  H18T18050   5.019   2.548   8.824 -1.1661  1.6888  0.8211
  161SOPE   C3318051   4.598   2.889  10.090  0.2517 -0.2516  0.0121
  161SOPE   H3X18052   4.700   2.856  10.118 -0.5565 -0.3290  3.0505
  161SOPE   H3Y18053   4.611   2.991  10.049  0.2885 -0.1838  0.1932
  161SOPE   C3418054   4.528   2.807   9.982  0.7045 -0.5341  0.4133
  161SOPE   H4X18055   4.421   2.836   9.968  0.1845 -1.5725  2.1120
  161SOPE   H4Y18056   4.525   2.701  10.013  0.0518  0.5297  4.2791
  161SOPE   C3518057   4.594   2.830   9.845 -0.1174 -0.1325  0.8958
  161SOPE   H5X18058   4.705   2.827   9.851  0.1652 -2.1904 -3.0740
  161SOPE   H5Y18059   4.564   2.933   9.815 -0.3661 -0.0701  1.3552
  161SOPE   C3618060   4.545   2.728   9.737  0.0950 -0.5265  0.0036
  161SOPE   H6X18061   4.437   2.753   9.725  0.0046 -1.2873 -0.7969
  161SOPE   H6Y18062   4.548   2.621   9.766  0.6311 -0.8920 -1.3905
  161SOPE   C3718063   4.619   2.733   9.605 -0.3219 -0.0317 -0.3378
  161SOPE   H7X18064   4.571   2.663   9.533 -1.6196 -0.3670  0.8410
  161SOPE   H7Y18065   4.721   2.694   9.628  0.3645  1.1024 -1.4321
  161SOPE   C3818066   4.630   2.854   9.516 -0.4128 -0.7806 -0.3129
  161SOPE   H8X18067   4.698   2.929   9.562  0.3913 -1.5284 -0.2688
  161SOPE   H8Y18068   4.526   2.894   9.512  0.7499  2.3641 -0.4707
  161SOPE   C3918069   4.690   2.820   9.384  0.0947  0.4750  0.2329
  161SOPE   H9X18070   4.605   2.775   9.329 -0.8419  2.3460  0.1016
  161SOPE   H9Y18071   4.778   2.755   9.402 -1.3271 -1.0882  1.6974
  161SOPE  C31018072   4.726   2.945   9.308 -0.1126 -0.4125 -0.1149
  161SOPE  H10X18073   4.787   3.001   9.383 -0.6179  0.3135 -0.2387
  161SOPE  H10Y18074   4.638   3.004   9.275 -0.6765  0.2943  2.5058
  161SOPE  C31118075   4.813   2.923   9.189  0.1986 -0.1868 -0.3799
  161SOPE  H11X18076   4.828   3.014   9.127  0.8522  0.0810  0.1743
  161SOPE  H11Y18077   4.770   2.848   9.119  0.1028 -1.0530  0.5988
  161SOPE  C31218078   4.952   2.856   9.221 -0.4749 -1.0187 -0.0466
  161SOPE  H12X18079   4.923   2.757   9.260 -0.6390 -0.6863  0.6901
  161SOPE  H12Y18080   4.995   2.912   9.306  0.0343  1.4439 -1.8538
  161SOPE  C31318081   5.050   2.845   9.109  0.3476  0.5053 -0.1635
  161SOPE  H13X18082   5.087   2.948   9.091  4.4815 -0.9347 -0.3834
  161SOPE  H13Y18083   5.010   2.796   9.018  0.2900 -0.6539  0.4842
  161SOPE  C31418084   5.179   2.777   9.164 -0.2127 -0.3616 -0.5644
  161SOPE  H14X18085   5.150   2.675   9.198 -0.7298 -0.1147 -0.2545
  161SOPE  H14Y18086   5.226   2.834   9.248  0.7497 -0.7124 -0.8545
  161SOPE  C31518087   5.284   2.775   9.051  0.6330  0.3775 -0.0754
  161SOPE  H15X18088   5.335   2.874   9.052  1.1168  0.1294  0.9442
  161SOPE  H15Y18089   5.235   2.756   8.953  1.8670  0.2652 -0.6759
  161SOPE  C31618090   5.389   2.665   9.068 -0.4894  0.7297  0.3136
  161SOPE  H16X18091   5.344   2.577   9.119 -2.1537  0.6639 -1.2355
  161SOPE  H16Y18092   5.464   2.708   9.138 -0.6197  0.5776  0.5466
  161SOPE  C31718093   5.464   2.617   8.944 -0.4084  0.0949  0.1752
  161SOPE  H17X18094   5.534   2.540   8.983  2.0638  2.1033 -0.1887
  161SOPE  H17Y18095   5.517   2.704   8.901  1.0601 -1.0472 -0.3500
  161SOPE  C31818096   5.382   2.546   8.839  0.5217  0.2823 -0.2014
  161SOPE  H18X18097   5.442   2.509   8.754  0.6685 -0.7413  0.3334
  161SOPE  H18Y18098   5.297   2.607   8.802 -0.5031 -1.4700 -0.8049
  161SOPE  H18Z18099   5.337   2.455   8.886 -1.7143  1.7017  0.5291
  162SOPE     N18100   3.228   1.578  10.960  0.2816 -0.0479 -0.0440
  162SOPE   HN118101   3.161   1.638  10.907 -0.9191 -0.7808  0.6202
  162SOPE   HN218102   3.328   1.597  10.938  0.4587 -0.9413 -0.0311
  162SOPE   HN318103   3.193   1.481  10.946 -1.9212  0.3198  2.3863
  162SOPE   C1218104   3.212   1.610  11.103  0.2322  0.3489 -0.2112
  162SOPE  H12A18105   3.270   1.538  11.165  1.1004  1.0828 -0.1484
  162SOPE  H12B18106   3.104   1.592  11.123  0.5647 -0.5803  0.8287
  162SOPE   C1118107   3.267   1.752  11.130  0.1373  0.1566  0.4193
  162SOPE  H11A18108   3.265   1.766  11.240  1.1271 -1.4776  0.6652
  162SOPE  H11B18109   3.199   1.821  11.077 -0.7676 -0.4250  0.8172
  162SOPE     P18110   3.461   1.910  11.092  0.0102  0.2278  0.3623
  162SOPE   O1318111   3.600   1.896  11.141  0.0274 -0.0554 -0.0716
  162SOPE   O1418112   3.369   2.001  11.162  0.1023 -0.1823  0.1213
  162SOPE   O1218113   3.396   1.768  11.086 -0.0779 -0.1494  0.0199
  162SOPE   O1118114   3.470   1.952  10.945  0.5607 -0.6203 -0.2579
  162SOPE    C118115   3.358   1.993  10.869 -0.2281  0.1892 -0.5742
  162SOPE    HA18116   3.312   2.083  10.915  1.9084  0.7019  0.6246
  162SOPE    HB18117   3.288   1.907  10.869 -0.7953  0.6409 -1.2994
  162SOPE    C218118   3.401   2.020  10.726  0.4010 -0.0827 -0.1107
  162SOPE    HS18119   3.440   1.924  10.685 -1.2083 -1.4070  1.4094
  162SOPE   O2118120   3.494   2.124  10.730 -0.1372  0.2100  0.0653
  162SOPE   C2118121   3.575   2.136  10.628  0.4346  0.0955  0.1263
  162SOPE   O2218122   3.599   2.058  10.542  0.1159  0.1103 -1.0217
  162SOPE   C2218123   3.630   2.286  10.630  0.5292  0.1089  0.2090
  162SOPE   H2R18124   3.740   2.276  10.618  0.1239 -1.1670 -2.9831
  162SOPE   H2S18125   3.601   2.333  10.726 -0.3519  2.7515 -1.3129
  162SOPE    C318126   3.281   2.056  10.635  0.2163 -0.5533  0.0896
  162SOPE    HX18127   3.229   2.146  10.675 -0.1004 -0.2531 -0.9803
  162SOPE    HY18128   3.202   1.977  10.636 -0.9902  0.5965 -1.6846
  162SOPE   O3118129   3.315   2.095  10.497 -0.1588  0.1309  0.0892
  162SOPE   C3118130   3.341   1.987  10.425 -0.1144 -0.1028  0.5811
  162SOPE   O3218131   3.337   1.871  10.461  0.5137 -1.2121  0.7574
  162SOPE   C3218132   3.384   2.025  10.281  0.5535  0.0029 -0.8562
  162SOPE   H2X18133   3.477   1.965  10.268 -0.4394 -1.3367 -1.8954
  162SOPE   H2Y18134   3.420   2.130  10.282 -1.1621  0.6219  2.0566
  162SOPE   C2318135   3.578   2.376  10.507  0.0200  0.1641 -0.4156
  162SOPE   H3R18136   3.617   2.480  10.523  0.1873  0.0216  0.1349
  162SOPE   H3S18137   3.469   2.374  10.489 -0.1611  0.3778  0.6205
  162SOPE   C2418138   3.639   2.330  10.372  0.2532 -0.8261 -0.4100
  162SOPE   H4R18139   3.750   2.337  10.367  0.2827 -0.2451  1.0341
  162SOPE   H4S18140   3.611   2.223  10.364 -3.1304 -0.0372  0.2753
  162SOPE   C2518141   3.560   2.395  10.258 -0.2064 -0.1860 -0.2910
  162SOPE   H5R18142   3.575   2.347  10.159 -2.2828 -0.2135 -0.6075
  162SOPE   H5S18143   3.451   2.392  10.275  0.1149 -3.1516  1.5803
  162SOPE   C2618144   3.578   2.547  10.232  0.2032  0.0272  0.2321
  162SOPE   H6R18145   3.491   2.566  10.166 -1.0311  1.4335  2.2287
  162SOPE   H6S18146   3.564   2.604  10.326 -4.0936  1.0469 -0.9273
  162SOPE   C2718147   3.716   2.569  10.169 -0.1881 -0.0641  1.0296
  162SOPE   H7R18148   3.751   2.667  10.208  0.4939  0.2352 -0.3018
  162SOPE   H7S18149   3.783   2.486  10.200  1.1635  1.6418  2.8439
  162SOPE   C2818150   3.707   2.580  10.021 -0.0115 -0.3763  0.0307
  162SOPE   H8R18151   3.812   2.603   9.992  0.0413 -0.1657  0.3881
  162SOPE   H8S18152   3.691   2.480   9.975  1.0346 -0.2547 -0.6285
  162SOPE   C2918153   3.616   2.693   9.972  0.3048  0.4114 -0.3250
  162SOPE   H9118154   3.590   2.773  10.044  1.5130  1.6445 -1.2367
  162SOPE  C21018155   3.576   2.718   9.848  0.4065 -0.1415 -0.4931
  162SOPE  H10118156   3.510   2.805   9.836 -2.1633 -2.0287 -0.3809
  162SOPE  C21118157   3.600   2.633   9.720  1.0567 -0.1133 -0.0896
  162SOPE  H11R18158   3.504   2.622   9.665  0.4716 -1.0485  1.1154
  162SOPE  H11S18159   3.647   2.535   9.742 -0.0273 -0.8207 -0.8772
  162SOPE  C21218160   3.692   2.694   9.610  0.3993  0.2438  0.0237
  162SOPE  H12R18161   3.800   2.672   9.623  0.7118  1.1893 -0.9271
  162SOPE  H12S18162   3.685   2.805   9.601  0.6347  0.2844  0.3395
  162SOPE  C21318163   3.647   2.636   9.468 -0.2369 -0.9367  0.2050
  162SOPE  H13R18164   3.542   2.668   9.449 -0.2525 -0.4344  1.1224
  162SOPE  H13S18165   3.656   2.526   9.484 -1.1601 -0.5721  3.5550
  162SOPE  C21418166   3.743   2.677   9.357 -0.2324  0.6209 -0.2274
  162SOPE  H14R18167   3.849   2.662   9.385 -0.6677 -1.6078  0.3310
  162SOPE  H14S18168   3.731   2.785   9.330  1.5318  1.2561  1.4256
  162SOPE  C21518169   3.726   2.603   9.225  0.3278  0.1567 -0.7449
  162SOPE  H15R18170   3.618   2.594   9.204  0.6000 -3.5150 -1.0205
  162SOPE  H15S18171   3.773   2.502   9.218 -2.5536 -1.1699 -1.5718
  162SOPE  C21618172   3.790   2.691   9.113 -0.0655  0.1365  0.7697
  162SOPE  H16R18173   3.898   2.702   9.136  0.1545 -0.0614 -0.1473
  162SOPE  H16S18174   3.744   2.791   9.130 -3.0900 -0.7769 -1.7466
  162SOPE  C21718175   3.787   2.633   8.973  1.1011 -0.4500 -0.2966
  162SOPE  H17R18176   3.832   2.712   8.908  3.2216  0.1586  1.8453
  162SOPE  H17S18177   3.680   2.626   8.943  0.5567  2.2241  0.8471
  162SOPE  C21818178   3.855   2.492   8.965  0.5465 -0.0361  0.1277
  162SOPE  H18R18179   3.800   2.428   9.038  0.6369 -3.1010 -2.4229
  162SOPE  H18S18180   3.960   2.506   8.997  1.1543 -1.3292 -1.2802
  162SOPE  H18T18181   3.860   2.450   8.863  0.9708  0.9012 -0.2425
  162SOPE   C3318182   3.291   1.977  10.172 -0.0311  0.4806 -0.3861
  162SOPE   H3X18183   3.198   2.038  10.171  0.8022  1.7623 -0.0458
  162SOPE   H3Y18184   3.252   1.877  10.200  1.1058 -0.5862 -2.4764
  162SOPE   C3418185   3.367   1.966  10.043  0.1554 -0.4016  0.1546
  162SOPE   H4X18186   3.446   1.890  10.059  0.8501  0.6278  1.7779
  162SOPE   H4Y18187   3.409   2.064  10.011 -0.3214 -1.1477 -2.9437
  162SOPE   C3518188   3.288   1.917   9.920 -0.2492 -0.4051  0.3342
  162SOPE   H5X18189   3.213   1.993   9.888  2.1888  2.5435  1.3456
  162SOPE   H5Y18190   3.234   1.822   9.940 -1.3364  0.1913  0.2967
  162SOPE   C3618191   3.375   1.899   9.798 -0.1408 -0.4117 -0.4045
  162SOPE   H6X18192   3.421   1.799   9.811  1.4957  0.4465  0.4939
  162SOPE   H6Y18193   3.453   1.978   9.797 -2.5854  2.1842  1.3229
  162SOPE   C3718194   3.288   1.890   9.667  0.8094  0.1791 -0.8386
  162SOPE   H7X18195   3.223   1.980   9.668  2.2855  1.2589 -0.7719
  162SOPE   H7Y18196   3.221   1.802   9.677 -1.0930  1.9795  3.7742
  162SOPE   C3818197   3.373   1.853   9.547 -0.0387 -0.2296 -0.4495
  162SOPE   H8X18198   3.425   1.757   9.569  0.1718  0.1474  0.6933
  162SOPE   H8Y18199   3.456   1.926   9.536 -0.2034 -0.1570 -1.2365
  162SOPE   C3918200   3.294   1.853   9.413 -0.7410 -0.5263  0.1735
  162SOPE   H9X18201   3.253   1.949   9.376  1.4999 -0.1321 -1.4042
  162SOPE   H9Y18202   3.210   1.782   9.430 -0.2225 -1.0441  0.6278
  162SOPE  C31018203   3.371   1.803   9.286  0.0326 -0.3448 -0.2893
  162SOPE  H10X18204   3.401   1.697   9.299 -0.1039 -0.4907 -1.0976
  162SOPE  H10Y18205   3.465   1.861   9.269  1.6675 -2.2788  1.9562
  162SOPE  C31118206   3.286   1.800   9.161  0.6183 -0.2911  0.4347
  162SOPE  H11X18207   3.277   1.906   9.130 -0.6625  0.1101  2.1136
  162SOPE  H11Y18208   3.182   1.764   9.174  0.8363 -1.5906 -1.2380
  162SOPE  C31218209   3.349   1.719   9.047  0.3966  0.3549 -0.2497
  162SOPE  H12X18210   3.377   1.617   9.081 -1.1860 -1.2275 -3.5017
  162SOPE  H12Y18211   3.448   1.757   9.017  0.1546  1.7835  0.7081
  162SOPE  C31318212   3.249   1.695   8.932 -0.0296 -0.5437 -0.4260
  162SOPE  H13X18213   3.165   1.629   8.963 -0.2274  0.1261  0.5116
  162SOPE  H13Y18214   3.309   1.651   8.850  0.3165  0.4933 -0.7346
  162SOPE  C31418215   3.182   1.826   8.875 -0.4239 -0.0051  0.1686
  162SOPE  H14X18216   3.143   1.894   8.954 -0.4369  1.8605 -1.3963
  162SOPE  H14Y18217   3.099   1.796   8.807 -0.4913  2.2029 -0.7730
  162SOPE  C31518218   3.283   1.908   8.794  0.2749 -0.1361 -0.3225
  162SOPE  H15X18219   3.324   1.836   8.719  0.6183  1.9152 -2.1315
  162SOPE  H15Y18220   3.372   1.937   8.855 -0.7037  2.0259  0.1093
  162SOPE  C31618221   3.253   2.044   8.715 -0.3622 -0.4897 -0.3694
  162SOPE  H16X18222   3.166   2.009   8.655 -2.7589  0.3381  2.4827
  162SOPE  H16Y18223   3.347   2.064   8.661 -0.3519  3.0851  0.8583
  162SOPE  C31718224   3.214   2.166   8.796 -0.1545 -0.4243  0.5443
  162SOPE  H17X18225   3.295   2.177   8.872  0.6380  1.6628 -0.5737
  162SOPE  H17Y18226   3.118   2.142   8.848 -1.1452 -2.0971 -1.9413
  162SOPE  C31818227   3.197   2.289   8.705 -0.6733 -0.3088  0.7787
  162SOPE  H18X18228   3.289   2.351   8.694 -1.3338  0.1777 -2.3754
  162SOPE  H18Y18229   3.126   2.368   8.738 -0.8181 -0.1577  0.1067
  162SOPE  H18Z18230   3.166   2.255   8.604 -0.8021 -0.2257  0.7896
  163SOPE     N18231   3.134   6.227  10.689 -0.3173  0.1093 -0.7486
  163SOPE   HN118232   3.043   6.182  10.666  0.3932 -2.0724  0.5608
  163SOPE   HN218233   3.122   6.258  10.787 -1.8209 -2.1043 -0.1758
  163SOPE   HN318234   3.126   6.304  10.620  0.0525  0.2000 -0.6891
  163SOPE   C1218235   3.237   6.124  10.658 -0.4415  0.0820  1.3627
  163SOPE  H12A18236   3.255   6.124  10.548 -1.1304 -0.9604  1.2394
  163SOPE  H12B18237   3.201   6.021  10.683  1.2083 -0.6026  0.9902
  163SOPE   C1118238   3.374   6.166  10.721  1.1571 -0.3568  1.0024
  163SOPE  H11A18239   3.443   6.089  10.683  0.7553  0.2405 -1.0306
  163SOPE  H11B18240   3.370   6.163  10.832  0.5072  0.9006  1.0289
  163SOPE     P18241   3.540   6.364  10.711  0.1089 -0.0264 -0.2649
  163SOPE   O1318242   3.584   6.287  10.835  0.1479 -0.8900  0.2186
  163SOPE   O1418243   3.521   6.510  10.716  0.2591 -0.3201 -0.1440
  163SOPE   O1218244   3.403   6.295  10.670  0.0156 -0.1267 -0.1133
  163SOPE   O1118245   3.641   6.332  10.591  0.6836  0.8717 -0.0158
  163SOPE    C118246   3.630   6.223  10.504  0.1141  0.5475 -0.5454
  163SOPE    HA18247   3.527   6.205  10.466 -0.5887  2.1388  0.5476
  163SOPE    HB18248   3.665   6.139  10.568  1.8412 -0.5393 -2.8285
  163SOPE    C218249   3.730   6.226  10.385  0.8001  0.5624 -0.0774
  163SOPE    HS18250   3.827   6.256  10.432  1.5397  0.2318 -1.3462
  163SOPE   O2118251   3.675   6.328  10.298 -0.5832 -0.0036  0.6322
  163SOPE   C2118252   3.756   6.410  10.246  0.3285 -0.2131 -0.0922
  163SOPE   O2218253   3.874   6.427  10.278 -0.1963  1.0034  0.6847
  163SOPE   C2218254   3.680   6.485  10.139 -0.1277 -0.7815 -0.5222
  163SOPE   H2R18255   3.591   6.538  10.180  1.1780  0.9937  0.1227
  163SOPE   H2S18256   3.645   6.409  10.067 -0.7444  0.9407 -2.0934
  163SOPE    C318257   3.738   6.097  10.308 -0.4105  0.6539 -0.2497
  163SOPE    HX18258   3.641   6.082  10.257 -1.2990 -0.2482  1.6842
  163SOPE    HY18259   3.737   6.007  10.373  0.2796 -0.7782 -2.1823
  163SOPE   O3118260   3.849   6.091  10.218  0.1744 -0.6578 -0.5734
  163SOPE   C3118261   3.833   6.098  10.086 -0.1902 -0.5101  0.6648
  163SOPE   O3218262   3.731   6.083  10.024  0.1747 -0.9793 -0.5413
  163SOPE   C3218263   3.970   6.125  10.029  0.8469 -0.0106 -0.0792
  163SOPE   H2X18264   4.028   6.032  10.046 -0.2618 -0.5987  0.5622
  163SOPE   H2Y18265   4.013   6.207  10.091  2.0736 -1.6153  1.2303
  163SOPE   C2318266   3.763   6.597  10.071 -0.1464 -0.3841  0.5715
  163SOPE   H3R18267   3.854   6.555  10.022 -0.3650  1.0032 -1.1088
  163SOPE   H3S18268   3.796   6.671  10.147  0.4718 -1.0257  0.9344
  163SOPE   C2418269   3.683   6.684   9.966  0.4230 -1.5356 -0.3366
  163SOPE   H4R18270   3.649   6.623   9.879 -2.6389 -1.4663  0.7381
  163SOPE   H4S18271   3.593   6.726  10.016  1.6893  1.0514 -0.1357
  163SOPE   C2518272   3.755   6.802   9.910 -0.6043  0.4301 -0.6329
  163SOPE   H5R18273   3.818   6.858   9.982  1.0086  0.1584 -1.8005
  163SOPE   H5S18274   3.844   6.771   9.850  0.0541 -1.2551  1.1902
  163SOPE   C2618275   3.667   6.903   9.824 -0.1572  0.0995  0.4494
  163SOPE   H6R18276   3.574   6.923   9.881 -1.3988 -4.2301  0.1474
  163SOPE   H6S18277   3.725   6.995   9.800  1.4039 -0.7974  0.6867
  163SOPE   C2718278   3.614   6.826   9.700  1.2495 -0.2378 -0.2830
  163SOPE   H7R18279   3.708   6.777   9.667 -0.1840 -2.3548 -1.2880
  163SOPE   H7S18280   3.537   6.752   9.730 -0.6622  1.5525 -0.6607
  163SOPE   C2818281   3.560   6.933   9.596 -0.1315 -0.2110 -0.5786
  163SOPE   H8R18282   3.523   7.016   9.660  1.6072 -0.7081  1.1081
  163SOPE   H8S18283   3.654   6.968   9.547  0.4617 -0.1471  0.5957
  163SOPE   C2918284   3.455   6.888   9.495  0.1420  0.3091  0.1966
  163SOPE   H9118285   3.373   6.823   9.531  0.4044  0.1934  0.5787
  163SOPE  C21018286   3.451   6.929   9.370 -0.0215  0.1546 -0.2468
  163SOPE  H10118287   3.367   6.885   9.313  0.3944  0.9081 -1.4565
  163SOPE  C21118288   3.550   7.022   9.302  0.1512 -0.5669 -0.9709
  163SOPE  H11R18289   3.634   6.955   9.275 -0.9627 -2.5389  0.2595
  163SOPE  H11S18290   3.588   7.095   9.377 -0.2757 -1.5750  0.2669
  163SOPE  C21218291   3.479   7.099   9.189  0.9237  0.9738 -0.7755
  163SOPE  H12R18292   3.391   7.155   9.231  1.9174  1.1847  1.0953
  163SOPE  H12S18293   3.452   7.021   9.115  1.0017  0.3604 -0.1643
  163SOPE  C21318294   3.585   7.188   9.123  0.3730  0.1433  1.0592
  163SOPE  H13R18295   3.678   7.129   9.107 -0.6323 -1.0288 -0.6991
  163SOPE  H13S18296   3.618   7.269   9.191 -2.2304 -0.0057  2.5605
  163SOPE  C21418297   3.534   7.264   9.000  0.2393 -0.4647  0.0170
  163SOPE  H14R18298   3.620   7.318   8.954  0.6452 -0.6919  0.4951
  163SOPE  H14S18299   3.456   7.337   9.028  1.4381  2.3293 -3.5808
  163SOPE  C21518300   3.486   7.183   8.877  0.0889 -0.3617  0.0447
  163SOPE  H15R18301   3.442   7.250   8.800  0.9269 -0.0297 -0.1448
  163SOPE  H15S18302   3.407   7.112   8.910 -0.4470 -0.0380 -0.5377
  163SOPE  C21618303   3.598   7.105   8.811 -0.9609  0.3074  0.2016
  163SOPE  H16R18304   3.620   7.019   8.877  0.6933  1.7758  1.6240
  163SOPE  H16S18305   3.688   7.170   8.799 -0.6672 -0.1971 -0.3523
  163SOPE  C21718306   3.558   7.054   8.666 -0.0844 -0.4014  0.5304
  163SOPE  H17R18307   3.454   7.018   8.661  0.4353 -2.1133  1.5838
  163SOPE  H17S18308   3.625   6.972   8.632 -1.4408 -1.1114 -0.4712
  163SOPE  C21818309   3.564   7.164   8.563 -0.3651 -0.1558  0.2194
  163SOPE  H18R18310   3.491   7.246   8.584  0.4329  0.4267  0.7395
  163SOPE  H18S18311   3.549   7.109   8.467  0.6362 -0.2530  0.1136
  163SOPE  H18T18312   3.666   7.206   8.554 -0.1710 -0.9087 -1.2354
  163SOPE   C3318313   3.948   6.153   9.880 -0.7675  0.2283 -0.1437
  163SOPE   H3X18314   3.882   6.076   9.834 -1.0787  0.9075 -0.8571
  163SOPE   H3Y18315   4.045   6.152   9.825 -0.0174 -2.1002  1.1329
  163SOPE   C3418316   3.882   6.288   9.859  0.4273 -0.2225 -0.7574
  163SOPE   H4X18317   3.928   6.370   9.917  0.4186  1.2516 -2.7681
  163SOPE   H4Y18318   3.773   6.275   9.873  0.8095 -2.7025  0.0916
  163SOPE   C3518319   3.883   6.332   9.709  0.5629 -0.4782 -0.0399
  163SOPE   H5X18320   3.837   6.250   9.650  1.7489 -1.5022  0.4281
  163SOPE   H5Y18321   3.987   6.351   9.675  0.6505 -2.8295 -1.1679
  163SOPE   C3618322   3.803   6.457   9.668  0.1400  0.6162 -0.2267
  163SOPE   H6X18323   3.851   6.543   9.720 -0.5591  0.4087  0.7937
  163SOPE   H6Y18324   3.700   6.448   9.708 -0.6066  0.5777 -2.1052
  163SOPE   C3718325   3.801   6.478   9.517 -0.0673 -0.3203  0.1010
  163SOPE   H7X18326   3.729   6.400   9.486 -1.4569  0.8698  0.2656
  163SOPE   H7Y18327   3.902   6.458   9.476 -0.5352 -2.5568 -0.0147
  163SOPE   C3818328   3.741   6.611   9.467 -0.4354  0.3770 -0.5657
  163SOPE   H8X18329   3.809   6.689   9.508  1.3727 -0.4037 -2.0191
  163SOPE   H8Y18330   3.640   6.633   9.508 -0.9876 -0.8317 -1.2332
  163SOPE   C3918331   3.740   6.635   9.317 -0.0174 -0.3281 -0.4487
  163SOPE   H9X18332   3.846   6.634   9.283 -0.2314 -1.4913 -1.1088
  163SOPE   H9Y18333   3.698   6.736   9.295  1.2019  0.5044  0.9529
  163SOPE  C31018334   3.671   6.534   9.237  0.4910  0.7014 -0.0059
  163SOPE  H10X18335   3.567   6.571   9.244 -0.7352 -2.2708 -1.4200
  163SOPE  H10Y18336   3.694   6.432   9.274  1.2743  1.4639  1.6650
  163SOPE  C31118337   3.705   6.534   9.090  0.0793 -0.0436  0.3680
  163SOPE  H11X18338   3.641   6.458   9.040 -0.6058 -0.5858  2.0034
  163SOPE  H11Y18339   3.811   6.506   9.072 -0.3439 -2.2738  1.1104
  163SOPE  C31218340   3.664   6.667   9.028  0.1694 -0.4346  0.3561
  163SOPE  H12X18341   3.730   6.746   9.069  0.7374 -1.5255  1.5837
  163SOPE  H12Y18342   3.556   6.686   9.051 -0.5952 -2.3436 -1.4973
  163SOPE  C31318343   3.674   6.667   8.876  0.7690  0.0503  0.1240
  163SOPE  H13X18344   3.768   6.622   8.837  0.5062  0.7111 -1.3061
  163SOPE  H13Y18345   3.656   6.771   8.842 -2.3207 -0.9265 -1.4881
  163SOPE  C31418346   3.550   6.598   8.796 -0.5895  1.0950  0.0090
  163SOPE  H14X18347   3.461   6.642   8.847  0.4763  2.0454  1.0799
  163SOPE  H14Y18348   3.544   6.492   8.826 -2.7746  0.8698 -1.1581
  163SOPE  C31518349   3.548   6.619   8.647  0.1859  0.2037  0.1572
  163SOPE  H15X18350   3.623   6.553   8.599 -1.0759 -1.8040  0.8317
  163SOPE  H15Y18351   3.552   6.729   8.636 -0.2695  0.0513 -1.7471
  163SOPE  C31618352   3.411   6.579   8.590 -0.3620  0.0499  0.0045
  163SOPE  H16X18353   3.334   6.639   8.643 -1.8944 -1.4268 -0.4775
  163SOPE  H16Y18354   3.390   6.473   8.616 -0.0290 -0.3426 -1.2838
  163SOPE  C31718355   3.391   6.587   8.437  0.1568 -0.5081  0.6732
  163SOPE  H17X18356   3.475   6.530   8.393 -1.4827 -2.6678  0.2130
  163SOPE  H17Y18357   3.418   6.688   8.400  1.0285 -1.1102 -0.3528
  163SOPE  C31818358   3.266   6.549   8.369  0.1368  0.6611  0.1630
  163SOPE  H18X18359   3.259   6.438   8.373  1.1481  0.6181  0.8462
  163SOPE  H18Y18360   3.262   6.580   8.262  0.7583  0.5909  0.1176
  163SOPE  H18Z18361   3.168   6.586   8.406  0.1618  0.8317  0.0601
  164SOPE     N18362   6.341   4.858  10.697  0.6588  0.2850  0.1707
  164SOPE   HN118363   6.346   4.901  10.791  0.1981  0.6828  0.0169
  164SOPE   HN218364   6.358   4.938  10.633  0.6923  0.3454  0.2563
  164SOPE   HN318365   6.251   4.822  10.660  0.4990  0.7300  0.1226
  164SOPE   C1218366   6.430   4.741  10.686  0.4639 -0.2408 -0.2392
  164SOPE  H12A18367   6.435   4.708  10.580  1.5313  2.2617 -1.0039
  164SOPE  H12B18368   6.397   4.659  10.753  0.6020  0.2715  0.4623
  164SOPE   C1118369   6.570   4.781  10.723  0.4825 -0.1013  0.0893
  164SOPE  H11A18370   6.630   4.690  10.701 -0.0538 -0.1867 -1.1035
  164SOPE  H11B18371   6.577   4.804  10.831  0.1678  1.8761 -0.2787
  164SOPE     P18372   6.754   4.945  10.644 -0.1069 -0.0293 -0.0103
  164SOPE   O1318373   6.834   4.849  10.718 -0.2787 -0.3392  0.0763
  164SOPE   O1418374   6.758   5.086  10.690  0.3667 -0.5066  0.1042
  164SOPE   O1218375   6.606   4.891  10.649 -0.2780 -0.2689  0.0643
  164SOPE   O1118376   6.795   4.928  10.488  0.0470 -0.0887 -0.2171
  164SOPE    C118377   6.776   4.799  10.425  0.6379  0.0752 -0.2997
  164SOPE    HA18378   6.671   4.796  10.388  0.8503  0.7107 -0.9726
  164SOPE    HB18379   6.807   4.720  10.497 -2.1939  1.0401  2.0824
  164SOPE    C218380   6.863   4.772  10.297  0.3277 -1.3832 -0.2197
  164SOPE    HS18381   6.831   4.676  10.251 -2.8613 -1.1073  1.2672
  164SOPE   O2118382   7.001   4.778  10.335 -0.4872  0.5514  0.2832
  164SOPE   C2118383   7.050   4.660  10.371  0.1405  0.5353 -0.1934
  164SOPE   O2218384   6.985   4.557  10.379  0.3265 -0.4050 -0.2194
  164SOPE   C2218385   7.192   4.669  10.406 -0.4624 -0.1632 -0.2107
  164SOPE   H2R18386   7.205   4.617  10.503 -1.1616  1.0604  0.5530
  164SOPE   H2S18387   7.215   4.777  10.419  0.5644 -0.7668  3.4405
  164SOPE    C318388   6.826   4.888  10.196  0.1601  0.1008  0.5321
  164SOPE    HX18389   6.875   4.987  10.206  0.6030  0.3118 -3.0555
  164SOPE    HY18390   6.717   4.905  10.207  0.1490 -0.0581  0.6728
  164SOPE   O3118391   6.867   4.831  10.066  0.2482 -0.3299  0.3365
  164SOPE   C3118392   6.877   4.915   9.963 -0.3570  0.0280  0.4047
  164SOPE   O3218393   6.891   5.036   9.976  0.6249 -0.4576  0.3893
  164SOPE   C3218394   6.866   4.840   9.832  0.1081  0.1927  0.1777
  164SOPE   H2X18395   6.783   4.767   9.843 -0.0052  0.3422  0.3300
  164SOPE   H2Y18396   6.964   4.791   9.816 -0.8322 -0.9367 -2.3096
  164SOPE   C2318397   7.276   4.608  10.292  0.4587 -0.3040 -0.4711
  164SOPE   H3R18398   7.243   4.512  10.246 -1.0149  0.1051 -0.3071
  164SOPE   H3S18399   7.381   4.596  10.323  0.5730 -0.1498 -0.7906
  164SOPE   C2418400   7.285   4.708  10.179 -0.4769  0.3683 -0.4670
  164SOPE   H4R18401   7.187   4.751  10.149 -1.9782 -1.0516  2.1931
  164SOPE   H4S18402   7.350   4.794  10.207  4.3212 -2.7271 -1.5123
  164SOPE   C2518403   7.339   4.642  10.053 -0.6771 -0.4762  0.3580
  164SOPE   H5R18404   7.434   4.587  10.072 -0.1043  0.5330  0.4565
  164SOPE   H5S18405   7.276   4.564  10.006 -0.5737 -1.6224  2.0685
  164SOPE   C2618406   7.368   4.746   9.937 -0.0924  0.2713 -0.6137
  164SOPE   H6R18407   7.444   4.821   9.967 -0.6775 -0.0486  1.7396
  164SOPE   H6S18408   7.409   4.671   9.866  0.8025 -0.2044  0.3959
  164SOPE   C2718409   7.244   4.804   9.865 -0.0161  0.2949  0.4213
  164SOPE   H7R18410   7.164   4.727   9.869 -1.7187  1.8970 -1.5129
  164SOPE   H7S18411   7.200   4.878   9.935 -1.9606 -0.7072  0.2756
  164SOPE   C2818412   7.266   4.850   9.719 -0.9944 -0.0884 -0.5186
  164SOPE   H8R18413   7.314   4.763   9.670  2.9707  0.6641  1.7861
  164SOPE   H8S18414   7.179   4.893   9.665 -1.8672 -0.6745  0.4108
  164SOPE   C2918415   7.371   4.962   9.728  0.1784  0.5802  0.1739
  164SOPE   H9118416   7.350   5.023   9.817 -1.2543 -1.1325  1.0457
  164SOPE  C21018417   7.476   4.996   9.649  0.3039 -0.3029 -0.2277
  164SOPE  H10118418   7.545   5.073   9.685 -1.7082  1.1138  0.7001
  164SOPE  C21118419   7.509   4.918   9.524  0.2284  0.0892 -0.3863
  164SOPE  H11R18420   7.453   4.822   9.516 -2.2172  1.3316  1.3230
  164SOPE  H11S18421   7.619   4.899   9.527  0.2956  0.6966  2.0500
  164SOPE  C21218422   7.478   5.012   9.414 -0.2982 -1.3139  0.0542
  164SOPE  H12R18423   7.544   5.100   9.423  0.5981 -2.0939  1.2808
  164SOPE  H12S18424   7.369   5.034   9.417 -0.1587 -0.8664  2.5865
  164SOPE  C21318425   7.512   4.953   9.275  0.5370  0.2229  0.1560
  164SOPE  H13R18426   7.476   4.849   9.263 -1.0717  0.8029 -0.1850
  164SOPE  H13S18427   7.623   4.947   9.283  0.5527 -0.1516 -0.3452
  164SOPE  C21418428   7.461   5.043   9.157 -0.0556 -0.8684  0.0499
  164SOPE  H14R18429   7.464   5.152   9.177  1.5840 -1.2106  1.8194
  164SOPE  H14S18430   7.355   5.012   9.139  0.8065 -2.9384 -1.7595
  164SOPE  C21518431   7.505   4.993   9.022  0.5042 -0.0916 -0.2891
  164SOPE  H15R18432   7.434   5.021   8.941  0.3944 -0.0417 -0.1753
  164SOPE  H15S18433   7.509   4.883   9.040  1.4856  0.2550  1.7514
  164SOPE  C21618434   7.648   5.045   8.981 -0.5606  0.6703 -0.4373
  164SOPE  H16R18435   7.718   5.001   9.055  0.7022  0.6832 -1.6132
  164SOPE  H16S18436   7.650   5.147   9.024 -0.7216  0.6942 -0.4863
  164SOPE  C21718437   7.689   5.022   8.839 -0.1146 -0.1543 -0.3254
  164SOPE  H17R18438   7.777   5.086   8.816  0.5124 -0.9806 -0.2432
  164SOPE  H17S18439   7.607   5.047   8.769 -0.4626 -0.9799 -0.2229
  164SOPE  C21818440   7.737   4.882   8.797 -0.1143 -0.0568 -0.0834
  164SOPE  H18R18441   7.822   4.844   8.858  0.0249  0.2643 -0.0773
  164SOPE  H18S18442   7.787   4.894   8.699 -1.2193 -1.3513 -0.8211
  164SOPE  H18T18443   7.656   4.805   8.795  0.2342 -0.4394  0.3854
  164SOPE   C3318444   6.828   4.932   9.706  0.0782 -0.3082 -0.5159
  164SOPE   H3X18445   6.907   5.010   9.699 -0.2567  0.3236  2.1831
  164SOPE   H3Y18446   6.725   4.968   9.729  0.3325 -0.3616  0.7600
  164SOPE   C3418447   6.822   4.850   9.578 -0.3097  0.6506  0.0951
  164SOPE   H4X18448   6.726   4.796   9.591  0.1229 -0.1125  0.1163
  164SOPE   H4Y18449   6.912   4.786   9.570 -1.2731 -0.5125 -1.7359
  164SOPE   C3518450   6.820   4.941   9.454  0.6515  0.5424 -0.8038
  164SOPE   H5X18451   6.919   4.992   9.452  0.9326  0.4556  4.4641
  164SOPE   H5Y18452   6.729   5.004   9.461 -1.1168 -1.8766 -1.6022
  164SOPE   C3618453   6.795   4.866   9.325 -0.1251 -0.0377 -0.2504
  164SOPE   H6X18454   6.701   4.812   9.346  2.3911 -3.9624  1.4919
  164SOPE   H6Y18455   6.876   4.798   9.292  1.2714  1.9938 -1.1507
  164SOPE   C3718456   6.762   4.965   9.211 -0.3303 -0.1205  0.7272
  164SOPE   H7X18457   6.833   5.051   9.213 -0.1278 -0.3018  1.9496
  164SOPE   H7Y18458   6.658   4.995   9.236 -0.0670  0.5351  1.0503
  164SOPE   C3818459   6.743   4.907   9.068 -0.0150 -0.2118 -0.2185
  164SOPE   H8X18460   6.676   4.821   9.047 -2.1533  1.3850 -0.2266
  164SOPE   H8Y18461   6.840   4.872   9.028 -0.8036  0.1316 -2.5393
  164SOPE   C3918462   6.712   5.012   8.964  0.6425 -0.1249  0.7606
  164SOPE   H9X18463   6.778   5.099   8.984  2.2958 -1.2577  0.3299
  164SOPE   H9Y18464   6.610   5.054   8.977  0.3268 -0.1199 -1.4589
  164SOPE  C31018465   6.734   4.987   8.817 -0.5155  0.7075  0.1418
  164SOPE  H10X18466   6.672   4.902   8.781  0.0067  1.0639 -1.6622
  164SOPE  H10Y18467   6.844   4.975   8.810 -0.3102  2.8224 -0.6695
  164SOPE  C31118468   6.699   5.107   8.734  0.3099  0.4703  0.1085
  164SOPE  H11X18469   6.745   5.202   8.769  2.8334  0.0234 -1.8783
  164SOPE  H11Y18470   6.590   5.124   8.720  0.4030  1.2971  0.3200
  164SOPE  C31218471   6.748   5.106   8.587  0.3423 -0.7061  0.1034
  164SOPE  H12X18472   6.733   5.004   8.545 -1.4019  0.3938 -2.0429
  164SOPE  H12Y18473   6.858   5.123   8.584  0.2596 -0.3052 -1.0319
  164SOPE  C31318474   6.679   5.218   8.511 -0.1211  0.5049  1.1295
  164SOPE  H13X18475   6.693   5.316   8.561  0.3080  1.6994 -1.2906
  164SOPE  H13Y18476   6.569   5.202   8.508  0.0526 -0.4878 -0.9826
  164SOPE  C31418477   6.744   5.233   8.370 -0.7331 -0.0955 -0.1223
  164SOPE  H14X18478   6.763   5.134   8.322 -1.0067 -0.2632  0.1135
  164SOPE  H14Y18479   6.842   5.283   8.383 -0.4830 -0.6880  0.2586
  164SOPE  C31518480   6.664   5.325   8.278 -0.0815 -0.0623  0.2782
  164SOPE  H15X18481   6.633   5.410   8.342 -0.0468 -0.6987  1.1450
  164SOPE  H15Y18482   6.575   5.262   8.255  2.8775 -3.9240 -1.1241
  164SOPE  C31618483   6.742   5.381   8.155 -0.2317  0.2092  0.2946
  164SOPE  H16X18484   6.801   5.300   8.107 -1.1569  0.5154 -1.3917
  164SOPE  H16Y18485   6.807   5.461   8.198  1.6206 -2.0381  1.8531
  164SOPE  C31718486   6.653   5.445   8.043 -0.0759  0.3963 -0.5793
  164SOPE  H17X18487   6.584   5.511   8.100  1.7526 -0.7664  3.2099
  164SOPE  H17Y18488   6.587   5.367   7.999 -0.2547 -0.1592  0.6316
  164SOPE  C31818489   6.720   5.530   7.935  0.5030  0.2356 -0.3506
  164SOPE  H18X18490   6.786   5.605   7.983 -1.5742  1.1428  1.1354
  164SOPE  H18Y18491   6.652   5.578   7.861 -0.6390 -0.9331 -0.0866
  164SOPE  H18Z18492   6.776   5.458   7.871 -0.6400 -0.6775 -0.3313
  165SOPE     N18493   5.049   6.506  11.042 -0.5816  0.2477 -0.4967
  165SOPE   HN118494   5.102   6.448  11.110  0.6721  0.9349 -0.8686
  165SOPE   HN218495   5.056   6.607  11.067  0.0689  0.4823 -1.5852
  165SOPE   HN318496   4.950   6.474  11.050 -0.3621  0.1278  1.8667
  165SOPE   C1218497   5.089   6.470  10.898  0.0923 -0.6010 -0.3345
  165SOPE  H12A18498   5.186   6.516  10.869  0.6070 -1.0025  0.7315
  165SOPE  H12B18499   5.019   6.517  10.825 -3.5944  0.2064  3.5380
  165SOPE   C1118500   5.098   6.320  10.876  0.1475  0.8153 -0.5712
  165SOPE  H11A18501   5.092   6.300  10.767  0.7580  0.3223 -0.5126
  165SOPE  H11B18502   5.003   6.286  10.921 -0.2711  2.1938 -0.3785
  165SOPE     P18503   5.232   6.110  10.928  0.1624 -0.1786  0.2933
  165SOPE   O1318504   5.109   6.052  10.992  0.3557 -0.6776  0.2765
  165SOPE   O1418505   5.360   6.073  10.993 -0.1376 -0.1770  0.2992
  165SOPE   O1218506   5.221   6.268  10.928  0.5888  0.9006  0.4055
  165SOPE   O1118507   5.239   6.077  10.775 -0.4665  0.3169 -0.0133
  165SOPE    C118508   5.335   6.147  10.691 -0.1273 -1.0669  0.4695
  165SOPE    HA18509   5.431   6.167  10.743  0.4487  1.7948 -1.6110
  165SOPE    HB18510   5.284   6.240  10.657  1.5162  1.0416  3.5282
  165SOPE    C218511   5.386   6.063  10.563  0.0702 -1.0549  0.1857
  165SOPE    HS18512   5.488   6.093  10.530 -0.2849  0.7522  0.6694
  165SOPE   O2118513   5.289   6.071  10.454 -0.7006  0.4741  0.1024
  165SOPE   C2118514   5.290   6.184  10.398  0.2490  1.0691  0.5777
  165SOPE   O2218515   5.374   6.272  10.417  0.5471  0.4051  0.3176
  165SOPE   C2218516   5.172   6.206  10.308  0.2969  0.1751 -0.1983
  165SOPE   H2R18517   5.130   6.303  10.340  2.4290  1.1507 -0.2685
  165SOPE   H2S18518   5.088   6.140  10.338 -0.2945 -0.0767 -2.2642
  165SOPE    C318519   5.413   5.915  10.601  0.3743 -0.5544 -0.2023
  165SOPE    HX18520   5.320   5.859  10.627  0.4462 -2.0195 -3.0135
  165SOPE    HY18521   5.469   5.908  10.697  0.0100 -0.9976 -0.0204
  165SOPE   O3118522   5.499   5.854  10.497  0.2461  0.1425 -0.1591
  165SOPE   C3118523   5.437   5.793  10.397 -0.0353  1.0177 -0.1157
  165SOPE   O3218524   5.319   5.786  10.381 -0.1434  0.2034  0.1482
  165SOPE   C3218525   5.537   5.731  10.302  0.3078  0.3654  0.3808
  165SOPE   H2X18526   5.512   5.623  10.305 -0.6562  0.5127 -1.5425
  165SOPE   H2Y18527   5.641   5.749  10.337  0.6756  1.5106 -1.2326
  165SOPE   C2318528   5.203   6.208  10.162  0.0229  0.4169  0.0795
  165SOPE   H3R18529   5.302   6.253  10.138  0.2155 -1.0552 -2.0300
  165SOPE   H3S18530   5.134   6.266  10.098 -1.5065 -0.9642  0.4206
  165SOPE   C2418531   5.200   6.066  10.103  0.0131 -0.2470  0.3274
  165SOPE   H4R18532   5.300   6.023  10.128  0.1969 -2.0250 -3.0140
  165SOPE   H4S18533   5.115   6.014  10.152 -1.6905  0.3264 -1.9072
  165SOPE   C2518534   5.184   6.066   9.950  0.0223 -0.0703 -0.1438
  165SOPE   H5R18535   5.137   6.161   9.917  0.4480 -0.0165 -0.6078
  165SOPE   H5S18536   5.286   6.063   9.906  0.7583  0.9743  1.4265
  165SOPE   C2618537   5.122   5.935   9.899 -0.1376 -0.4608 -0.5303
  165SOPE   H6R18538   5.167   5.835   9.921  0.6238 -0.5227 -2.3298
  165SOPE   H6S18539   5.021   5.939   9.945  0.3584  2.9503  0.3774
  165SOPE   C2718540   5.103   5.935   9.747  0.1084 -0.3469 -0.2874
  165SOPE   H7R18541   5.042   5.847   9.718 -0.8611  0.0280  0.5648
  165SOPE   H7S18542   5.038   6.023   9.729 -2.7312 -2.0635  1.0193
  165SOPE   C2818543   5.226   5.957   9.654  0.3158 -0.5158 -0.9244
  165SOPE   H8R18544   5.194   5.972   9.549 -0.0412  2.2782 -0.4527
  165SOPE   H8S18545   5.277   6.052   9.681  1.9213 -1.5069 -0.3194
  165SOPE   C2918546   5.339   5.859   9.668  0.3680 -0.2578 -0.6265
  165SOPE   H9118547   5.411   5.886   9.746  0.3137 -1.4151 -0.1741
  165SOPE  C21018548   5.338   5.745   9.602  0.0375  0.0818  0.0067
  165SOPE  H10118549   5.416   5.672   9.629  1.1070  1.1536 -0.1612
  165SOPE  C21118550   5.243   5.698   9.492 -0.3724  0.2026  0.4581
  165SOPE  H11R18551   5.139   5.729   9.516  0.7213  0.8551  4.9863
  165SOPE  H11S18552   5.241   5.588   9.485  0.5450  0.0272  2.5692
  165SOPE  C21218553   5.275   5.739   9.353 -0.3730  0.1759  0.2127
  165SOPE  H12R18554   5.378   5.699   9.336  0.1972  1.1324  1.3412
  165SOPE  H12S18555   5.267   5.849   9.347  0.9340  0.2993  0.5757
  165SOPE  C21318556   5.182   5.667   9.252 -0.0213  0.2858 -0.2958
  165SOPE  H13R18557   5.077   5.690   9.278  0.6887  4.0128 -0.3773
  165SOPE  H13S18558   5.203   5.558   9.255 -0.5508  0.2169  1.2909
  165SOPE  C21418559   5.204   5.727   9.107 -0.4207 -0.6773 -0.0215
  165SOPE  H14R18560   5.308   5.757   9.081 -0.3820 -0.7458  0.0516
  165SOPE  H14S18561   5.162   5.829   9.107  3.2381  0.9015  1.0869
  165SOPE  C21518562   5.141   5.648   8.993 -0.2501  0.0801 -0.0945
  165SOPE  H15R18563   5.034   5.627   9.015 -0.0629  1.0449  1.9356
  165SOPE  H15S18564   5.189   5.548   8.993 -0.5797 -0.0972  1.4002
  165SOPE  C21618565   5.160   5.718   8.859  0.0464 -0.2629 -0.0109
  165SOPE  H16R18566   5.271   5.719   8.855  0.0119  2.8505 -1.7790
  165SOPE  H16S18567   5.120   5.821   8.860  3.7669  1.2353 -0.0500
  165SOPE  C21718568   5.098   5.649   8.745  0.7313 -0.3891 -0.2107
  165SOPE  H17R18569   4.988   5.664   8.748  0.9708  1.0889  4.0124
  165SOPE  H17S18570   5.125   5.541   8.742 -0.4420 -0.7617  1.8214
  165SOPE  C21818571   5.151   5.712   8.613  0.4044  0.0406  0.3397
  165SOPE  H18R18572   5.262   5.719   8.607  0.4578 -0.1606  1.1199
  165SOPE  H18S18573   5.108   5.813   8.594  3.5926  1.1176 -1.6352
  165SOPE  H18T18574   5.121   5.657   8.521 -1.2889 -1.1175  1.5683
  165SOPE   C3318575   5.517   5.787  10.156 -0.1617  0.3393 -0.4670
  165SOPE   H3X18576   5.489   5.894  10.161  0.4381  0.4725  0.1764
  165SOPE   H3Y18577   5.441   5.733  10.096 -2.3007  2.5733  0.1624
  165SOPE   C3418578   5.648   5.775  10.084  0.2091  0.2147 -0.2928
  165SOPE   H4X18579   5.679   5.669  10.091  0.4293  0.2995  0.0719
  165SOPE   H4Y18580   5.732   5.838  10.120 -1.2679  1.6160  0.8208
  165SOPE   C3518581   5.633   5.812   9.938  1.1665  0.0751  0.7273
  165SOPE   H5X18582   5.604   5.919   9.931  0.6742  0.0312  1.8801
  165SOPE   H5Y18583   5.550   5.751   9.897  0.4547 -1.0011  3.6496
  165SOPE   C3618584   5.759   5.781   9.855 -0.0194  0.5421 -0.3488
  165SOPE   H6X18585   5.771   5.671   9.868 -0.9245  0.5806  0.9667
  165SOPE   H6Y18586   5.845   5.832   9.903 -1.3166  3.0834 -0.6437
  165SOPE   C3718587   5.752   5.817   9.707  0.2422  0.4221 -0.1816
  165SOPE   H7X18588   5.814   5.909   9.697  2.2738 -0.9894 -0.7791
  165SOPE   H7Y18589   5.649   5.836   9.667  0.8947  0.5834 -1.8239
  165SOPE   C3818590   5.801   5.710   9.617 -0.1524  0.8698 -0.3125
  165SOPE   H8X18591   5.734   5.625   9.641  0.2794  0.8188  0.7342
  165SOPE   H8Y18592   5.898   5.679   9.662 -0.5427 -1.4545 -0.9630
  165SOPE   C3918593   5.818   5.751   9.472  0.4549 -0.1499 -0.2705
  165SOPE   H9X18594   5.920   5.728   9.435  0.2252  0.8478 -1.5303
  165SOPE   H9Y18595   5.827   5.861   9.480 -0.9722  0.1025 -1.8076
  165SOPE  C31018596   5.697   5.702   9.393  0.2915  0.1459 -0.3754
  165SOPE  H10X18597   5.609   5.736   9.453  1.1176  0.2507  0.8037
  165SOPE  H10Y18598   5.696   5.591   9.392 -0.9174  0.0422  2.8652
  165SOPE  C31118599   5.699   5.741   9.248  0.3475  0.3599  0.9017
  165SOPE  H11X18600   5.801   5.742   9.205 -0.5855 -0.2886 -1.4178
  165SOPE  H11Y18601   5.655   5.843   9.240 -1.3903 -0.4800 -0.7925
  165SOPE  C31218602   5.620   5.640   9.170  0.7191  1.0898  0.6198
  165SOPE  H12X18603   5.512   5.643   9.197  1.0008  0.4399  1.8627
  165SOPE  H12Y18604   5.660   5.539   9.193  0.3607  1.0196  0.9395
  165SOPE  C31318605   5.630   5.675   9.011  0.3707 -0.1563  0.2791
  165SOPE  H13X18606   5.738   5.667   8.984  1.2665 -0.7914  3.7236
  165SOPE  H13Y18607   5.589   5.777   8.996 -0.7182 -0.8112 -1.2228
  165SOPE  C31418608   5.551   5.591   8.916 -0.4138 -0.1431 -0.3194
  165SOPE  H14X18609   5.445   5.603   8.949 -0.4417  1.9065 -1.1315
  165SOPE  H14Y18610   5.582   5.488   8.947  0.8326  0.5593  0.8077
  165SOPE  C31518611   5.570   5.613   8.761  0.2504  0.1268  0.9334
  165SOPE  H15X18612   5.534   5.714   8.733  1.4112 -0.2096 -2.0082
  165SOPE  H15Y18613   5.491   5.547   8.720 -1.3619  1.8729  1.1610
  165SOPE  C31618614   5.709   5.599   8.705 -0.4278 -0.1468  0.1488
  165SOPE  H16X18615   5.789   5.655   8.758  0.8702 -2.0391  0.2685
  165SOPE  H16Y18616   5.708   5.631   8.598 -2.8052  1.5152  0.6232
  165SOPE  C31718617   5.762   5.458   8.711 -0.3161 -0.7358  0.0935
  165SOPE  H17X18618   5.682   5.387   8.682 -1.5653  0.7472 -0.1774
  165SOPE  H17Y18619   5.778   5.425   8.816  1.7975 -0.6813 -0.2031
  165SOPE  C31818620   5.886   5.444   8.627 -0.9166  0.3270 -0.4366
  165SOPE  H18X18621   5.946   5.351   8.623 -0.0187  0.9208 -0.8850
  165SOPE  H18Y18622   5.956   5.525   8.656  0.4451 -1.7319  2.2720
  165SOPE  H18Z18623   5.848   5.450   8.523 -0.5735  0.5299 -0.5507
  166SOPE     N18624   1.766   5.048  10.639  0.5410  0.7857  0.1396
  166SOPE   HN118625   1.742   5.045  10.538  3.1764 -1.5003 -0.4811
  166SOPE   HN218626   1.822   5.133  10.660  0.3588  1.2167 -1.0765
  166SOPE   HN318627   1.834   4.971  10.657  1.3408  0.5842 -3.3554
  166SOPE   C1218628   1.647   5.048  10.726  0.5482 -0.3725  0.1077
  166SOPE  H12A18629   1.681   5.062  10.831 -0.7599 -1.5073  0.6935
  166SOPE  H12B18630   1.590   4.953  10.719 -0.8223  0.4449 -0.1029
  166SOPE   C1118631   1.555   5.167  10.698 -0.0985  0.0050  0.1205
  166SOPE  H11A18632   1.472   5.162  10.772  1.4448 -1.4013  1.8136
  166SOPE  H11B18633   1.503   5.169  10.600 -1.6345  1.4081  0.9321
  166SOPE     P18634   1.603   5.410  10.795  0.1201 -0.1854 -0.4159
  166SOPE   O1318635   1.674   5.410  10.925 -0.3845 -0.2127  0.3092
  166SOPE   O1418636   1.458   5.429  10.812  0.0917  0.2773 -0.6077
  166SOPE   O1218637   1.631   5.284  10.715 -0.5128 -0.2566 -0.2601
  166SOPE   O1118638   1.667   5.528  10.713  0.2981  0.4520 -0.2036
  166SOPE    C118639   1.768   5.508  10.614 -1.0854  0.1032  0.0772
  166SOPE    HA18640   1.817   5.408  10.620 -1.7020 -0.2171 -0.2200
  166SOPE    HB18641   1.850   5.582  10.630 -0.1111 -1.6715  3.6835
  166SOPE    C218642   1.721   5.538  10.472  0.0880  0.6791  0.3333
  166SOPE    HS18643   1.802   5.524  10.397  0.3034  0.5120  0.5959
  166SOPE   O2118644   1.661   5.671  10.468  0.1985  0.4256  0.4181
  166SOPE   C2118645   1.744   5.772  10.452  0.4338  0.4276 -0.0157
  166SOPE   O2218646   1.862   5.771  10.428  0.0264  0.6566  0.0837
  166SOPE   C2218647   1.669   5.906  10.448  0.1502  0.8422  0.0113
  166SOPE   H2R18648   1.681   5.949  10.549 -0.6867 -1.0880  0.9700
  166SOPE   H2S18649   1.560   5.882  10.457  0.3204  0.1667  0.3535
  166SOPE    C318650   1.612   5.439  10.426 -0.0525  0.4251  0.9067
  166SOPE    HX18651   1.532   5.462  10.500  0.6418 -0.7064  2.0353
  166SOPE    HY18652   1.656   5.338  10.442 -0.1476  0.6523  2.7550
  166SOPE   O3118653   1.578   5.466  10.290  0.2212 -0.8145  0.1729
  166SOPE   C3118654   1.564   5.360  10.215  0.2656  0.0782  0.1080
  166SOPE   O3218655   1.546   5.243  10.245  0.0719  0.3823  0.0445
  166SOPE   C3218656   1.570   5.397  10.067  0.1651  0.0074  0.0230
  166SOPE   H2X18657   1.676   5.386  10.035 -0.2728  0.5749 -1.6705
  166SOPE   H2Y18658   1.545   5.504  10.052 -0.1000  0.0789  0.9631
  166SOPE   C2318659   1.707   6.004  10.331  0.2235 -0.5562 -0.5322
  166SOPE   H3R18660   1.816   6.026  10.326 -0.1593  1.6024  0.4616
  166SOPE   H3S18661   1.655   6.102  10.335 -0.3899 -0.9653  3.0802
  166SOPE   C2418662   1.657   5.941  10.198  1.0154 -0.4720 -0.5904
  166SOPE   H4R18663   1.680   5.832  10.199  1.6148 -0.3536 -1.6156
  166SOPE   H4S18664   1.547   5.950  10.187  1.0864 -0.7644 -1.5787
  166SOPE   C2518665   1.722   6.013  10.079 -0.4486 -0.1887  0.5007
  166SOPE   H5R18666   1.721   6.124  10.091 -0.3635 -0.2647  1.2669
  166SOPE   H5S18667   1.830   5.994  10.064 -1.0639 -1.8312 -2.2177
  166SOPE   C2618668   1.668   5.981   9.944  0.2461 -0.1486 -0.5547
  166SOPE   H6R18669   1.690   5.873   9.931 -0.1032 -0.0133 -2.5237
  166SOPE   H6S18670   1.557   5.982   9.937  0.3969 -0.6150 -4.4086
  166SOPE   C2718671   1.739   6.050   9.822 -0.0816 -0.1139 -0.1477
  166SOPE   H7R18672   1.727   6.160   9.831 -0.8222 -0.2492  0.5852
  166SOPE   H7S18673   1.847   6.026   9.833  0.4892  2.3277 -0.0570
  166SOPE   C2818674   1.674   6.002   9.691  0.5374 -0.0489 -0.1322
  166SOPE   H8R18675   1.678   5.891   9.699  1.0269 -0.2284 -2.5626
  166SOPE   H8S18676   1.569   6.038   9.697  0.8210  1.2577 -2.4000
  166SOPE   C2918677   1.742   6.062   9.572 -0.4378  0.1322  0.0963
  166SOPE   H9118678   1.781   6.164   9.583 -2.8360  0.9882  1.0918
  166SOPE  C21018679   1.738   6.005   9.450 -0.6372 -0.2649 -0.2998
  166SOPE  H10118680   1.779   6.069   9.371 -2.5700 -0.0477 -1.1676
  166SOPE  C21118681   1.667   5.877   9.408 -0.2147  0.0970  0.1265
  166SOPE  H11R18682   1.631   5.820   9.496  1.0906 -0.8672  0.0372
  166SOPE  H11S18683   1.720   5.810   9.337 -2.1097 -0.0091 -1.2283
  166SOPE  C21218684   1.534   5.916   9.335 -0.6409  0.2043 -0.8451
  166SOPE  H12R18685   1.486   5.994   9.397  0.8115  0.0934  0.4448
  166SOPE  H12S18686   1.472   5.824   9.326 -1.0171  0.4622 -0.8550
  166SOPE  C21318687   1.544   5.962   9.190  0.0773 -0.1122 -0.3466
  166SOPE  H13R18688   1.604   6.055   9.181  0.1067  0.0440  1.2732
  166SOPE  H13S18689   1.439   5.977   9.157 -0.1410 -0.2971  0.2698
  166SOPE  C21418690   1.603   5.854   9.100 -0.3318 -0.0103  0.8221
  166SOPE  H14R18691   1.560   5.756   9.130  1.5538 -0.5836  1.6750
  166SOPE  H14S18692   1.713   5.860   9.110 -0.4246  1.9739  0.7596
  166SOPE  C21518693   1.576   5.897   8.947  0.0160 -0.5701 -0.1115
  166SOPE  H15R18694   1.541   6.002   8.938 -2.4042 -0.7483  5.4545
  166SOPE  H15S18695   1.485   5.847   8.907  0.7883 -2.1639  0.0544
  166SOPE  C21618696   1.689   5.881   8.836 -0.4947 -0.2034 -0.5813
  166SOPE  H16R18697   1.643   5.914   8.741 -2.9884  0.1468  0.7089
  166SOPE  H16S18698   1.711   5.772   8.834  0.8865  0.0685 -0.8033
  166SOPE  C21718699   1.817   5.955   8.878 -0.1868  0.1347 -0.1218
  166SOPE  H17R18700   1.838   5.937   8.985 -0.9101 -0.4424 -0.0749
  166SOPE  H17S18701   1.813   6.065   8.866  1.3278  0.3282  1.0839
  166SOPE  C21818702   1.936   5.918   8.793 -0.6475 -0.4147 -0.1665
  166SOPE  H18R18703   1.909   5.939   8.688  1.2525 -1.6869 -0.9278
  166SOPE  H18S18704   1.957   5.809   8.797 -2.1157 -0.7279 -0.7001
  166SOPE  H18T18705   2.025   5.982   8.811 -2.6476  2.2854  0.3782
  166SOPE   C3318706   1.481   5.304   9.990 -0.0699  0.3512  0.5582
  166SOPE   H3X18707   1.373   5.313  10.015  0.2191  0.5172  1.7704
  166SOPE   H3Y18708   1.509   5.198  10.010 -0.3161  0.6512  2.6053
  166SOPE   C3418709   1.475   5.321   9.831  0.0039 -0.0079 -0.6606
  166SOPE   H4X18710   1.407   5.409   9.821  2.9463  2.7407  2.1174
  166SOPE   H4Y18711   1.423   5.231   9.791  2.7761 -1.3081 -1.4984
  166SOPE   C3518712   1.612   5.361   9.770  0.0874 -0.1056 -0.1506
  166SOPE   H5X18713   1.690   5.295   9.813  0.1498 -0.2315 -0.4603
  166SOPE   H5Y18714   1.634   5.467   9.795  1.0238 -0.4510  0.5115
  166SOPE   C3618715   1.636   5.354   9.615  0.3113 -0.4052 -0.0708
  166SOPE   H6X18716   1.602   5.259   9.570  1.0386 -0.8222  0.2605
  166SOPE   H6Y18717   1.744   5.368   9.592  0.4140  0.2691  0.7769
  166SOPE   C3718718   1.556   5.455   9.529 -0.4695  0.1494  0.5635
  166SOPE   H7X18719   1.593   5.555   9.560  3.6413 -1.2530  0.5649
  166SOPE   H7Y18720   1.451   5.455   9.564 -1.0131  2.0290 -0.9854
  166SOPE   C3818721   1.559   5.443   9.380 -0.5138 -0.0475  0.2207
  166SOPE   H8X18722   1.565   5.336   9.351  0.6630  0.4736 -1.5144
  166SOPE   H8Y18723   1.656   5.480   9.341  0.0471 -0.2282  1.4104
  166SOPE   C3918724   1.440   5.496   9.307  0.7875  0.9884  0.5602
  166SOPE   H9X18725   1.437   5.606   9.322  0.0541  0.8340  1.6721
  166SOPE   H9Y18726   1.350   5.447   9.352  0.7478  1.3434  0.8759
  166SOPE  C31018727   1.441   5.466   9.159 -0.0937  0.4064  0.7225
  166SOPE  H10X18728   1.445   5.356   9.170 -0.3308  0.3876  0.6184
  166SOPE  H10Y18729   1.539   5.484   9.110  0.1894 -1.8759  0.4045
  166SOPE  C31118730   1.308   5.508   9.091 -0.0778 -0.3108 -0.6069
  166SOPE  H11X18731   1.305   5.619   9.102  2.0634 -0.4105  1.4279
  166SOPE  H11Y18732   1.222   5.461   9.145  1.1130 -1.2566  0.5021
  166SOPE  C31218733   1.304   5.467   8.948 -0.4951 -0.0781 -0.0696
  166SOPE  H12X18734   1.213   5.513   8.904 -0.6368 -2.4797 -2.4259
  166SOPE  H12Y18735   1.284   5.361   8.923  0.9807 -0.4829  0.4041
  166SOPE  C31318736   1.419   5.524   8.858 -0.7816  0.1449 -0.6222
  166SOPE  H13X18737   1.508   5.462   8.883 -0.1212  1.6701  0.9533
  166SOPE  H13Y18738   1.437   5.629   8.889 -1.3209  0.0753 -0.0626
  166SOPE  C31418739   1.387   5.512   8.709  0.5389 -0.7812  1.6013
  166SOPE  H14X18740   1.303   5.580   8.684  1.7591 -0.4673 -1.8516
  166SOPE  H14Y18741   1.379   5.405   8.681 -0.3950 -0.7965  1.8823
  166SOPE  C31518742   1.505   5.565   8.638 -0.6117 -0.9853  0.2028
  166SOPE  H15X18743   1.581   5.491   8.672  0.2076 -0.0201  0.4879
  166SOPE  H15Y18744   1.545   5.664   8.668  0.1399 -0.7260 -1.6347
  166SOPE  C31618745   1.497   5.557   8.486  0.1285 -0.1281 -0.3620
  166SOPE  H16X18746   1.582   5.619   8.451 -0.8427  0.5445 -1.5571
  166SOPE  H16Y18747   1.405   5.609   8.452 -0.9414 -0.4203  2.0045
  166SOPE  C31718748   1.486   5.425   8.415  0.4197 -0.8422  0.6792
  166SOPE  H17X18749   1.431   5.444   8.321 -0.8349  1.1148  1.7758
  166SOPE  H17Y18750   1.418   5.350   8.461 -1.1136  0.2325  0.2332
  166SOPE  C31818751   1.615   5.358   8.376 -0.8104  0.0253  0.7436
  166SOPE  H18X18752   1.667   5.419   8.299  1.4724 -1.4092  1.1084
  166SOPE  H18Y18753   1.585   5.263   8.328 -1.2157  0.3455  0.3549
  166SOPE  H18Z18754   1.691   5.333   8.453 -0.9082  1.3155  1.2739
  167SOPE     N18755   2.218   2.998   6.088  0.1759  0.6776 -0.4041
  167SOPE   HN118756   2.219   3.000   5.984  2.8800  1.2232 -0.4118
  167SOPE   HN218757   2.310   3.038   6.116  0.2858  0.1428  0.0031
  167SOPE   HN318758   2.213   2.898   6.114  0.9593  0.4445 -1.1181
  167SOPE   C1218759   2.100   3.072   6.144  0.1025 -0.0466  0.0724
  167SOPE  H12A18760   2.114   3.075   6.254 -0.0823 -1.6254  0.1544
  167SOPE  H12B18761   2.004   3.016   6.135  0.1576 -0.3205  1.1740
  167SOPE   C1118762   2.093   3.221   6.102 -0.2592 -0.5211  0.4940
  167SOPE  H11A18763   1.996   3.258   6.140 -0.5692 -0.3773 -0.4216
  167SOPE  H11B18764   2.091   3.227   5.991 -3.4249 -0.5359  0.5190
  167SOPE     P18765   2.199   3.402   6.265 -0.7558  0.3066  0.4421
  167SOPE   O1318766   2.073   3.471   6.248  0.9336  0.4324 -0.1052
  167SOPE   O1418767   2.321   3.488   6.268  0.5571 -0.0515  0.2501
  167SOPE   O1218768   2.214   3.288   6.157  0.1102 -0.3752  0.1635
  167SOPE   O1118769   2.201   3.323   6.394 -0.6479  0.3173  0.3804
  167SOPE    C118770   2.278   3.203   6.416  0.5207  0.2032 -0.1932
  167SOPE    HA18771   2.338   3.173   6.328  0.5506 -0.2350 -0.0268
  167SOPE    HB18772   2.211   3.115   6.431 -1.4811  1.6625 -0.4520
  167SOPE    C218773   2.370   3.196   6.551  0.7265 -0.5510  0.6607
  167SOPE    HS18774   2.409   3.094   6.571  0.5104 -0.5486  1.1125
  167SOPE   O2118775   2.282   3.238   6.661  0.3304 -0.0790  0.3157
  167SOPE   C2118776   2.181   3.155   6.693 -0.5827  0.3716  0.2812
  167SOPE   O2218777   2.163   3.040   6.658 -0.1269 -0.3930  0.2892
  167SOPE   C2218778   2.088   3.229   6.795 -0.6772 -0.1145 -0.3701
  167SOPE   H2R18779   2.017   3.294   6.738  1.5813  1.8587 -1.0222
  167SOPE   H2S18780   2.146   3.303   6.854  0.9221 -0.4264 -1.5376
  167SOPE    C318781   2.488   3.295   6.541  0.6306  0.4149 -0.3911
  167SOPE    HX18782   2.461   3.369   6.463 -2.8100 -0.3689 -0.0335
  167SOPE    HY18783   2.578   3.242   6.504  0.5810  0.7059 -0.9338
  167SOPE   O3118784   2.528   3.360   6.664  0.2366 -0.1638 -0.8676
  167SOPE   C3118785   2.467   3.477   6.695  0.4128  0.2317  0.6944
  167SOPE   O3218786   2.374   3.528   6.634  0.2587  0.1900  1.0078
  167SOPE   C3218787   2.542   3.538   6.819  0.4755  0.5665 -0.3862
  167SOPE   H2X18788   2.534   3.649   6.822 -3.1910  0.3894 -1.2068
  167SOPE   H2Y18789   2.649   3.508   6.827  0.8359  1.2607 -2.3214
  167SOPE   C2318790   2.009   3.125   6.875 -1.2969 -0.0976  0.4770
  167SOPE   H3R18791   2.060   3.029   6.896  0.1410  0.5494 -0.0509
  167SOPE   H3S18792   1.917   3.103   6.815 -0.9123  0.0943 -0.1854
  167SOPE   C2418793   1.968   3.180   7.015  0.2039 -0.1046  0.8157
  167SOPE   H4R18794   1.902   3.269   7.003 -1.7531 -1.3028  2.3142
  167SOPE   H4S18795   1.917   3.093   7.062 -0.4323 -0.1039  0.1359
  167SOPE   C2518796   2.087   3.235   7.108 -0.1822  0.3149  0.7308
  167SOPE   H5R18797   2.162   3.153   7.104 -0.9277 -0.3407  0.0949
  167SOPE   H5S18798   2.127   3.336   7.083  0.8729 -0.1133  0.6464
  167SOPE   C2618799   2.045   3.242   7.253  0.1250  0.2997 -0.3205
  167SOPE   H6R18800   1.938   3.213   7.256  0.3134 -0.6463 -2.4656
  167SOPE   H6S18801   2.102   3.175   7.322  1.3638  1.8920  0.2291
  167SOPE   C2718802   2.061   3.379   7.315  0.2594 -0.1936 -0.0460
  167SOPE   H7R18803   2.169   3.405   7.311  0.0138  1.1091  1.4217
  167SOPE   H7S18804   2.015   3.451   7.244 -1.0261  0.2923  1.2474
  167SOPE   C2818805   1.992   3.393   7.452 -0.4149 -0.2499 -0.5696
  167SOPE   H8R18806   1.883   3.384   7.429 -0.3865  1.5244 -1.4327
  167SOPE   H8S18807   2.037   3.308   7.509  1.2459  1.8012  1.2654
  167SOPE   C2918808   2.032   3.519   7.522 -0.6305 -0.1467 -0.5707
  167SOPE   H9118809   2.095   3.582   7.457  0.9809  0.4085  1.4776
  167SOPE  C21018810   1.998   3.537   7.651 -0.1020  0.8096 -0.1079
  167SOPE  H10118811   2.017   3.638   7.690  1.2534 -0.1319  1.7510
  167SOPE  C21118812   1.909   3.445   7.732 -0.0760 -0.3514 -0.0829
  167SOPE  H11R18813   1.944   3.340   7.721  1.0645 -0.0461  0.5056
  167SOPE  H11S18814   1.804   3.455   7.698  0.2967  0.7004 -0.9338
  167SOPE  C21218815   1.929   3.474   7.885  0.7305  0.5149  0.3816
  167SOPE  H12R18816   1.853   3.411   7.935 -0.0805 -1.2418 -2.9353
  167SOPE  H12S18817   1.909   3.580   7.913  3.5112  1.0208  0.6769
  167SOPE  C21318818   2.062   3.443   7.945 -0.1703 -0.2630  0.2722
  167SOPE  H13R18819   2.134   3.507   7.890 -4.3232  2.1180 -2.6791
  167SOPE  H13S18820   2.092   3.338   7.925 -0.0424 -0.2092  0.1822
  167SOPE  C21418821   2.087   3.459   8.098 -0.1804  0.0872 -0.2641
  167SOPE  H14R18822   2.189   3.425   8.127 -0.1907  0.5483  0.3010
  167SOPE  H14S18823   2.037   3.377   8.153  0.7996  0.7744  1.6839
  167SOPE  C21518824   2.060   3.599   8.163 -0.0102 -0.0769  0.5733
  167SOPE  H15R18825   1.949   3.600   8.174 -0.1415 -1.4702 -0.3417
  167SOPE  H15S18826   2.071   3.684   8.093 -1.1893  0.0526  0.5375
  167SOPE  C21618827   2.119   3.607   8.302  0.1324  0.7342  0.8786
  167SOPE  H16R18828   2.229   3.592   8.296 -0.0251 -0.2170  0.1970
  167SOPE  H16S18829   2.083   3.517   8.357 -0.4728  1.9371  2.5055
  167SOPE  C21718830   2.078   3.733   8.381  0.2761  0.1054  0.3106
  167SOPE  H17R18831   1.967   3.741   8.388 -0.1011 -2.8329 -1.6367
  167SOPE  H17S18832   2.113   3.829   8.336  1.4837 -0.3186  0.3312
  167SOPE  C21818833   2.132   3.727   8.529 -0.8147 -0.5319 -0.0666
  167SOPE  H18R18834   2.099   3.816   8.587  4.1696  3.4329 -2.9003
  167SOPE  H18S18835   2.243   3.730   8.522 -0.9017 -1.2374 -2.0006
  167SOPE  H18T18836   2.091   3.644   8.589  0.9652  1.2595  3.8379
  167SOPE   C3318837   2.478   3.505   6.954  0.2767 -0.6073  0.5292
  167SOPE   H3X18838   2.464   3.395   6.963 -1.0989 -0.4947 -0.1456
  167SOPE   H3Y18839   2.374   3.543   6.963  0.7002 -0.1553  4.4993
  167SOPE   C3418840   2.553   3.546   7.079  0.1275  0.0470 -0.4515
  167SOPE   H4X18841   2.555   3.657   7.083  2.8743 -0.0095  0.5501
  167SOPE   H4Y18842   2.656   3.508   7.092  0.8242  2.2558  0.8729
  167SOPE   C3518843   2.477   3.502   7.205  0.6120 -0.7628 -0.6673
  167SOPE   H5X18844   2.477   3.392   7.214  0.7892 -0.6811  0.3617
  167SOPE   H5Y18845   2.368   3.522   7.191  0.4582 -2.6452 -2.4246
  167SOPE   C3618846   2.521   3.579   7.331  0.1764 -0.4162  0.2741
  167SOPE   H6X18847   2.523   3.687   7.307 -0.2817 -0.4920 -0.1066
  167SOPE   H6Y18848   2.620   3.535   7.355  1.1219  1.0678 -0.8095
  167SOPE   C3718849   2.445   3.544   7.459 -0.0551  0.8194 -0.9588
  167SOPE   H7X18850   2.442   3.433   7.468  0.3635  0.8129 -0.8962
  167SOPE   H7Y18851   2.340   3.578   7.449 -0.5716 -0.7999 -1.2017
  167SOPE   C3818852   2.525   3.607   7.573  0.1739  0.4085  0.7078
  167SOPE   H8X18853   2.539   3.714   7.549 -3.1006  0.5247 -1.0371
  167SOPE   H8Y18854   2.628   3.566   7.574 -0.0339 -0.1896 -0.9472
  167SOPE   C3918855   2.473   3.572   7.713  0.8037  0.1382  0.7157
  167SOPE   H9X18856   2.525   3.477   7.738 -0.1015 -0.8790 -1.1383
  167SOPE   H9Y18857   2.369   3.532   7.709  0.9853 -0.2192 -1.1212
  167SOPE  C31018858   2.492   3.696   7.805  0.1005 -0.1619  0.0544
  167SOPE  H10X18859   2.494   3.795   7.754  0.9854  0.2120  0.7979
  167SOPE  H10Y18860   2.597   3.680   7.839  0.0291 -0.4505  0.1410
  167SOPE  C31118861   2.385   3.693   7.907 -0.5560 -0.0003 -0.5001
  167SOPE  H11X18862   2.384   3.599   7.967  0.6252  0.3376  0.0679
  167SOPE  H11Y18863   2.296   3.702   7.842  1.3745  0.6532 -3.1134
  167SOPE  C31218864   2.377   3.804   8.004  0.3010  0.3803  0.2666
  167SOPE  H12X18865   2.283   3.814   8.063 -0.3598 -0.5186 -0.6225
  167SOPE  H12Y18866   2.374   3.894   7.939 -1.0043  1.0769  1.2816
  167SOPE  C31318867   2.500   3.817   8.088  0.1316  0.0013 -0.5377
  167SOPE  H13X18868   2.585   3.798   8.019  0.1440 -1.1898 -0.2157
  167SOPE  H13Y18869   2.504   3.739   8.167 -0.2685 -1.1780 -1.6575
  167SOPE  C31418870   2.507   3.947   8.165 -0.8403  0.6363 -0.1921
  167SOPE  H14X18871   2.480   4.031   8.097  1.6275 -0.8803 -3.2161
  167SOPE  H14Y18872   2.615   3.954   8.190 -0.4304 -0.4496 -1.5754
  167SOPE  C31518873   2.420   3.953   8.288  0.2428 -0.1500  0.2629
  167SOPE  H15X18874   2.429   3.854   8.339  0.6907 -0.1245  0.2319
  167SOPE  H15Y18875   2.314   3.952   8.254  0.2683 -2.0272  0.1489
  167SOPE  C31618876   2.463   4.061   8.372  0.3458  0.0467 -0.2157
  167SOPE  H16X18877   2.463   4.163   8.327 -0.5983  0.4452  0.6534
  167SOPE  H16Y18878   2.564   4.051   8.417 -0.5343 -0.4631  1.6963
  167SOPE  C31718879   2.369   4.076   8.492 -0.3363 -0.2471 -0.2993
  167SOPE  H17X18880   2.391   3.990   8.559  2.7161 -0.1886 -1.1781
  167SOPE  H17Y18881   2.262   4.068   8.464 -0.3214  0.8280 -0.6738
  167SOPE  C31818882   2.387   4.203   8.582 -0.6705 -0.1169  0.0609
  167SOPE  H18X18883   2.340   4.293   8.536 -3.3881 -1.4500  0.0813
  167SOPE  H18Y18884   2.491   4.207   8.619 -0.1145  0.2136 -1.4961
  167SOPE  H18Z18885   2.317   4.183   8.667  1.2935  1.3975  2.0942
  168SOPE     N18886   2.090   0.829   6.196 -0.1296 -0.3420 -0.3057
  168SOPE   HN118887   2.052   0.743   6.151 -0.8740 -0.3736  0.3642
  168SOPE   HN218888   2.015   0.871   6.255  0.6592  1.9208 -0.8441
  168SOPE   HN318889   2.098   0.898   6.119 -1.2954 -1.0027 -1.0340
  168SOPE   C1218890   2.229   0.818   6.262 -0.0143 -0.6180 -0.3791
  168SOPE  H12A18891   2.275   0.918   6.273 -0.2680 -0.5138 -0.2579
  168SOPE  H12B18892   2.293   0.767   6.187 -0.7552 -0.0982 -1.3700
  168SOPE   C1118893   2.210   0.744   6.391  0.0014  0.0606 -0.2586
  168SOPE  H11A18894   2.159   0.813   6.461  0.0545  0.6436 -0.7872
  168SOPE  H11B18895   2.306   0.722   6.441 -0.2385  0.3255  0.3155
  168SOPE     P18896   2.176   0.484   6.332  0.4036 -0.4164  0.0994
  168SOPE   O1318897   2.313   0.456   6.384 -0.5480  0.1709  0.0353
  168SOPE   O1418898   2.158   0.468   6.186 -0.3614  0.0827  0.5182
  168SOPE   O1218899   2.129   0.630   6.378  0.7358 -0.3273  0.1161
  168SOPE   O1118900   2.070   0.393   6.397 -0.1107 -0.5759  0.2508
  168SOPE    C118901   1.957   0.454   6.452 -0.1744  0.7474  0.4541
  168SOPE    HA18902   1.887   0.371   6.428  0.4413  0.5183 -0.5847
  168SOPE    HB18903   1.913   0.542   6.399 -1.7241 -0.2586  0.0458
  168SOPE    C218904   1.962   0.488   6.606  0.5634  0.1177 -0.3026
  168SOPE    HS18905   1.997   0.592   6.618 -1.6918  0.8041  0.6525
  168SOPE   O2118906   2.047   0.390   6.666 -0.2781  0.4457  0.2336
  168SOPE   C2118907   2.105   0.428   6.778 -0.2531  0.4325 -0.7057
  168SOPE   O2218908   2.071   0.527   6.842  0.1732  0.4816  0.5870
  168SOPE   C2218909   2.242   0.354   6.790  0.0322 -0.0715 -0.8635
  168SOPE   H2R18910   2.314   0.435   6.818 -0.9793  0.6672 -0.3693
  168SOPE   H2S18911   2.268   0.315   6.689  2.3576 -1.0881  0.1023
  168SOPE    C318912   1.816   0.481   6.663 -0.0638  0.3712  0.8220
  168SOPE    HX18913   1.772   0.381   6.643 -0.0897  0.0590  2.3804
  168SOPE    HY18914   1.760   0.556   6.602 -0.4146 -1.2290 -0.8785
  168SOPE   O3118915   1.800   0.528   6.801 -0.1921 -0.0245  0.0811
  168SOPE   C3118916   1.774   0.436   6.891  0.0902  0.1895 -0.5187
  168SOPE   O3218917   1.753   0.318   6.867 -0.4081 -0.0588  0.0671
  168SOPE   C3218918   1.795   0.500   7.027 -0.4978 -0.4916 -0.1823
  168SOPE   H2X18919   1.758   0.605   7.021 -0.1522 -0.4710 -2.5242
  168SOPE   H2Y18920   1.902   0.500   7.054  0.1559 -0.4624 -2.6730
  168SOPE   C2318921   2.242   0.238   6.904 -0.0305  0.1063  0.3138
  168SOPE   H3R18922   2.325   0.166   6.888  0.7563  0.9258  0.6740
  168SOPE   H3S18923   2.150   0.177   6.899  0.1342 -0.1842  0.8359
  168SOPE   C2418924   2.243   0.296   7.046  0.5169  0.8485 -0.3018
  168SOPE   H4R18925   2.342   0.348   7.050  1.6273 -1.1487 -1.0590
  168SOPE   H4S18926   2.155   0.362   7.054  0.7243  1.3001 -1.5815
  168SOPE   C2518927   2.239   0.207   7.169 -0.3983 -0.2042  0.0165
  168SOPE   H5R18928   2.140   0.168   7.202 -0.3997 -1.6227 -1.5974
  168SOPE   H5S18929   2.300   0.116   7.153 -2.1004 -0.8894 -2.8433
  168SOPE   C2618930   2.311   0.262   7.290  0.4170 -0.3702 -0.2273
  168SOPE   H6R18931   2.397   0.319   7.249 -0.9385  1.4120 -0.6485
  168SOPE   H6S18932   2.233   0.334   7.324 -0.0379 -0.7400 -0.4829
  168SOPE   C2718933   2.357   0.159   7.398  0.0526 -0.2348  0.5998
  168SOPE   H7R18934   2.272   0.088   7.411 -1.1783  0.5404 -2.6774
  168SOPE   H7S18935   2.442   0.111   7.345  1.4867  1.5959  1.2104
  168SOPE   C2818936   2.401   0.218   7.532 -0.3975 -0.4199  0.9559
  168SOPE   H8R18937   2.422   0.127   7.593  1.8542 -0.3819  0.2851
  168SOPE   H8S18938   2.485   0.287   7.514 -2.3763  1.2856 -2.1493
  168SOPE   C2918939   2.292   0.283   7.612 -0.2861  0.1378 -0.0012
  168SOPE   H9118940   2.239   0.350   7.543  0.2680 -1.3251 -1.9018
  168SOPE  C21018941   2.268   0.282   7.743  0.6306  0.4556  0.1777
  168SOPE  H10118942   2.183   0.332   7.792 -0.9861 -1.6059 -0.3954
  168SOPE  C21118943   2.352   0.212   7.845  0.2384 -0.1101  0.2119
  168SOPE  H11R18944   2.407   0.130   7.794  0.0771  0.0580 -0.2395
  168SOPE  H11S18945   2.296   0.156   7.923 -1.5470  0.3984 -0.6719
  168SOPE  C21218946   2.439   0.308   7.918 -0.3817 -1.2897  0.8402
  168SOPE  H12R18947   2.385   0.394   7.964  1.1862  0.2702 -0.1883
  168SOPE  H12S18948   2.511   0.354   7.847 -0.4630 -1.0928  0.8850
  168SOPE  C21318949   2.519   0.252   8.040 -0.0465  0.0872  0.2821
  168SOPE  H13R18950   2.572   0.162   8.004  0.8958  0.2811  1.1642
  168SOPE  H13S18951   2.437   0.216   8.105 -1.1538  1.4000 -0.3574
  168SOPE  C21418952   2.595   0.360   8.114 -0.8976 -0.3389  0.4341
  168SOPE  H14R18953   2.524   0.445   8.115 -1.4611 -0.8004  0.6318
  168SOPE  H14S18954   2.684   0.394   8.058 -2.2509  1.8923 -0.4464
  168SOPE  C21518955   2.656   0.311   8.251  0.3417 -0.0356 -0.5776
  168SOPE  H15R18956   2.713   0.402   8.278  0.2816  0.4482 -2.0321
  168SOPE  H15S18957   2.714   0.219   8.231  0.9267 -0.2162  1.7956
  168SOPE  C21618958   2.565   0.286   8.369  0.6484 -0.2039 -0.1852
  168SOPE  H16R18959   2.474   0.225   8.353 -0.2740  0.9276  0.6127
  168SOPE  H16S18960   2.534   0.390   8.395 -0.3622 -0.2881 -1.0212
  168SOPE  C21718961   2.641   0.227   8.482 -0.1781 -0.7572 -0.7357
  168SOPE  H17R18962   2.693   0.135   8.449  0.8381 -0.5160  0.1343
  168SOPE  H17S18963   2.584   0.188   8.569  0.8880  2.6481  1.6084
  168SOPE  C21818964   2.749   0.328   8.538 -0.4279  0.8427 -0.1850
  168SOPE  H18R18965   2.831   0.340   8.464 -2.5465  2.1295 -2.4391
  168SOPE  H18S18966   2.792   0.291   8.633  0.0936  1.3646 -0.2140
  168SOPE  H18T18967   2.706   0.427   8.567 -0.7056  0.9228 -0.8547
  168SOPE   C3318968   1.723   0.418   7.134 -0.2382  0.5653 -0.5768
  168SOPE   H3X18969   1.744   0.311   7.112  0.9286  0.6899 -0.1071
  168SOPE   H3Y18970   1.614   0.436   7.123 -0.4211  0.3299  0.7417
  168SOPE   C3418971   1.762   0.459   7.282 -0.3960  0.1351 -0.2572
  168SOPE   H4X18972   1.677   0.417   7.340  0.2022 -2.6729 -1.3579
  168SOPE   H4Y18973   1.762   0.570   7.292 -1.3910  0.0428  0.9034
  168SOPE   C3518974   1.893   0.386   7.324  0.6197 -0.2072 -0.0602
  168SOPE   H5X18975   1.975   0.413   7.255  1.0204  1.5935  1.0656
  168SOPE   H5Y18976   1.866   0.279   7.310  0.6097 -0.2285  0.1201
  168SOPE   C3618977   1.924   0.417   7.474 -0.1673 -0.0369 -1.1197
  168SOPE   H6X18978   1.929   0.527   7.487  1.7198  0.0641 -2.4584
  168SOPE   H6Y18979   2.026   0.381   7.499  0.5369  2.2764 -0.5643
  168SOPE   C3718980   1.821   0.353   7.570 -0.3777 -0.0679  0.1927
  168SOPE   H7X18981   1.786   0.262   7.516  2.5347  0.6760 -3.1559
  168SOPE   H7Y18982   1.737   0.426   7.570 -1.5052 -1.3292 -0.1586
  168SOPE   C3818983   1.892   0.308   7.702  0.4130 -0.3537  0.0961
  168SOPE   H8X18984   1.954   0.394   7.736  0.5402 -0.7506  0.8909
  168SOPE   H8Y18985   1.964   0.225   7.685  0.3739 -0.3852  0.0846
  168SOPE   C3918986   1.794   0.257   7.798 -0.8050  0.0229  0.2236
  168SOPE   H9X18987   1.721   0.182   7.761 -0.9078 -0.3198  1.1096
  168SOPE   H9Y18988   1.727   0.343   7.823 -1.8632 -1.1308  1.4404
  168SOPE  C31018989   1.858   0.194   7.918 -0.0542  0.3228  0.2641
  168SOPE  H10X18990   1.948   0.253   7.946  2.0601 -1.8316 -1.6643
  168SOPE  H10Y18991   1.895   0.094   7.886  2.7807  1.0743  1.0222
  168SOPE  C31118992   1.765   0.187   8.036  0.7592  0.4913  0.1029
  168SOPE  H11X18993   1.684   0.111   8.033 -0.9219  2.2586 -1.0849
  168SOPE  H11Y18994   1.713   0.284   8.048  0.4267  0.1339  1.6361
  168SOPE  C31218995   1.844   0.163   8.163 -0.0397  0.8760  0.0321
  168SOPE  H12X18996   1.908   0.253   8.177  1.0492 -0.1262  1.5803
  168SOPE  H12Y18997   1.910   0.076   8.148 -0.0684  0.3680  2.7528
  168SOPE  C31318998   1.756   0.152   8.288 -0.8000 -0.5001  0.3567
  168SOPE  H13X18999   1.684   0.068   8.273  0.8343 -1.5448 -2.0249
  168SOPE  H13Y19000   1.708   0.251   8.275  1.5729  0.9598  2.3128
  168SOPE  C31419001   1.818   0.137   8.425  0.3343  0.6965 -0.6001
  168SOPE  H14X19002   1.740   0.110   8.500 -0.7376  1.5661 -1.3814
  168SOPE  H14Y19003   1.855   0.236   8.459 -2.4959  2.5762 -2.7645
  168SOPE  C31519004   1.927   0.033   8.421 -0.9231  0.0811 -0.9169
  168SOPE  H15X19005   2.002   0.065   8.346  1.0996  0.9447  1.4079
  168SOPE  H15Y19006   1.899  -0.067   8.381 -0.4427 -0.8928  1.1346
  168SOPE  C31619007   2.004   0.018   8.548  0.1722  0.1709 -0.8821
  168SOPE  H16X19008   1.936  -0.019   8.628 -0.6279 -0.2525 -1.7558
  168SOPE  H16Y19009   2.022   0.116   8.598 -2.6166  0.1085  0.3652
  168SOPE  C31719010   2.134  -0.059   8.525  0.5983 -0.4362 -0.5720
  168SOPE  H17X19011   2.192  -0.019   8.439  0.6718 -1.1171 -0.8394
  168SOPE  H17Y19012   2.117  -0.161   8.484 -0.5977  0.3298 -2.0075
  168SOPE  C31819013   2.221  -0.066   8.657 -0.4191  0.4847  0.4224
  168SOPE  H18X19014   2.306  -0.134   8.635  0.4849  2.3741 -2.1546
  168SOPE  H18Y19015   2.158  -0.111   8.737 -0.0296 -0.4796  0.1902
  168SOPE  H18Z19016   2.262   0.029   8.697 -0.1319  0.4311  0.2531
  169SOPE     N19017   4.477   2.788   6.154  0.4989  0.4202 -0.4830
  169SOPE   HN119018   4.502   2.872   6.098 -0.6170  2.2646  1.7100
  169SOPE   HN219019   4.376   2.795   6.175  0.1836  1.1509 -2.1474
  169SOPE   HN319020   4.539   2.784   6.238  0.1241  1.3887 -0.1518
  169SOPE   C1219021   4.496   2.660   6.081  0.3510  0.0479 -0.0422
  169SOPE  H12A19022   4.601   2.642   6.049  0.4079 -0.2168  0.2841
  169SOPE  H12B19023   4.430   2.663   5.992  1.4391 -1.9802 -0.9390
  169SOPE   C1119024   4.450   2.542   6.172 -0.1017 -0.2429 -0.0364
  169SOPE  H11A19025   4.444   2.449   6.112 -0.0836  0.3965 -1.0489
  169SOPE  H11B19026   4.346   2.564   6.204  0.0309 -1.5542  1.3673
  169SOPE     P19027   4.515   2.398   6.383 -0.0704  0.4781  0.2446
  169SOPE   O1319028   4.607   2.404   6.497 -0.3143 -0.2208  0.3604
  169SOPE   O1419029   4.527   2.276   6.294  0.1814 -0.4670  0.6089
  169SOPE   O1219030   4.543   2.520   6.287 -0.0616  0.0314 -0.1439
  169SOPE   O1119031   4.370   2.390   6.430 -0.2595 -0.1610  0.0102
  169SOPE    C119032   4.326   2.495   6.517  0.9165 -0.3226 -0.1919
  169SOPE    HA19033   4.219   2.511   6.489  0.7799  1.1073  1.0688
  169SOPE    HB19034   4.368   2.596   6.500 -0.3476  0.5229  1.5964
  169SOPE    C219035   4.345   2.457   6.666  0.5273  0.9946 -0.3609
  169SOPE    HS19036   4.454   2.443   6.679  0.8572  2.2994 -1.5214
  169SOPE   O2119037   4.266   2.341   6.691 -0.4547  0.0699  0.0348
  169SOPE   C2119038   4.315   2.274   6.798 -0.1772 -0.7048  0.6578
  169SOPE   O2219039   4.419   2.291   6.856  0.0320  0.7269 -0.0613
  169SOPE   C2219040   4.214   2.159   6.824 -0.3274 -0.6011  0.0210
  169SOPE   H2R19041   4.276   2.085   6.880  1.5538 -1.4057 -3.0174
  169SOPE   H2S19042   4.201   2.099   6.731 -0.4684  0.2473 -0.5086
  169SOPE    C319043   4.297   2.579   6.753 -0.0492 -0.0143  0.0506
  169SOPE    HX19044   4.191   2.597   6.723 -0.3242  1.3417  1.8118
  169SOPE    HY19045   4.359   2.666   6.721 -2.1187  1.0632 -1.1494
  169SOPE   O3119046   4.290   2.562   6.897  0.0450 -0.1135 -0.5269
  169SOPE   C3119047   4.404   2.572   6.957  0.1079 -0.1992 -0.2497
  169SOPE   O3219048   4.506   2.605   6.900  0.2971 -0.4099 -0.0221
  169SOPE   C3219049   4.385   2.532   7.101 -0.8841 -0.2057  0.4230
  169SOPE   H2X19050   4.345   2.428   7.110 -3.6640  1.0383  3.7702
  169SOPE   H2Y19051   4.311   2.603   7.143 -1.4291 -0.8098  0.4963
  169SOPE   C2319052   4.090   2.207   6.889  0.3986 -0.3760 -0.0385
  169SOPE   H3R19053   4.018   2.123   6.886 -0.1527  0.0970 -0.5013
  169SOPE   H3S19054   4.045   2.283   6.821  0.4162 -0.1840  0.1630
  169SOPE   C2419055   4.117   2.268   7.025  0.3676 -0.7697  0.3321
  169SOPE   H4R19056   4.201   2.341   7.017  0.6840 -0.9033  2.2829
  169SOPE   H4S19057   4.028   2.326   7.057  0.2034 -0.5856 -0.4521
  169SOPE   C2519058   4.150   2.157   7.124  0.0585  0.0925  0.7340
  169SOPE   H5R19059   4.083   2.071   7.098  0.7354  0.1863 -1.3942
  169SOPE   H5S19060   4.257   2.132   7.109 -0.3390 -3.6037  3.3311
  169SOPE   C2619061   4.139   2.208   7.270  0.5567  0.6719  0.3585
  169SOPE   H6R19062   4.206   2.293   7.293 -1.3122  1.2279  4.1158
  169SOPE   H6S19063   4.034   2.233   7.294  0.6606  1.3248  0.1378
  169SOPE   C2719064   4.171   2.090   7.361 -0.1166  0.1802 -0.0787
  169SOPE   H7R19065   4.083   2.024   7.377  0.6471 -1.1526 -1.3514
  169SOPE   H7S19066   4.244   2.033   7.301 -0.8227  0.3632 -1.1332
  169SOPE   C2819067   4.229   2.149   7.494  0.1652 -0.7278 -0.3869
  169SOPE   H8R19068   4.311   2.217   7.464 -1.1067  0.2024 -1.7817
  169SOPE   H8S19069   4.159   2.216   7.549 -0.0998 -1.6217  0.3962
  169SOPE   C2919070   4.282   2.041   7.573  0.4184 -0.5350 -0.2290
  169SOPE   H9119071   4.350   1.975   7.517 -0.4244 -0.1458 -1.7193
  169SOPE  C21019072   4.243   2.013   7.704 -0.3790  0.1535  0.3788
  169SOPE  H10119073   4.292   1.925   7.749 -1.2483 -0.9654 -0.7898
  169SOPE  C21119074   4.155   2.098   7.795  0.3561 -0.8628 -0.6954
  169SOPE  H11R19075   4.083   2.027   7.841 -0.5368  0.5261  0.0750
  169SOPE  H11S19076   4.095   2.173   7.739 -0.2672 -1.7537 -1.2380
  169SOPE  C21219077   4.232   2.170   7.903 -0.0575 -0.6755  0.9672
  169SOPE  H12R19078   4.285   2.258   7.863 -2.4080  0.9759  1.3901
  169SOPE  H12S19079   4.300   2.104   7.961 -2.4202 -2.0469  2.2776
  169SOPE  C21319080   4.142   2.235   8.009 -0.8253  0.1781  0.4258
  169SOPE  H13R19081   4.053   2.288   7.968 -1.8524 -2.8010 -1.3167
  169SOPE  H13S19082   4.208   2.301   8.070  0.4692  0.2759 -1.0313
  169SOPE  C21419083   4.090   2.131   8.116 -0.4756 -0.4651 -0.4168
  169SOPE  H14R19084   4.175   2.103   8.181 -0.5617  2.4710  1.0765
  169SOPE  H14S19085   4.047   2.042   8.066 -1.8663  0.8012 -1.5453
  169SOPE  C21519086   3.989   2.202   8.204  0.3115  0.4346  0.9526
  169SOPE  H15R19087   3.894   2.208   8.148  0.1971 -1.4948  0.9091
  169SOPE  H15S19088   4.025   2.306   8.222  1.3708  0.1318  0.6366
  169SOPE  C21619089   3.941   2.145   8.335  0.0775 -0.1094 -0.4669
  169SOPE  H16R19090   4.033   2.115   8.389 -0.1230 -1.3135 -0.7826
  169SOPE  H16S19091   3.889   2.050   8.310  0.5646 -0.5257  0.0855
  169SOPE  C21719092   3.855   2.234   8.420 -0.0109  0.2957  0.4171
  169SOPE  H17R19093   3.768   2.270   8.361  1.2040  1.2876 -0.7986
  169SOPE  H17S19094   3.910   2.325   8.450  0.3501  0.2231 -0.0245
  169SOPE  C21819095   3.798   2.169   8.547 -0.0175 -0.1052  0.0867
  169SOPE  H18R19096   3.725   2.088   8.527  0.9303 -1.2789  1.2484
  169SOPE  H18S19097   3.750   2.240   8.617  1.3035 -0.5565  1.4733
  169SOPE  H18T19098   3.889   2.139   8.604  0.5443 -1.0817 -1.3115
  169SOPE   C3319099   4.516   2.536   7.176  0.1127  0.0570  0.5181
  169SOPE   H3X19100   4.564   2.636   7.179  0.5451 -0.1266 -0.0850
  169SOPE   H3Y19101   4.578   2.459   7.124 -2.0432 -1.8352  0.6415
  169SOPE   C3419102   4.499   2.489   7.320  0.2439 -0.7941 -0.4285
  169SOPE   H4X19103   4.600   2.489   7.365  0.0334  0.3300  0.0544
  169SOPE   H4Y19104   4.435   2.399   7.335 -0.5529 -0.1861 -0.1321
  169SOPE   C3519105   4.420   2.596   7.413 -0.7269  0.4748  0.3606
  169SOPE   H5X19106   4.316   2.604   7.375 -0.2515  1.1483 -0.8120
  169SOPE   H5Y19107   4.475   2.693   7.405 -0.8905  0.6521  1.3361
  169SOPE   C3619108   4.411   2.561   7.557 -0.0916  0.0648 -0.1761
  169SOPE   H6X19109   4.352   2.468   7.568 -0.4487  0.3461  0.3039
  169SOPE   H6Y19110   4.353   2.640   7.608  1.4409  1.3479 -0.3642
  169SOPE   C3719111   4.550   2.537   7.620 -0.8557  0.6475 -0.0300
  169SOPE   H7X19112   4.628   2.593   7.564  0.3830 -0.7864  0.2167
  169SOPE   H7Y19113   4.570   2.430   7.597  0.0630  1.0032 -0.9066
  169SOPE   C3819114   4.570   2.574   7.765  0.1432 -0.2038 -0.2489
  169SOPE   H8X19115   4.670   2.543   7.804  1.1632 -1.2442 -3.5664
  169SOPE   H8Y19116   4.551   2.683   7.782 -1.2718 -0.3733 -0.7135
  169SOPE   C3919117   4.464   2.499   7.862  0.1354 -0.3625 -0.1470
  169SOPE   H9X19118   4.491   2.391   7.869 -0.5360 -0.4627  1.1098
  169SOPE   H9Y19119   4.362   2.517   7.822  0.3552  4.7785  1.3076
  169SOPE  C31019120   4.476   2.560   8.005  0.0021 -0.6332 -0.3835
  169SOPE  H10X19121   4.375   2.542   8.047  0.4167  2.4231  2.1438
  169SOPE  H10Y19122   4.485   2.671   8.001 -0.7457 -0.5678 -0.3997
  169SOPE  C31119123   4.587   2.506   8.111 -0.0275 -0.0998 -0.1159
  169SOPE  H11X19124   4.678   2.568   8.099  0.9860 -1.8557 -1.6287
  169SOPE  H11Y19125   4.604   2.401   8.079 -1.4164 -0.0300 -1.1426
  169SOPE  C31219126   4.532   2.486   8.253  0.1354  0.4135 -0.7596
  169SOPE  H12X19127   4.618   2.448   8.313 -0.3917  0.1907 -0.1408
  169SOPE  H12Y19128   4.449   2.413   8.251  2.7670 -2.7241  0.8316
  169SOPE  C31319129   4.487   2.612   8.324 -0.1573 -0.5686 -0.5141
  169SOPE  H13X19130   4.388   2.644   8.284 -0.3237 -1.2769 -0.6870
  169SOPE  H13Y19131   4.561   2.694   8.317  0.3320 -0.8835  0.7939
  169SOPE  C31419132   4.440   2.596   8.469  0.0003 -0.9063  0.3381
  169SOPE  H14X19133   4.401   2.697   8.497 -1.1147 -1.2631  0.0925
  169SOPE  H14Y19134   4.527   2.563   8.530  0.2876 -1.1393 -0.1970
  169SOPE  C31519135   4.315   2.506   8.475 -0.1874  0.4083 -0.4636
  169SOPE  H15X19136   4.347   2.400   8.459  0.3958  0.2149  1.8250
  169SOPE  H15Y19137   4.242   2.534   8.396  1.4336 -1.6283 -2.7878
  169SOPE  C31619138   4.243   2.528   8.606  0.3677  0.7806  0.2435
  169SOPE  H16X19139   4.322   2.544   8.682  1.0879  0.6368 -0.4780
  169SOPE  H16Y19140   4.189   2.434   8.631 -1.2531  1.4424 -0.7127
  169SOPE  C31719141   4.141   2.645   8.609 -0.1814 -0.4246  0.3294
  169SOPE  H17X19142   4.194   2.740   8.587  0.1564 -0.3829  1.3116
  169SOPE  H17Y19143   4.104   2.641   8.713  0.2689 -0.6503  0.4826
  169SOPE  C31819144   4.025   2.625   8.508 -0.1323 -0.3322  0.0638
  169SOPE  H18X19145   3.945   2.701   8.518 -0.3440 -0.5898  0.3338
  169SOPE  H18Y19146   3.975   2.528   8.528  0.2328 -0.0180  2.6325
  169SOPE  H18Z19147   4.059   2.625   8.402  0.0114  1.8723  0.0825
  170SOPE     N19148   5.027   1.716   6.253  0.2100  0.0675 -0.3144
  170SOPE   HN119149   5.024   1.814   6.216 -0.9407  0.3978  0.5871
  170SOPE   HN219150   5.053   1.658   6.171  2.2282 -0.7507  0.8703
  170SOPE   HN319151   4.925   1.698   6.266  0.0551 -0.0122 -1.5871
  170SOPE   C1219152   5.122   1.696   6.365  0.0852 -0.3449  0.1523
  170SOPE  H12A19153   5.140   1.789   6.423 -0.1507 -0.1264 -0.1248
  170SOPE  H12B19154   5.213   1.668   6.309  0.2071  0.6406 -0.1404
  170SOPE   C1119155   5.073   1.583   6.456 -0.6981 -0.4164  0.9191
  170SOPE  H11A19156   4.972   1.608   6.497 -0.4936 -0.2170  1.2975
  170SOPE  H11B19157   5.136   1.556   6.543  2.4949 -0.0746 -1.2239
  170SOPE     P19158   5.158   1.347   6.387 -0.2716  0.6395 -0.4561
  170SOPE   O1319159   5.295   1.406   6.389  0.0393 -0.2783 -0.0736
  170SOPE   O1419160   5.127   1.248   6.279 -0.1042  0.1590  0.3424
  170SOPE   O1219161   5.049   1.462   6.388  0.7093 -0.2167 -0.2002
  170SOPE   O1119162   5.130   1.268   6.525  0.0815  0.5845  0.1919
  170SOPE    C119163   5.004   1.207   6.555 -0.2519 -0.0566 -0.5737
  170SOPE    HA19164   5.000   1.107   6.507 -0.1425  0.4644 -1.6885
  170SOPE    HB19165   4.925   1.265   6.503  1.0887 -1.0801 -3.9005
  170SOPE    C219166   4.984   1.188   6.710 -0.6336 -0.0092 -0.0206
  170SOPE    HS19167   4.969   1.292   6.747 -1.5033 -0.2191  0.2245
  170SOPE   O2119168   5.100   1.123   6.764  0.3082 -0.1660 -0.3829
  170SOPE   C2119169   5.177   1.194   6.845 -0.5980 -0.7019 -0.4789
  170SOPE   O2219170   5.159   1.313   6.867 -0.0732 -0.0981 -0.2179
  170SOPE   C2219171   5.295   1.109   6.890  0.0265 -0.5535 -0.1507
  170SOPE   H2R19172   5.351   1.086   6.797 -1.8686  0.3684 -1.5716
  170SOPE   H2S19173   5.251   1.015   6.929 -1.3254 -0.4490 -1.3788
  170SOPE    C319174   4.850   1.112   6.738  0.3890  0.4570  0.2360
  170SOPE    HX19175   4.878   1.011   6.701  1.1073  0.8086 -0.1948
  170SOPE    HY19176   4.759   1.150   6.687  0.4140  0.8896  0.5102
  170SOPE   O3119177   4.836   1.110   6.882 -0.1466 -0.0113 -0.4764
  170SOPE   C3119178   4.779   1.215   6.941 -0.1111 -0.0030 -0.2026
  170SOPE   O3219179   4.736   1.314   6.878  0.0950  0.9758  0.1417
  170SOPE   C3219180   4.778   1.199   7.088  0.4087 -0.5227 -0.4885
  170SOPE   H2X19181   4.841   1.278   7.134 -0.5294 -0.8754  1.4925
  170SOPE   H2Y19182   4.824   1.099   7.104  1.5337  0.0227 -0.2577
  170SOPE   C2319183   5.391   1.174   6.986  0.2820  0.3598  0.2540
  170SOPE   H3R19184   5.441   1.268   6.953 -1.2656  0.4298 -1.9795
  170SOPE   H3S19185   5.468   1.096   7.004  0.2605  0.0831 -0.8196
  170SOPE   C2419186   5.322   1.208   7.128 -0.4280 -0.4828 -0.0430
  170SOPE   H4R19187   5.228   1.266   7.118  0.0164  0.0117 -1.3986
  170SOPE   H4S19188   5.305   1.124   7.199 -0.1481 -1.6870 -1.3884
  170SOPE   C2519189   5.409   1.295   7.223  0.2362 -0.5369 -0.8864
  170SOPE   H5R19190   5.490   1.232   7.267 -0.6317 -2.0437 -1.3840
  170SOPE   H5S19191   5.460   1.377   7.168 -1.9778  0.6722 -1.1768
  170SOPE   C2619192   5.326   1.368   7.337 -0.2162 -0.1825 -0.1732
  170SOPE   H6R19193   5.253   1.435   7.285  1.0124 -0.6272 -2.5541
  170SOPE   H6S19194   5.258   1.295   7.385 -1.7978 -0.1765 -2.3647
  170SOPE   C2719195   5.414   1.452   7.430  0.1926 -0.1979  0.6793
  170SOPE   H7R19196   5.502   1.392   7.461  0.9956  0.9690  0.6887
  170SOPE   H7S19197   5.458   1.534   7.368  2.4428  0.5293  3.1200
  170SOPE   C2819198   5.325   1.512   7.535 -0.4563  0.1229  0.7512
  170SOPE   H8R19199   5.244   1.573   7.490 -1.2057  0.0444  1.9828
  170SOPE   H8S19200   5.268   1.431   7.586 -0.2607  0.4239  1.4605
  170SOPE   C2919201   5.405   1.599   7.632  0.1232 -0.1804  0.1273
  170SOPE   H9119202   5.432   1.697   7.590 -2.1120  0.2012 -0.4724
  170SOPE  C21019203   5.432   1.580   7.759 -0.3754 -0.2493 -0.3227
  170SOPE  H10119204   5.500   1.653   7.805 -1.5910 -0.2007  1.4655
  170SOPE  C21119205   5.377   1.463   7.842  0.0910  0.0899 -0.3467
  170SOPE  H11R19206   5.380   1.368   7.785  0.4886  0.2372 -0.5740
  170SOPE  H11S19207   5.272   1.480   7.876 -0.8515 -1.0196 -2.5682
  170SOPE  C21219208   5.469   1.447   7.962 -0.6368 -0.8393 -0.1921
  170SOPE  H12R19209   5.478   1.547   8.010  1.5073 -1.7663  1.3852
  170SOPE  H12S19210   5.572   1.423   7.927  0.5914  2.3192  1.0491
  170SOPE  C21319211   5.419   1.345   8.063 -0.8296 -0.2888  0.6931
  170SOPE  H13R19212   5.431   1.246   8.013  1.5936  0.5247 -0.4361
  170SOPE  H13S19213   5.312   1.357   8.089 -0.7643 -0.8322  1.2453
  170SOPE  C21419214   5.500   1.337   8.196 -0.2924  0.0117 -0.3773
  170SOPE  H14R19215   5.599   1.289   8.178  0.2069  0.5533  0.8856
  170SOPE  H14S19216   5.460   1.262   8.267  0.8142 -0.3919 -0.1691
  170SOPE  C21519217   5.528   1.465   8.279 -1.1305  0.5546  0.8577
  170SOPE  H15R19218   5.440   1.530   8.301 -0.3024  1.4142  1.7302
  170SOPE  H15S19219   5.603   1.526   8.224  1.2298 -1.9054  1.2093
  170SOPE  C21619220   5.577   1.421   8.413  0.1103  0.1527  0.4665
  170SOPE  H16R19221   5.659   1.347   8.400  2.8697  3.2780 -0.7492
  170SOPE  H16S19222   5.490   1.378   8.467  0.7597 -0.2874  1.1653
  170SOPE  C21719223   5.635   1.538   8.491 -0.8903 -0.3073  0.3117
  170SOPE  H17R19224   5.727   1.582   8.448 -0.5895 -0.7452  0.5004
  170SOPE  H17S19225   5.664   1.498   8.591  1.0500 -3.2839 -1.3531
  170SOPE  C21819226   5.536   1.658   8.506 -0.5074 -0.0536  0.2062
  170SOPE  H18R19227   5.438   1.606   8.499 -0.0619 -0.9836  0.7102
  170SOPE  H18S19228   5.552   1.731   8.424  0.6870 -1.3150 -0.7216
  170SOPE  H18T19229   5.554   1.701   8.607  1.0645 -2.5262  1.0313
  170SOPE   C3319230   4.629   1.213   7.136  0.4943 -0.0224  0.6906
  170SOPE   H3X19231   4.562   1.156   7.068  0.7167  0.8686 -0.2818
  170SOPE   H3Y19232   4.593   1.317   7.123  1.8560  0.6410  2.1622
  170SOPE   C3419233   4.620   1.162   7.285  0.1362  0.4924  0.3857
  170SOPE   H4X19234   4.687   1.077   7.308  0.1211  0.8554  1.8341
  170SOPE   H4Y19235   4.516   1.124   7.293  0.5269 -0.4264  1.1477
  170SOPE   C3519236   4.657   1.259   7.391  0.0991 -0.2733  0.1776
  170SOPE   H5X19237   4.582   1.342   7.388  0.4367  0.0025 -0.9320
  170SOPE   H5Y19238   4.757   1.300   7.366 -0.4169  0.6410 -0.4480
  170SOPE   C3619239   4.672   1.191   7.526 -0.4649 -0.0577 -0.4918
  170SOPE   H6X19240   4.742   1.105   7.528  0.0384  0.3417 -0.8576
  170SOPE   H6Y19241   4.571   1.160   7.561 -0.2428  1.5258  1.6494
  170SOPE   C3719242   4.725   1.297   7.626  0.1462 -0.1617 -1.0170
  170SOPE   H7X19243   4.688   1.401   7.621  0.9785  0.0746 -3.0665
  170SOPE   H7Y19244   4.835   1.302   7.609  0.2538 -0.7904 -0.5216
  170SOPE   C3819245   4.704   1.255   7.773 -0.0161  0.8634 -0.1047
  170SOPE   H8X19246   4.773   1.321   7.831  0.7958  0.6614 -0.8420
  170SOPE   H8Y19247   4.742   1.152   7.785  2.8091  2.0108  1.2636
  170SOPE   C3919248   4.560   1.255   7.830  0.0577 -0.7890 -0.0075
  170SOPE   H9X19249   4.485   1.239   7.749 -0.1958 -1.7175  0.4046
  170SOPE   H9Y19250   4.533   1.355   7.870  2.3528  0.0716 -0.5504
  170SOPE  C31019251   4.542   1.158   7.948 -0.5122 -0.6848  0.3789
  170SOPE  H10X19252   4.624   1.173   8.020 -1.7512 -0.2367  1.7273
  170SOPE  H10Y19253   4.559   1.056   7.908 -2.4814 -0.1979 -1.8552
  170SOPE  C31119254   4.406   1.174   8.018  0.7261 -0.3173  0.2110
  170SOPE  H11X19255   4.378   1.084   8.078  0.0094 -0.7505 -0.7688
  170SOPE  H11Y19256   4.327   1.192   7.943 -0.8022 -0.9902  1.6082
  170SOPE  C31219257   4.406   1.287   8.126  0.2324 -0.0416 -0.5054
  170SOPE  H12X19258   4.439   1.389   8.099 -2.0464  0.7995 -0.1941
  170SOPE  H12Y19259   4.480   1.258   8.204  0.1609 -0.1974 -0.4938
  170SOPE  C31319260   4.265   1.280   8.190  0.4400  0.2162  0.0521
  170SOPE  H13X19261   4.234   1.181   8.228  0.9052  0.8986  2.3395
  170SOPE  H13Y19262   4.196   1.301   8.106  1.6012  2.5751 -0.3710
  170SOPE  C31419263   4.246   1.387   8.296 -0.3106 -0.0061  0.3247
  170SOPE  H14X19264   4.279   1.487   8.261  0.0698 -1.1627 -2.7964
  170SOPE  H14Y19265   4.289   1.360   8.395 -0.9909 -0.1896  0.5758
  170SOPE  C31519266   4.097   1.413   8.331 -0.0083  0.2193 -0.7476
  170SOPE  H15X19267   4.036   1.441   8.242  0.5527  3.2912 -0.2401
  170SOPE  H15Y19268   4.086   1.485   8.415 -2.9915 -0.5919 -0.3683
  170SOPE  C31619269   4.018   1.288   8.383  0.0935 -0.2151  0.5079
  170SOPE  H16X19270   4.089   1.240   8.454  0.9462 -0.2165 -0.3323
  170SOPE  H16Y19271   4.015   1.210   8.304  3.3706 -0.0852  0.1834
  170SOPE  C31719272   3.886   1.319   8.445  0.2493  0.4866 -0.1019
  170SOPE  H17X19273   3.825   1.356   8.360 -0.3137  2.3216  1.0763
  170SOPE  H17Y19274   3.884   1.401   8.520  1.5738 -1.0415  1.6563
  170SOPE  C31819275   3.806   1.200   8.498  0.2912 -0.1681  0.1825
  170SOPE  H18X19276   3.823   1.104   8.444 -1.6281 -0.1213 -0.5561
  170SOPE  H18Y19277   3.698   1.226   8.501  0.3800  0.1061  0.8318
  170SOPE  H18Z19278   3.834   1.179   8.603  0.1370  0.5038  0.3506
  171SOPE     N19279   5.481   4.228   6.442  0.3550  0.4898  0.2239
  171SOPE   HN119280   5.585   4.228   6.435  0.5084  0.1222  2.3095
  171SOPE   HN219281   5.451   4.162   6.368 -0.0239  1.7621 -0.7756
  171SOPE   HN319282   5.452   4.319   6.401  2.0489  0.5152 -0.9465
  171SOPE   C1219283   5.417   4.192   6.575 -1.0349 -0.1912 -0.7363
  171SOPE  H12A19284   5.419   4.284   6.637  0.9278  0.0929 -1.2079
  171SOPE  H12B19285   5.485   4.113   6.612 -0.6873  1.1919  1.6218
  171SOPE   C1119286   5.273   4.137   6.558  0.5867  0.2274  0.2588
  171SOPE  H11A19287   5.209   4.228   6.550 -0.1207 -0.0221  2.6748
  171SOPE  H11B19288   5.241   4.075   6.645  3.1883 -0.0596  1.0599
  171SOPE     P19289   5.128   3.989   6.389 -0.2841  0.2826 -0.1755
  171SOPE   O1319290   5.172   3.899   6.277 -0.2202 -0.0158 -0.2350
  171SOPE   O1419291   5.012   4.078   6.359  0.2827 -0.1364  0.0167
  171SOPE   O1219292   5.259   4.062   6.436 -0.3274  0.2338 -0.0916
  171SOPE   O1119293   5.089   3.898   6.511 -0.2940 -0.4231  0.5915
  171SOPE    C119294   5.186   3.793   6.543  0.4646 -0.5239  0.0426
  171SOPE    HA19295   5.291   3.829   6.551  0.8211 -0.9799 -2.3266
  171SOPE    HB19296   5.182   3.707   6.473  0.6747 -1.0527  0.6683
  171SOPE    C219297   5.157   3.724   6.683 -0.2340  0.1570 -0.0673
  171SOPE    HS19298   5.056   3.683   6.660  0.0783  0.5671 -2.3055
  171SOPE   O2119299   5.157   3.825   6.784 -0.1797  0.0401 -0.0504
  171SOPE   C2119300   5.094   3.798   6.899 -0.0054  0.1579  0.6131
  171SOPE   O2219301   5.035   3.695   6.923  0.4940 -0.4691 -0.0854
  171SOPE   C2219302   5.096   3.936   6.978  0.3405  0.2734  0.0134
  171SOPE   H2R19303   5.018   3.992   6.923 -0.7545 -1.9251 -0.7140
  171SOPE   H2S19304   5.190   3.994   6.962 -0.7997  1.7257 -1.4848
  171SOPE    C319305   5.265   3.618   6.712  0.6069  0.4568 -0.4787
  171SOPE    HX19306   5.357   3.678   6.701  0.4524  0.5745 -1.1588
  171SOPE    HY19307   5.266   3.536   6.638  1.2768  0.1761 -0.1645
  171SOPE   O3119308   5.255   3.563   6.845  0.3387 -0.2578 -0.6461
  171SOPE   C3119309   5.212   3.441   6.865 -0.2627 -0.8556 -0.0849
  171SOPE   O3219310   5.174   3.365   6.777  0.0907  0.2018 -0.3562
  171SOPE   C3219311   5.216   3.398   7.009 -1.0714  0.1841 -0.0978
  171SOPE   H2X19312   5.325   3.387   7.029 -0.4858  3.3531 -1.4109
  171SOPE   H2Y19313   5.160   3.302   7.009 -1.8194  0.6204 -0.4553
  171SOPE   C2319314   5.049   3.925   7.117  0.2718 -0.1056 -0.5260
  171SOPE   H3R19315   5.057   4.025   7.166 -1.1257 -0.1158 -0.2312
  171SOPE   H3S19316   5.112   3.852   7.172 -1.1518 -0.5412  0.5783
  171SOPE   C2419317   4.901   3.882   7.134 -0.5884 -0.1216  0.2621
  171SOPE   H4R19318   4.845   3.934   7.054 -0.0555  0.4964  0.2917
  171SOPE   H4S19319   4.876   3.777   7.108  0.2956 -0.1709 -0.3944
  171SOPE   C2519320   4.834   3.899   7.274 -0.3114 -0.3907 -0.6064
  171SOPE   H5R19321   4.785   3.996   7.299 -0.3476 -1.1043  2.2368
  171SOPE   H5S19322   4.751   3.826   7.273 -0.6380 -0.0243 -0.8862
  171SOPE   C2619323   4.934   3.894   7.396 -0.2836 -0.0065  1.3693
  171SOPE   H6R19324   5.007   3.811   7.378 -0.8640 -0.1662 -0.3665
  171SOPE   H6S19325   5.005   3.980   7.400  0.0172 -0.0378 -1.6801
  171SOPE   C2719326   4.867   3.855   7.531 -0.3225 -0.6879  0.2054
  171SOPE   H7R19327   4.861   3.744   7.532 -1.5028 -0.6804  4.6336
  171SOPE   H7S19328   4.946   3.886   7.603  1.6073 -3.1236 -0.7947
  171SOPE   C2819329   4.745   3.937   7.573  0.4271  0.1107 -0.6957
  171SOPE   H8R19330   4.771   4.045   7.570  0.9526  0.0746  1.8135
  171SOPE   H8S19331   4.668   3.924   7.493 -0.3580 -0.2513  0.1089
  171SOPE   C2919332   4.682   3.902   7.706  0.1793 -0.2904 -0.7490
  171SOPE   H9119333   4.604   3.823   7.702 -1.8229  1.5908  0.2914
  171SOPE  C21019334   4.705   3.963   7.820  0.5750  0.3506 -0.8466
  171SOPE  H10119335   4.652   3.926   7.909 -1.0040 -2.1717 -2.7614
  171SOPE  C21119336   4.800   4.082   7.842 -0.3433  0.7281  0.5427
  171SOPE  H11R19337   4.869   4.101   7.757 -0.7863  0.5576  0.1452
  171SOPE  H11S19338   4.871   4.057   7.924  0.2696 -2.3783 -0.8341
  171SOPE  C21219339   4.730   4.212   7.851 -0.4787  0.4877 -0.0674
  171SOPE  H12R19340   4.681   4.216   7.752  0.4012 -0.0294 -0.5332
  171SOPE  H12S19341   4.805   4.294   7.853  1.2229 -1.0335 -0.1298
  171SOPE  C21319342   4.631   4.221   7.965 -0.5794 -0.2189 -0.0640
  171SOPE  H13R19343   4.554   4.145   7.939 -0.6158 -0.2248  0.0668
  171SOPE  H13S19344   4.572   4.315   7.961 -1.9924 -0.9772  1.9974
  171SOPE  C21419345   4.695   4.194   8.099 -0.8147 -0.6028 -0.0305
  171SOPE  H14R19346   4.730   4.297   8.124  0.4937 -1.8211  3.3639
  171SOPE  H14S19347   4.779   4.122   8.101 -2.9551 -3.1676  1.7463
  171SOPE  C21519348   4.583   4.157   8.195 -0.3119  0.0633  0.5961
  171SOPE  H15R19349   4.556   4.052   8.173  1.5178 -0.3334  0.1385
  171SOPE  H15S19350   4.500   4.226   8.167 -1.2117 -0.7885  1.1430
  171SOPE  C21619351   4.624   4.165   8.338  0.0315  0.1780  0.2157
  171SOPE  H16R19352   4.704   4.094   8.369  0.6635  0.6516 -0.3228
  171SOPE  H16S19353   4.542   4.133   8.405 -2.1585  0.7599 -2.1179
  171SOPE  C21719354   4.670   4.306   8.385 -0.2671 -0.0782  0.5477
  171SOPE  H17R19355   4.588   4.377   8.363 -0.0021  0.6270  1.7705
  171SOPE  H17S19356   4.762   4.341   8.333 -1.1710  0.5623 -0.6371
  171SOPE  C21819357   4.696   4.313   8.530 -0.6259 -0.6501  0.1140
  171SOPE  H18R19358   4.675   4.219   8.585 -1.2719  0.0407  1.0592
  171SOPE  H18S19359   4.628   4.387   8.577 -0.9001 -1.5618  1.1661
  171SOPE  H18T19360   4.799   4.335   8.563 -1.2292 -0.7486  2.1425
  171SOPE   C3319361   5.169   3.483   7.131  0.8076  0.4728 -0.1195
  171SOPE   H3X19362   5.064   3.520   7.125 -0.2073 -2.2870  0.0787
  171SOPE   H3Y19363   5.231   3.575   7.127  1.1011  0.3097  0.7998
  171SOPE   C3419364   5.177   3.410   7.268 -1.3395 -0.2189 -0.3810
  171SOPE   H4X19365   5.283   3.385   7.289 -1.2050 -1.7036 -2.7437
  171SOPE   H4Y19366   5.114   3.319   7.262 -1.0985 -0.6311  2.4056
  171SOPE   C3519367   5.117   3.498   7.384  1.4249 -0.4192 -0.6846
  171SOPE   H5X19368   5.018   3.530   7.347  1.5466  0.3965 -0.3165
  171SOPE   H5Y19369   5.183   3.587   7.391  1.1879 -0.3616  1.0515
  171SOPE   C3619370   5.117   3.429   7.527  0.1586 -0.1718  0.1241
  171SOPE   H6X19371   5.220   3.412   7.564  0.0168 -0.0741  0.5663
  171SOPE   H6Y19372   5.057   3.336   7.513  0.4198 -0.5930  1.7450
  171SOPE   C3719373   5.059   3.512   7.638  0.1918  0.2401  0.8666
  171SOPE   H7X19374   4.957   3.549   7.611  0.0477  0.5377  1.8071
  171SOPE   H7Y19375   5.120   3.601   7.661  0.4722  0.1041  0.6528
  171SOPE   C3819376   5.041   3.433   7.767 -0.0961  0.0296 -0.4681
  171SOPE   H8X19377   5.128   3.373   7.801  0.2073  0.8244  0.1912
  171SOPE   H8Y19378   4.958   3.361   7.754 -0.9663  0.7300  1.0516
  171SOPE   C3919379   4.988   3.521   7.890 -0.3341  0.6217  0.0441
  171SOPE   H9X19380   5.072   3.589   7.913 -0.2618  0.2933  0.7825
  171SOPE   H9Y19381   4.976   3.459   7.982 -2.3762 -0.6365 -1.0235
  171SOPE  C31019382   4.847   3.581   7.864  0.1587 -0.2246  0.4953
  171SOPE  H10X19383   4.789   3.508   7.805  0.6194 -0.4448  0.3088
  171SOPE  H10Y19384   4.857   3.671   7.800 -0.6209  1.0392  2.1009
  171SOPE  C31119385   4.786   3.631   7.998  0.0645  0.5647 -0.2889
  171SOPE  H11X19386   4.792   3.543   8.066  1.2264  0.7011 -0.1988
  171SOPE  H11Y19387   4.680   3.655   7.978  0.0466  0.8115  0.0983
  171SOPE  C31219388   4.857   3.754   8.056  0.5967  0.5892 -0.6129
  171SOPE  H12X19389   4.857   3.837   7.982 -1.0010  0.5252 -0.7084
  171SOPE  H12Y19390   4.961   3.726   8.082  0.1057 -0.8071 -0.0834
  171SOPE  C31319391   4.786   3.800   8.180 -0.3389 -0.4845  0.4728
  171SOPE  H13X19392   4.678   3.804   8.156 -0.1710  3.7020  0.1400
  171SOPE  H13Y19393   4.816   3.903   8.208  1.1194 -1.1964  1.6159
  171SOPE  C31419394   4.803   3.711   8.309 -0.3255  0.1726 -0.4556
  171SOPE  H14X19395   4.909   3.699   8.338 -0.2984  1.8166  0.2079
  171SOPE  H14Y19396   4.776   3.605   8.294 -0.2243 -0.1686  1.5465
  171SOPE  C31519397   4.721   3.753   8.434  1.1947  0.8994 -0.4820
  171SOPE  H15X19398   4.614   3.740   8.407  1.3170 -0.2723 -0.4550
  171SOPE  H15Y19399   4.721   3.864   8.443 -1.8504  0.8188  1.2232
  171SOPE  C31619400   4.745   3.659   8.557  0.4233 -0.2736  0.8779
  171SOPE  H16X19401   4.743   3.555   8.519  2.2124  0.1631 -0.4756
  171SOPE  H16Y19402   4.661   3.676   8.627 -1.1705  0.9958 -1.2638
  171SOPE  C31719403   4.875   3.680   8.627  0.2029 -0.3399 -0.7610
  171SOPE  H17X19404   4.871   3.786   8.661 -1.8072 -0.7521  0.3530
  171SOPE  H17Y19405   4.958   3.667   8.553 -0.9012  1.0329 -2.2847
  171SOPE  C31819406   4.888   3.593   8.749 -0.0434 -0.0913  0.4614
  171SOPE  H18X19407   4.904   3.487   8.722 -3.2526 -0.7153  0.7634
  171SOPE  H18Y19408   4.790   3.600   8.802 -1.4050 -1.8689 -1.7308
  171SOPE  H18Z19409   4.966   3.616   8.824  1.7758 -1.1705 -1.0660
  172SOPE     N19410   6.327   6.204   6.159  0.3572 -0.2051  0.0206
  172SOPE   HN119411   6.312   6.285   6.222 -1.3082 -0.0542 -0.5483
  172SOPE   HN219412   6.344   6.248   6.066 -1.3566 -0.8818 -0.6484
  172SOPE   HN319413   6.233   6.159   6.157 -0.3027  1.1419 -0.0671
  172SOPE   C1219414   6.418   6.101   6.206 -0.3701 -0.3003 -0.3081
  172SOPE  H12A19415   6.513   6.153   6.230  0.7785 -2.2129 -0.6668
  172SOPE  H12B19416   6.435   6.028   6.124 -0.3270 -0.5872 -0.0408
  172SOPE   C1119417   6.348   6.028   6.323  0.1340 -0.4207 -0.2756
  172SOPE  H11A19418   6.314   6.098   6.402 -0.4630 -0.8160 -0.1798
  172SOPE  H11B19419   6.422   5.959   6.370  2.0109  1.1423 -0.8803
  172SOPE     P19420   6.173   5.823   6.334  0.6038  0.1423 -0.2775
  172SOPE   O1319421   6.257   5.708   6.286  0.2009  0.3236  0.1039
  172SOPE   O1419422   6.027   5.823   6.323  0.6654 -0.0205  0.4374
  172SOPE   O1219423   6.225   5.966   6.280 -0.2202 -0.1084  0.0407
  172SOPE   O1119424   6.200   5.829   6.485 -0.4133  0.6524 -0.2738
  172SOPE    C119425   6.093   5.839   6.584  0.4946  0.2205  0.1782
  172SOPE    HA19426   6.023   5.757   6.558  3.0128 -1.5868 -1.1462
  172SOPE    HB19427   6.049   5.941   6.577  0.0666  0.0663  0.6656
  172SOPE    C219428   6.143   5.815   6.729 -0.3687  0.0344 -0.0262
  172SOPE    HS19429   6.194   5.716   6.732  1.8578  1.1764  0.6641
  172SOPE   O2119430   6.030   5.808   6.819 -0.0789 -0.4640  0.2333
  172SOPE   C2119431   5.952   5.921   6.847  0.0391  1.1313  0.8389
  172SOPE   O2219432   5.964   6.029   6.795  0.4548  0.1071 -0.5314
  172SOPE   C2219433   5.853   5.874   6.956 -0.4831 -0.0408  0.1868
  172SOPE   H2R19434   5.909   5.881   7.051 -0.2502  1.3748 -0.0373
  172SOPE   H2S19435   5.826   5.767   6.943  1.2318 -0.6463  1.4217
  172SOPE    C319436   6.250   5.918   6.770 -0.1129  0.0246 -0.5946
  172SOPE    HX19437   6.218   6.018   6.734 -0.4086  0.0914 -0.1398
  172SOPE    HY19438   6.347   5.895   6.721  0.7453 -1.2632  1.6383
  172SOPE   O3119439   6.256   5.930   6.917  0.2862 -0.0196 -0.4031
  172SOPE   C3119440   6.366   5.987   6.955 -0.1897  0.1534  0.5373
  172SOPE   O3219441   6.439   6.045   6.878  0.1500  1.0156 -0.5397
  172SOPE   C3219442   6.394   5.977   7.108  0.2119 -0.0505  0.0548
  172SOPE   H2X19443   6.299   5.996   7.162  0.1874  2.3086 -0.7514
  172SOPE   H2Y19444   6.456   6.065   7.135 -0.3292 -0.1141  1.6022
  172SOPE   C2319445   5.727   5.963   6.949 -0.3446 -0.2346  0.6664
  172SOPE   H3R19446   5.671   5.924   6.861  0.7105  0.6828 -0.4289
  172SOPE   H3S19447   5.750   6.067   6.918  0.6382 -0.5654  0.2480
  172SOPE   C2419448   5.635   5.956   7.073 -0.3491  0.0397  0.0179
  172SOPE   H4R19449   5.606   5.848   7.078 -2.8325  0.7675  2.6201
  172SOPE   H4S19450   5.695   5.984   7.162 -1.5466  2.1414  0.1869
  172SOPE   C2519451   5.514   6.043   7.051  0.0674  0.2262 -0.0529
  172SOPE   H5R19452   5.541   6.150   7.063  0.5552 -0.1238  2.2757
  172SOPE   H5S19453   5.484   6.025   6.945  3.0071 -0.4668 -0.8061
  172SOPE   C2619454   5.398   6.019   7.147 -0.8547  0.2681  0.3645
  172SOPE   H6R19455   5.306   6.066   7.106 -0.7968 -2.0348 -2.5412
  172SOPE   H6S19456   5.369   5.912   7.153  1.7165 -0.4686  0.3128
  172SOPE   C2719457   5.415   6.074   7.292  0.0269  0.0889 -0.8599
  172SOPE   H7R19458   5.509   6.031   7.332 -0.0403  1.4161  0.7923
  172SOPE   H7S19459   5.442   6.181   7.282  1.0470  0.0477  1.1815
  172SOPE   C2819460   5.295   6.050   7.380  0.1245 -0.4790 -0.2355
  172SOPE   H8R19461   5.309   6.101   7.478 -2.6857  0.4828 -0.2834
  172SOPE   H8S19462   5.211   6.104   7.332  0.5723 -0.6205 -1.1863
  172SOPE   C2919463   5.251   5.912   7.408 -0.0492 -0.4544  0.1151
  172SOPE   H9119464   5.249   5.852   7.316  1.9282 -0.3809  0.0083
  172SOPE  C21019465   5.208   5.857   7.525 -0.0107 -0.3277 -0.2360
  172SOPE  H10119466   5.179   5.751   7.536 -1.9434  0.2634  0.5589
  172SOPE  C21119467   5.214   5.930   7.658  0.0878 -0.0519 -0.2686
  172SOPE  H11R19468   5.137   5.875   7.717  1.7014 -4.1171 -1.7396
  172SOPE  H11S19469   5.176   6.033   7.641  0.2995 -0.3813 -3.0096
  172SOPE  C21219470   5.354   5.929   7.712 -0.4948 -0.2628  0.2767
  172SOPE  H12R19471   5.419   5.985   7.640 -0.4172 -2.2201 -1.2423
  172SOPE  H12S19472   5.390   5.824   7.708  0.8687  0.1853  0.5231
  172SOPE  C21319473   5.367   5.984   7.853 -0.1024  0.1816 -0.5977
  172SOPE  H13R19474   5.336   6.091   7.850 -0.5471  0.0315 -1.3386
  172SOPE  H13S19475   5.475   5.976   7.878 -0.1563 -1.4079 -0.7982
  172SOPE  C21419476   5.287   5.907   7.956 -0.6186  0.3609 -0.8234
  172SOPE  H14R19477   5.319   5.801   7.949 -0.8880  0.1144  1.3406
  172SOPE  H14S19478   5.180   5.903   7.928 -0.2513 -1.1962 -2.0513
  172SOPE  C21519479   5.300   5.968   8.097  0.2688 -0.2419  0.1939
  172SOPE  H15R19480   5.291   6.079   8.092  1.0367 -0.1484  0.8741
  172SOPE  H15S19481   5.397   5.956   8.148  0.0449 -2.3673  0.1784
  172SOPE  C21619482   5.177   5.921   8.189 -0.0970  0.7011  0.4109
  172SOPE  H16R19483   5.084   5.922   8.129 -1.8155  1.7079  3.0396
  172SOPE  H16S19484   5.161   5.977   8.283 -1.8770  2.2302 -0.7901
  172SOPE  C21719485   5.213   5.773   8.223 -0.4014 -0.4784 -0.0769
  172SOPE  H17R19486   5.210   5.712   8.130 -3.3190  1.2973 -1.2310
  172SOPE  H17S19487   5.132   5.736   8.289  2.0419 -0.6911  2.9024
  172SOPE  C21819488   5.349   5.753   8.295 -0.7150  0.2265  0.4152
  172SOPE  H18R19489   5.432   5.743   8.222 -0.4854 -2.0782  0.9672
  172SOPE  H18S19490   5.353   5.657   8.351 -2.2969 -0.9756 -1.4811
  172SOPE  H18T19491   5.361   5.838   8.366  0.8643  2.5804 -2.5500
  172SOPE   C3319492   6.461   5.847   7.146  0.8088 -0.1537 -0.2138
  172SOPE   H3X19493   6.535   5.818   7.068 -1.3136 -0.0952 -2.3293
  172SOPE   H3Y19494   6.394   5.760   7.125 -0.4145  0.4465  1.1100
  172SOPE   C3419495   6.517   5.846   7.290  0.1637  0.0261 -0.7830
  172SOPE   H4X19496   6.580   5.938   7.287  0.4866 -0.1789 -0.2261
  172SOPE   H4Y19497   6.597   5.773   7.313  1.1815  1.5382  0.5995
  172SOPE   C3519498   6.413   5.853   7.406 -0.9185  0.2834  0.1155
  172SOPE   H5X19499   6.338   5.771   7.399 -0.2203 -0.4957  1.4546
  172SOPE   H5Y19500   6.359   5.948   7.388 -0.4495  0.3010 -1.1958
  172SOPE   C3619501   6.485   5.845   7.540  0.3331 -0.2832  0.0693
  172SOPE   H6X19502   6.554   5.932   7.542  0.0953 -0.0930 -0.0185
  172SOPE   H6Y19503   6.541   5.749   7.537  0.4933 -0.2376  1.4412
  172SOPE   C3719504   6.386   5.859   7.656  0.0065  0.2655 -0.0272
  172SOPE   H7X19505   6.302   5.787   7.649 -0.4253  0.9170 -1.9014
  172SOPE   H7Y19506   6.337   5.959   7.660 -2.6410 -0.9945  0.0474
  172SOPE   C3819507   6.464   5.842   7.790  1.1905  0.1998  0.4160
  172SOPE   H8X19508   6.552   5.908   7.807  2.4364 -1.7660  1.9463
  172SOPE   H8Y19509   6.506   5.740   7.802 -2.3360 -1.2095  1.1700
  172SOPE   C3919510   6.363   5.852   7.908 -0.0177  0.2863  0.0387
  172SOPE   H9X19511   6.270   5.800   7.879  0.6802 -0.4945 -0.8382
  172SOPE   H9Y19512   6.335   5.955   7.938 -1.1211  0.5556 -1.8849
  172SOPE  C31019513   6.423   5.782   8.039  0.3756 -0.5960 -0.0412
  172SOPE  H10X19514   6.532   5.806   8.043  0.4989 -1.2304  0.3792
  172SOPE  H10Y19515   6.429   5.674   8.015  1.0081  0.2348 -3.9194
  172SOPE  C31119516   6.352   5.810   8.178 -0.3657  0.2607  0.3295
  172SOPE  H11X19517   6.376   5.731   8.252 -0.4033  0.4950  0.5951
  172SOPE  H11Y19518   6.243   5.811   8.160 -0.6684  0.6296  2.0656
  172SOPE  C31219519   6.395   5.944   8.240 -0.4810 -0.1308  0.0048
  172SOPE  H12X19520   6.364   6.033   8.181  0.4985 -0.4148 -0.9574
  172SOPE  H12Y19521   6.506   5.937   8.235 -0.4249  1.4458 -1.4916
  172SOPE  C31319522   6.337   5.977   8.382 -0.3178  0.0292 -0.0450
  172SOPE  H13X19523   6.352   6.085   8.398 -1.0525 -0.0955  1.5025
  172SOPE  H13Y19524   6.383   5.918   8.465  1.4468  1.2606 -0.1130
  172SOPE  C31419525   6.183   5.978   8.390 -0.0891  0.2486  0.1110
  172SOPE  H14X19526   6.151   6.005   8.493 -1.1030 -0.0922 -0.1099
  172SOPE  H14Y19527   6.157   5.872   8.371  0.6769  0.2833 -1.2341
  172SOPE  C31519528   6.120   6.070   8.290  0.7135  0.6308  0.1217
  172SOPE  H15X19529   6.155   6.042   8.188  0.3698  2.2142 -0.4311
  172SOPE  H15Y19530   6.154   6.175   8.292  1.4580  0.3798  0.8911
  172SOPE  C31619531   5.967   6.064   8.318 -0.0825 -0.2916  0.0484
  172SOPE  H16X19532   5.951   6.095   8.424 -1.6008  0.5379 -0.4122
  172SOPE  H16Y19533   5.931   5.960   8.305 -0.0252 -0.0934 -1.7424
  172SOPE  C31719534   5.878   6.151   8.230  0.4327  0.8975  0.1158
  172SOPE  H17X19535   5.905   6.117   8.128  1.2819  0.5337  0.4568
  172SOPE  H17Y19536   5.906   6.259   8.238  0.6387  0.8388  0.2196
  172SOPE  C31819537   5.727   6.143   8.250 -0.7047  0.1400  0.4675
  172SOPE  H18X19538   5.689   6.166   8.352 -1.1747 -0.3894  0.4131
  172SOPE  H18Y19539   5.687   6.047   8.211 -0.0402  0.5787 -1.3475
  172SOPE  H18Z19540   5.684   6.219   8.181  1.6739  0.5524 -0.6194
  173SAPI   C1219541   2.095   4.029  11.216  1.3257  0.2791 -0.7980
  173SAPI    H219542   1.993   4.001  11.182  1.5171  0.4965 -1.5605
  173SAPI    O219543   2.095   4.170  11.200 -0.4260 -0.1800  0.3805
  173SAPI   HO219544   2.104   4.181  11.105 -1.5245  0.4979  0.3547
  173SAPI   C1319545   2.118   3.993  11.352 -0.7166  0.4463 -0.1420
  173SAPI    H319546   2.121   3.882  11.355  1.1143  0.4547 -1.0347
  173SAPI    O319547   2.007   4.030  11.430  0.2860 -0.0932  0.1384
  173SAPI   HO319548   2.016   3.975  11.508  2.3751  1.0794  0.7547
  173SAPI   C1419549   2.253   4.044  11.403  0.1106 -0.2269 -0.6756
  173SAPI    H419550   2.253   4.155  11.397 -1.9690 -0.2161 -0.7638
  173SAPI    O419551   2.277   3.980  11.531  0.0610  0.5621 -0.1496
  173SAPI   HO419552   2.274   4.043  11.603  0.9145 -3.8325  4.0244
  173SAPI   C1519553   2.367   3.998  11.307  0.7480 -0.5064  0.2433
  173SAPI    H519554   2.385   3.889  11.307 -0.9730 -0.8248 -1.5596
  173SAPI    O519555   2.491   4.062  11.353  0.7275 -0.0239  0.3847
  173SAPI   HO519556   2.527   3.991  11.407  1.3652  0.3673  0.4800
  173SAPI   C1619557   2.336   4.034  11.156 -0.0718 -0.6416 -0.1166
  173SAPI    H619558   2.333   4.144  11.145 -0.2682 -0.6563 -0.2163
  173SAPI    O619559   2.440   3.978  11.080  0.7011 -0.0165 -0.0401
  173SAPI   HO619560   2.460   4.033  11.004  1.3063 -1.2179 -0.7516
  173SAPI   C1119561   2.197   3.968  11.126  0.2272 -0.3687  0.4368
  173SAPI    H119562   2.198   3.857  11.134  1.4085 -0.3428  0.6321
  173SAPI     P19563   2.057   3.923  10.901 -0.1029 -0.3272  0.1982
  173SAPI   O1319564   1.996   4.003  10.790 -0.9120  0.1259 -0.2388
  173SAPI   O1419565   1.950   3.862  10.985  0.0694 -0.4197 -0.0111
  173SAPI   O1219566   2.166   4.002  10.986 -0.7563 -0.1819 -0.3289
  173SAPI   O1119567   2.149   3.803  10.831  0.0143 -0.6204 -0.2426
  173SAPI    C119568   2.293   3.807  10.800 -0.0969 -0.3661 -0.3049
  173SAPI    HA19569   2.346   3.847  10.889 -0.4313 -2.7105  0.9860
  173SAPI    HB19570   2.334   3.705  10.785  2.2429  0.4479  0.3308
  173SAPI    C219571   2.330   3.891  10.677  0.0188 -0.1750  0.0082
  173SAPI    HS19572   2.333   3.995  10.716  1.6002  0.4697 -1.7883
  173SAPI   O2119573   2.230   3.882  10.569 -0.1795 -0.2471 -0.2888
  173SAPI   C2119574   2.246   3.978  10.483 -0.4130  0.7700  0.5566
  173SAPI   O2219575   2.305   4.082  10.502  0.3875 -0.0144  0.1198
  173SAPI   C2219576   2.156   3.947  10.358  0.7141  0.4723  0.1570
  173SAPI   H2R19577   2.132   3.838  10.359  0.4650  0.5297  1.5225
  173SAPI   H2S19578   2.063   4.007  10.367 -1.6165 -2.8103 -0.7720
  173SAPI    C319579   2.469   3.847  10.631  0.4824  0.0431  0.2186
  173SAPI    HX19580   2.532   3.843  10.722  1.4270 -2.0498 -0.4927
  173SAPI    HY19581   2.510   3.919  10.557 -0.8579 -0.7177 -1.3263
  173SAPI   O3119582   2.465   3.711  10.593  0.4508 -0.6691  0.5829
  173SAPI   C3119583   2.469   3.694  10.462 -0.4271  0.3244 -0.2250
  173SAPI   O3219584   2.488   3.784  10.377  0.1125  0.0338  0.2362
  173SAPI   C3219585   2.420   3.546  10.427 -0.0712 -0.1010 -0.2311
  173SAPI   H2X19586   2.335   3.526  10.496  1.2460 -2.7627  0.6928
  173SAPI   H2Y19587   2.509   3.482  10.445  1.5644  1.3417 -2.9021
  173SAPI   C2319588   2.234   3.991  10.233  0.3487 -0.1363 -0.5273
  173SAPI   H3R19589   2.328   3.934  10.221  1.6348  1.5221  1.3581
  173SAPI   H3S19590   2.254   4.098  10.257 -2.0348  0.2505 -0.0588
  173SAPI   C2419591   2.150   3.992  10.104 -0.3830  0.8484  0.2837
  173SAPI   H4R19592   2.059   4.054  10.119 -1.7616 -1.3383  1.2113
  173SAPI   H4S19593   2.102   3.895  10.078  1.4100 -0.2247  0.9115
  173SAPI   C2519594   2.251   4.042  10.000  0.7028 -0.3301 -0.4154
  173SAPI   H5R19595   2.321   4.114  10.043  1.0552 -0.3304 -0.9753
  173SAPI   C2619596   2.248   4.002   9.863  0.1289 -0.2077  0.4218
  173SAPI   H6R19597   2.321   4.045   9.793 -0.4176 -0.6327 -0.4230
  173SAPI   C2719598   2.146   3.910   9.800 -0.5005 -0.1182  0.1111
  173SAPI   H7R19599   2.112   3.834   9.874 -1.4409  0.8812  0.7282
  173SAPI   H7S19600   2.202   3.846   9.727 -0.2924  1.4553 -1.1366
  173SAPI   C2819601   2.028   3.984   9.740  0.3225 -0.2536 -0.0047
  173SAPI   H8R19602   1.987   4.067   9.799  1.0098 -0.4289  0.7350
  173SAPI   C2919603   1.983   3.969   9.617 -0.4948  0.1888  0.4001
  173SAPI   H9R19604   1.892   4.024   9.588 -0.0598  0.9388  0.4344
  173SAPI  C21019605   2.041   3.880   9.515  0.0822 -0.2701 -0.4259
  173SAPI  H10R19606   1.954   3.815   9.493  0.4782 -1.3609  1.1190
  173SAPI  H10S19607   2.118   3.809   9.554  0.4491 -0.2842 -1.1671
  173SAPI  C21119608   2.079   3.965   9.404  0.1173  0.4314  0.0934
  173SAPI  H11R19609   2.183   4.000   9.409  0.6632 -1.0469 -0.6921
  173SAPI  C21219610   2.012   4.020   9.302 -0.5241  0.8183  0.1393
  173SAPI  H12R19611   2.075   4.072   9.229  0.5889 -2.6292 -1.4568
  173SAPI  C21319612   1.867   3.998   9.258 -0.0181  0.3607  0.3147
  173SAPI  H13R19613   1.806   3.965   9.345 -0.0265 -3.1644 -0.9500
  173SAPI  H13S19614   1.874   3.919   9.179 -0.4718  1.1785 -0.5577
  173SAPI  C21419615   1.806   4.123   9.197  0.1921  0.4337 -0.2624
  173SAPI  H14R19616   1.714   4.165   9.240  0.2171  1.0761 -0.8199
  173SAPI  C21519617   1.833   4.176   9.072 -0.2087 -1.1689  0.4673
  173SAPI  H15R19618   1.775   4.263   9.039 -1.3132 -1.9691  0.2654
  173SAPI  C21619619   1.933   4.126   8.973  0.0055  0.0772  0.1786
  173SAPI  H16R19620   1.983   4.033   9.007 -0.1153  0.0863  0.3790
  173SAPI  H16S19621   2.010   4.204   8.954  0.3444 -0.2001  0.4192
  173SAPI  C21719622   1.861   4.105   8.842 -0.0839  0.6230 -0.2440
  173SAPI  H17R19623   1.791   4.187   8.817  0.9311  0.8561 -2.4445
  173SAPI  H17S19624   1.800   4.013   8.850 -0.1050  0.7254  0.9311
  173SAPI  C21819625   1.949   4.083   8.715 -0.4116 -1.1592  0.0358
  173SAPI  H18R19626   2.003   3.987   8.730 -1.5354 -1.8949 -0.6064
  173SAPI  H18S19627   2.019   4.169   8.719 -2.1373  0.2052  2.0745
  173SAPI  C21919628   1.874   4.083   8.578  0.5077 -0.0217  0.3470
  173SAPI  H19R19629   1.947   4.077   8.494 -0.2551 -1.4482 -0.2342
  173SAPI  H19S19630   1.814   4.175   8.565  0.4991 -0.3675 -2.4801
  173SAPI  C22019631   1.792   3.956   8.565 -0.8448  0.2209  0.4432
  173SAPI  H20R19632   1.731   3.958   8.472 -1.2937  0.7299  0.7479
  173SAPI  H20S19633   1.725   3.946   8.653 -1.9150 -0.1685 -0.4195
  173SAPI  H20T19634   1.857   3.866   8.562  0.3143  1.0093  1.1256
  173SAPI   C3319635   2.364   3.520  10.285  0.0750  0.0430  0.7673
  173SAPI   H3X19636   2.322   3.417  10.286  0.7217 -0.2390 -0.1816
  173SAPI   H3Y19637   2.443   3.535  10.209 -0.0231  1.2222  0.9012
  173SAPI   C3419638   2.255   3.609  10.231  0.2289 -0.2150 -0.2382
  173SAPI   H4X19639   2.296   3.712  10.237  0.2321 -0.3745  3.0139
  173SAPI   H4Y19640   2.173   3.599  10.305  1.2608  0.6189  1.0485
  173SAPI   C3519641   2.209   3.586  10.088 -0.5777  0.1826  0.2732
  173SAPI   H5X19642   2.301   3.577  10.027 -1.4978  2.0963 -1.4611
  173SAPI   H5Y19643   2.164   3.681  10.053  0.2271  0.2248 -0.6712
  173SAPI   C3619644   2.123   3.470  10.092  0.3492 -0.2013 -0.1251
  173SAPI   H6X19645   2.023   3.492  10.134  1.4504  1.8808  1.4822
  173SAPI   H6Y19646   2.167   3.388  10.152  0.3039 -0.8051 -0.8980
  173SAPI   C3719647   2.100   3.402   9.949 -0.0990 -0.0253 -0.3849
  173SAPI   H7X19648   2.051   3.304   9.963  1.4758 -1.0130 -1.6187
  173SAPI   H7Y19649   2.202   3.379   9.911 -0.4627 -1.0899 -0.7123
  173SAPI   C3819650   2.044   3.493   9.842  0.4053 -0.2785  0.7282
  173SAPI   H8X19651   2.109   3.579   9.815  0.3031 -0.4627 -0.1345
  173SAPI   H8Y19652   1.942   3.521   9.875 -0.0215  1.8531 -2.2545
  173SAPI   C3919653   2.038   3.417   9.702 -0.2326 -0.2655  0.3865
  173SAPI   H9X19654   1.961   3.337   9.699 -1.3722  0.8069  0.6869
  173SAPI   H9Y19655   2.140   3.377   9.683  0.8543  2.4653  0.3210
  173SAPI  C31019656   2.010   3.513   9.588  0.6298  0.2897  0.0004
  173SAPI  H10X19657   2.094   3.584   9.583 -0.4039  1.5847  0.6037
  173SAPI  H10Y19658   1.923   3.580   9.609 -0.3059  0.0340 -2.8744
  173SAPI  C31119659   2.002   3.440   9.454  0.4150  0.4727  0.0581
  173SAPI  H11X19660   1.944   3.345   9.462  0.9963  0.0463 -0.7654
  173SAPI  H11Y19661   2.107   3.412   9.433  0.6140  1.0665  0.2557
  173SAPI  C31219662   1.952   3.523   9.333  0.7082 -0.8260 -0.0355
  173SAPI  H12X19663   2.008   3.619   9.323 -0.0003 -0.1747  2.0964
  173SAPI  H12Y19664   1.847   3.560   9.343  1.3594  1.9308 -2.5742
  173SAPI  C31319665   1.976   3.454   9.194 -0.0003 -0.5713  0.6283
  173SAPI  H13X19666   1.904   3.369   9.188 -0.5454 -0.2439  2.2725
  173SAPI  H13Y19667   2.077   3.409   9.189  1.1355  2.2216 -3.5693
  173SAPI  C31419668   1.960   3.558   9.069  0.0071  0.1730 -0.2789
  173SAPI  H14X19669   1.986   3.512   8.971 -1.2844  0.4135 -0.7480
  173SAPI  H14Y19670   2.033   3.641   9.076 -1.1080  1.1808 -0.3984
  173SAPI  C31519671   1.817   3.622   9.052 -0.3866 -0.0544  0.9051
  173SAPI  H15X19672   1.779   3.649   9.153  1.9991  1.0179  1.5522
  173SAPI  H15Y19673   1.733   3.559   9.017  0.2100 -1.7944  2.5124
  173SAPI  C31619674   1.817   3.748   8.958  0.3355  0.4654 -1.1462
  173SAPI  H16X19675   1.895   3.817   8.999  0.9192 -1.5182  1.1957
  173SAPI  H16Y19676   1.720   3.799   8.974  0.8357  0.9572  0.4352
  173SAPI  C31719677   1.849   3.718   8.813 -0.3051  0.3721 -0.1419
  173SAPI  H17X19678   1.939   3.654   8.805  0.0385  1.0033 -1.4554
  173SAPI  H17Y19679   1.871   3.814   8.762  1.6582 -0.3846 -0.7393
  173SAPI  C31819680   1.735   3.651   8.740 -0.3119 -0.9786 -0.8239
  173SAPI  H18X19681   1.715   3.548   8.776 -2.4482  0.4021  2.1933
  173SAPI  H18Y19682   1.758   3.651   8.632 -0.9063  3.3161 -1.0465
  173SAPI  H18Z19683   1.650   3.720   8.759  1.8832  1.4416  0.4280
  174SAPI   C1219684   5.800   4.626  11.049 -0.0534  0.6200  0.6091
  174SAPI    H219685   5.816   4.735  11.061  1.1733  0.4385  0.6712
  174SAPI    O219686   5.912   4.551  11.114  0.1616 -0.0072 -0.0969
  174SAPI   HO219687   5.982   4.570  11.051 -2.7557  1.4313 -3.0538
  174SAPI   C1319688   5.670   4.593  11.123 -0.5845  0.0267 -0.3698
  174SAPI    H319689   5.586   4.647  11.075  0.4843 -0.2052 -2.5695
  174SAPI    O319690   5.678   4.652  11.261  0.0094 -0.0717  0.0067
  174SAPI   HO319691   5.735   4.586  11.302  1.0210 -0.3626 -1.8022
  174SAPI   C1419692   5.643   4.443  11.111  0.0791  0.1531  1.0270
  174SAPI    H419693   5.732   4.382  11.139 -0.7821 -1.6856 -0.1370
  174SAPI    O419694   5.530   4.409  11.187 -0.0895 -0.1927 -0.3387
  174SAPI   HO419695   5.451   4.385  11.139 -0.3231  0.8387 -0.4942
  174SAPI   C1519696   5.625   4.414  10.963  0.6609  0.5148 -0.5478
  174SAPI    H519697   5.549   4.481  10.916  1.9220  2.0290 -0.4551
  174SAPI    O519698   5.578   4.279  10.953 -0.3698  0.0284 -0.1870
  174SAPI   HO519699   5.585   4.230  11.035  1.8303  1.1879  0.3587
  174SAPI   C1619700   5.758   4.444  10.895  0.0187  0.1194 -0.0921
  174SAPI    H619701   5.850   4.398  10.936  0.3940  0.7505 -0.2322
  174SAPI    O619702   5.754   4.389  10.763  0.0169  0.8536  0.5636
  174SAPI   HO619703   5.823   4.430  10.711  1.2109 -1.4948  0.2216
  174SAPI   C1119704   5.781   4.591  10.903  0.0705 -0.3894  1.1098
  174SAPI    H119705   5.689   4.639  10.862  1.4315  1.9183  0.7123
  174SAPI     P19706   5.968   4.759  10.780 -0.0257 -0.1571  0.1335
  174SAPI   O1319707   6.113   4.756  10.805 -0.2099  0.0143 -0.2720
  174SAPI   O1419708   5.894   4.874  10.837 -0.2098  0.0323 -0.4460
  174SAPI   O1219709   5.909   4.620  10.840 -1.0943 -0.3559 -0.2516
  174SAPI   O1119710   5.942   4.740  10.625 -0.3635  0.0508 -0.5594
  174SAPI    C119711   5.824   4.679  10.566  0.1010 -0.4028 -0.4575
  174SAPI    HA19712   5.846   4.573  10.541  1.4081  0.2347 -2.0883
  174SAPI    HB19713   5.744   4.685  10.643  2.0539  1.2452  1.5186
  174SAPI    C219714   5.788   4.761  10.437 -0.4606  0.0649  0.5657
  174SAPI    HS19715   5.697   4.713  10.396 -0.3200  0.1388  0.1612
  174SAPI   O2119716   5.888   4.756  10.333 -0.6727 -0.1963  0.3187
  174SAPI   C2119717   5.883   4.644  10.249  0.7847  0.6761  0.4023
  174SAPI   O2219718   5.835   4.536  10.275 -0.0759 -0.4997  0.8441
  174SAPI   C2219719   5.961   4.683  10.121 -0.2817 -0.0204  0.0971
  174SAPI   H2R19720   5.983   4.791  10.128 -2.2525  0.2652  2.3259
  174SAPI   H2S19721   6.057   4.627  10.132 -1.4723 -2.7495 -2.4573
  174SAPI    C319722   5.740   4.898  10.473  0.6181 -0.3120 -0.7388
  174SAPI    HX19723   5.834   4.943  10.513  0.3682 -1.4253  1.2009
  174SAPI    HY19724   5.661   4.897  10.551  0.7127  1.1196 -0.6147
  174SAPI   O3119725   5.689   4.972  10.365  0.9476  0.3145 -0.0738
  174SAPI   C3119726   5.700   5.098  10.372  0.1241  0.6832  0.3861
  174SAPI   O3219727   5.745   5.160  10.467  0.5730 -0.0140  0.3331
  174SAPI   C3219728   5.666   5.150  10.238  0.3076 -0.4337 -0.2774
  174SAPI   H2X19729   5.573   5.107  10.194 -0.3430 -1.2717  1.8262
  174SAPI   H2Y19730   5.746   5.137  10.162  0.3211 -3.1045  0.1582
  174SAPI   C2319731   5.898   4.628   9.991  0.5034  0.2045 -0.0476
  174SAPI   H3R19732   5.903   4.517   9.995 -3.1696 -0.0785 -1.0646
  174SAPI   H3S19733   5.959   4.651   9.902 -0.2359 -0.5055 -0.7493
  174SAPI   C2419734   5.758   4.675   9.979  0.6331  0.0515  0.3855
  174SAPI   H4R19735   5.696   4.625  10.057 -0.7101  1.4445  0.2343
  174SAPI   H4S19736   5.729   4.642   9.877  0.3329  0.7028  0.2545
  174SAPI   C2519737   5.732   4.823   9.994  0.3813 -0.7195  0.6885
  174SAPI   H5R19738   5.729   4.860  10.097 -2.9807 -2.8019  1.4015
  174SAPI   C2619739   5.721   4.909   9.885  0.3516  0.2759 -0.3950
  174SAPI   H6R19740   5.723   5.018   9.894  0.9163  0.5673 -3.5248
  174SAPI   C2719741   5.736   4.867   9.739 -0.1750  0.3717 -0.3548
  174SAPI   H7R19742   5.653   4.796   9.723 -0.2523  0.5132 -0.5949
  174SAPI   H7S19743   5.829   4.807   9.728 -0.2603  0.4056 -1.3566
  174SAPI   C2819744   5.741   4.982   9.642 -0.2320  0.0725  0.0066
  174SAPI   H8R19745   5.756   5.083   9.683  0.8070  0.3099 -0.9550
  174SAPI   C2919746   5.727   4.963   9.509  0.1271  0.5236 -0.6263
  174SAPI   H9R19747   5.731   5.052   9.443  3.1821  0.0348 -1.1734
  174SAPI  C21019748   5.700   4.831   9.440 -1.2554 -0.1060 -0.0112
  174SAPI  H10R19749   5.686   4.743   9.506 -2.1596  0.2870  0.3231
  174SAPI  H10S19750   5.798   4.799   9.396  0.9728  2.8768  2.5400
  174SAPI  C21119751   5.595   4.852   9.329  0.5498  0.2182 -0.0477
  174SAPI  H11R19752   5.489   4.844   9.356  0.7650  1.0658  1.1049
  174SAPI  C21219753   5.616   4.884   9.199 -0.0864 -0.5175 -0.5359
  174SAPI  H12R19754   5.531   4.888   9.129 -0.6862  0.5565  0.2489
  174SAPI  C21319755   5.752   4.912   9.136  0.3231 -0.3271  0.1846
  174SAPI  H13R19756   5.822   4.939   9.218  1.0953 -0.0610 -0.5615
  174SAPI  H13S19757   5.738   5.013   9.093  1.5873 -0.3113 -0.1814
  174SAPI  C21419758   5.806   4.813   9.044 -0.3310  0.5940  0.6962
  174SAPI  H14R19759   5.761   4.713   9.045 -0.7224  0.7412 -0.6665
  174SAPI  C21519760   5.892   4.841   8.940  0.3887 -0.3800  0.9292
  174SAPI  H15R19761   5.939   4.757   8.887  2.4556 -0.6584  3.0920
  174SAPI  C21619762   5.947   4.976   8.898 -0.4049  0.1719 -0.5399
  174SAPI  H16R19763   6.057   4.961   8.887 -0.3553 -2.4710  2.6235
  174SAPI  H16S19764   5.927   5.056   8.973  0.0562  1.1449 -1.4484
  174SAPI  C21719765   5.897   5.039   8.770 -0.1799  1.3492 -0.1961
  174SAPI  H17R19766   5.925   4.958   8.699  1.1388  1.2653  0.3954
  174SAPI  H17S19767   5.951   5.130   8.736  2.2954  1.3940  3.5937
  174SAPI  C21819768   5.744   5.064   8.763  0.1069  0.2594 -0.0495
  174SAPI  H18R19769   5.741   5.149   8.835  1.7862  0.1245  0.2203
  174SAPI  H18S19770   5.669   4.990   8.799  0.2248  0.0719 -0.1841
  174SAPI  C21919771   5.700   5.102   8.621  0.1953 -0.6088  0.8588
  174SAPI  H19R19772   5.784   5.167   8.589 -0.6276  0.4334  0.8220
  174SAPI  H19S19773   5.607   5.161   8.626  0.3049 -0.2671 -0.6469
  174SAPI  C22019774   5.685   4.985   8.525 -0.0088  0.2094 -0.2946
  174SAPI  H20R19775   5.595   4.930   8.561 -1.0665  1.2146 -1.3390
  174SAPI  H20S19776   5.778   4.926   8.513 -0.1321 -0.1953  0.6884
  174SAPI  H20T19777   5.658   5.020   8.423  0.7316  3.1914  0.4874
  174SAPI   C3319778   5.631   5.304  10.239  0.7266  0.1433  0.0110
  174SAPI   H3X19779   5.697   5.360  10.308  1.8077  0.0020 -0.8867
  174SAPI   H3Y19780   5.526   5.316  10.274  0.9271  0.1022  0.6274
  174SAPI   C3419781   5.644   5.369  10.107 -0.3742 -0.5561  0.5151
  174SAPI   H4X19782   5.751   5.387  10.082  0.2139 -2.9915  1.1148
  174SAPI   H4Y19783   5.591   5.466  10.113  1.7302  0.6977 -0.4175
  174SAPI   C3519784   5.597   5.291   9.978  0.2772 -0.1597  0.6480
  174SAPI   H5X19785   5.512   5.227  10.009 -0.6197  1.8912  2.5252
  174SAPI   H5Y19786   5.685   5.224   9.965  1.2385  1.1917  0.0469
  174SAPI   C3619787   5.556   5.382   9.857 -0.3818  0.3352 -0.2490
  174SAPI   H6X19788   5.604   5.482   9.857 -0.0493  0.1879 -2.0440
  174SAPI   H6Y19789   5.447   5.400   9.862 -0.5313 -0.9510  1.8728
  174SAPI   C3719790   5.576   5.312   9.717 -0.3884 -0.5280 -0.2403
  174SAPI   H7X19791   5.537   5.209   9.737  0.3105 -1.0741 -1.6326
  174SAPI   H7Y19792   5.683   5.294   9.695 -0.3785  1.2021 -1.7289
  174SAPI   C3819793   5.504   5.380   9.599  0.2348  0.0428 -0.2272
  174SAPI   H8X19794   5.550   5.481   9.593  1.3457 -0.4431  0.0566
  174SAPI   H8Y19795   5.395   5.398   9.610 -0.0293 -0.8437 -1.3013
  174SAPI   C3919796   5.522   5.295   9.473  0.7691  0.1095 -0.0747
  174SAPI   H9X19797   5.498   5.190   9.499  0.6471  0.5800  1.8252
  174SAPI   H9Y19798   5.628   5.297   9.440  0.2875  0.2829 -1.6779
  174SAPI  C31019799   5.434   5.356   9.363 -0.1841 -0.1996  0.1357
  174SAPI  H10X19800   5.457   5.463   9.346 -1.3507  0.4280  2.2196
  174SAPI  H10Y19801   5.331   5.351   9.405  0.3546 -0.9889  1.4185
  174SAPI  C31119802   5.445   5.288   9.228 -0.8884 -0.3627  0.5015
  174SAPI  H11X19803   5.420   5.180   9.236  4.0475 -1.7655 -0.8718
  174SAPI  H11Y19804   5.551   5.294   9.195 -0.5446 -1.2826  1.3901
  174SAPI  C31219805   5.354   5.338   9.117  0.0647 -0.8135 -0.4572
  174SAPI  H12X19806   5.367   5.448   9.117  2.4134 -1.0833  0.1220
  174SAPI  H12Y19807   5.245   5.339   9.142  0.3046 -0.5094  0.5550
  174SAPI  C31319808   5.356   5.273   8.981  0.1772 -0.6209  0.4543
  174SAPI  H13X19809   5.462   5.246   8.960  0.5531  1.2784 -0.1693
  174SAPI  H13Y19810   5.322   5.343   8.902  2.2998 -1.4654 -1.2603
  174SAPI  C31419811   5.276   5.149   8.996  0.1208 -0.4490  0.8190
  174SAPI  H14X19812   5.171   5.172   9.025 -0.8476 -2.5645 -0.9393
  174SAPI  H14Y19813   5.325   5.092   9.078  1.9630 -1.2297 -0.7917
  174SAPI  C31519814   5.285   5.062   8.868  0.1952  0.8447  1.0769
  174SAPI  H15X19815   5.258   4.954   8.871 -0.6239  0.9051 -2.2158
  174SAPI  H15Y19816   5.392   5.064   8.836  0.5817  1.1333  2.3585
  174SAPI  C31619817   5.210   5.123   8.753 -0.0155 -0.7842 -0.4321
  174SAPI  H16X19818   5.216   5.047   8.672 -1.0242 -2.4916  1.0554
  174SAPI  H16Y19819   5.265   5.214   8.722  1.4975 -1.5186  0.0726
  174SAPI  C31719820   5.066   5.162   8.775  0.2372  0.1060 -1.3088
  174SAPI  H17X19821   5.064   5.245   8.849  1.6816 -0.7944 -0.2341
  174SAPI  H17Y19822   5.016   5.078   8.828  0.1049  2.2589  2.1156
  174SAPI  C31819823   4.985   5.181   8.642 -0.0113 -0.4484  1.1538
  174SAPI  H18X19824   5.012   5.275   8.590 -0.7428 -0.5114  0.6466
  174SAPI  H18Y19825   4.874   5.186   8.656 -0.1078  1.8281 -0.1498
  174SAPI  H18Z19826   5.014   5.102   8.570  1.8269  0.8354  0.4541
  175SAPI   C1219827   5.977   3.943   6.557  0.1929  0.1542  0.4057
  175SAPI    H219828   6.058   3.921   6.629  1.3008  3.0288  0.0738
  175SAPI    O219829   5.894   3.830   6.576 -0.6543 -0.0600 -0.2656
  175SAPI   HO219830   5.939   3.772   6.639 -1.5938  0.6239  1.0640
  175SAPI   C1319831   5.931   4.081   6.596  0.0016  0.2219  0.3243
  175SAPI    H319832   6.014   4.149   6.568 -2.5979  2.7024 -1.6958
  175SAPI    O319833   5.915   4.106   6.734  0.2208 -0.4248 -0.2282
  175SAPI   HO319834   6.000   4.136   6.766  0.4076 -0.5088 -0.6405
  175SAPI   C1419835   5.816   4.110   6.503 -0.1139 -0.0522  0.8229
  175SAPI    H419836   5.743   4.027   6.514  0.3822 -0.7187 -0.8586
  175SAPI    O419837   5.762   4.239   6.533  0.3200  0.6583  0.3974
  175SAPI   HO419838   5.832   4.303   6.517  1.7570 -0.9469  0.1713
  175SAPI   C1519839   5.862   4.105   6.356  0.3093 -0.5445 -0.7840
  175SAPI    H519840   5.935   4.189   6.350 -2.1538  1.8072  0.7783
  175SAPI    O519841   5.750   4.132   6.271  0.6210 -0.2304 -0.2853
  175SAPI   HO519842   5.685   4.064   6.291  0.4354 -0.1643 -0.6527
  175SAPI   C1619843   5.929   3.976   6.312 -0.0629  0.6160  0.1066
  175SAPI    H619844   5.858   3.891   6.311  1.4339 -0.6524  0.5415
  175SAPI    O619845   5.987   3.971   6.182  0.4805  1.0490  0.2041
  175SAPI   HO619846   5.995   3.878   6.160  2.1681  1.6522 -1.9088
  175SAPI   C1119847   6.039   3.947   6.410  0.4077 -0.2674 -0.3259
  175SAPI    H119848   6.104   4.035   6.397  0.2971 -0.0045  0.8633
  175SAPI     P19849   6.261   3.834   6.321 -0.1508 -0.0887  0.0651
  175SAPI   O1319850   6.297   3.967   6.270 -0.2455  0.5281 -0.3211
  175SAPI   O1419851   6.281   3.717   6.235  0.5822 -0.3587  0.3294
  175SAPI   O1219852   6.110   3.829   6.379  0.6245  0.4993 -0.0269
  175SAPI   O1119853   6.340   3.802   6.453  0.2115 -0.6357  0.1813
  175SAPI    C119854   6.353   3.676   6.522  0.0523 -0.2845 -0.5526
  175SAPI    HA19855   6.312   3.594   6.461 -0.1413  1.7485 -3.2525
  175SAPI    HB19856   6.456   3.654   6.557 -0.0919 -2.2054 -1.2941
  175SAPI    C219857   6.241   3.658   6.638 -0.5034  0.0335  0.3489
  175SAPI    HS19858   6.152   3.693   6.581 -0.0057  0.4484 -0.1841
  175SAPI   O2119859   6.272   3.739   6.750  0.3025  0.0836  0.2435
  175SAPI   C2119860   6.168   3.772   6.827 -0.3940 -0.8333 -0.2212
  175SAPI   O2219861   6.051   3.751   6.803  0.5975 -0.3268 -0.4484
  175SAPI   C2219862   6.223   3.827   6.958  0.3695 -0.3346  0.7516
  175SAPI   H2R19863   6.319   3.774   6.973 -0.4392 -1.8512  0.6914
  175SAPI   H2S19864   6.242   3.934   6.935 -2.0468 -0.3647 -1.8370
  175SAPI    C319865   6.245   3.508   6.689 -0.4732 -0.0888  0.1656
  175SAPI    HX19866   6.254   3.446   6.598  0.2197  1.7601 -1.0511
  175SAPI    HY19867   6.148   3.489   6.742 -0.2937 -1.4134  0.0312
  175SAPI   O3119868   6.360   3.498   6.772 -0.5466 -0.3056  0.0651
  175SAPI   C3119869   6.343   3.411   6.872  0.1627  0.5764 -0.0579
  175SAPI   O3219870   6.247   3.339   6.893  0.2632  0.3232  0.0967
  175SAPI   C3219871   6.467   3.396   6.952 -0.2108 -0.4570  0.6320
  175SAPI   H2X19872   6.543   3.467   6.914  0.6503 -0.6792  1.8935
  175SAPI   H2Y19873   6.496   3.289   6.942  0.7008 -0.2600  1.1371
  175SAPI   C2319874   6.129   3.815   7.079  0.1100 -1.0612  0.3947
  175SAPI   H3R19875   6.019   3.819   7.063  0.2119  1.5740  0.1000
  175SAPI   H3S19876   6.155   3.898   7.147 -0.2843 -1.0083  0.4812
  175SAPI   C2419877   6.163   3.698   7.168  0.0137 -0.3961  0.4818
  175SAPI   H4R19878   6.270   3.711   7.194 -0.0846  2.9450 -0.4931
  175SAPI   H4S19879   6.146   3.612   7.100 -0.3282 -0.3646  0.5278
  175SAPI   C2519880   6.061   3.686   7.284 -0.1806  0.3660 -0.0960
  175SAPI   H5R19881   5.971   3.622   7.277  0.2639 -0.4424  1.3908
  175SAPI   C2619882   6.087   3.721   7.409 -0.4463 -0.0558  0.1743
  175SAPI   H6R19883   6.003   3.706   7.478 -0.2635  0.5030  0.5180
  175SAPI   C2719884   6.210   3.782   7.463 -0.3084 -0.3186 -0.4249
  175SAPI   H7R19885   6.296   3.725   7.420  1.8995  0.8837  2.2574
  175SAPI   H7S19886   6.233   3.765   7.570  1.7065 -0.4788 -0.8533
  175SAPI   C2819887   6.236   3.920   7.413  0.3880 -0.4906 -0.2304
  175SAPI   H8R19888   6.280   3.929   7.312  1.7362  2.6171  0.5711
  175SAPI   C2919889   6.183   4.031   7.470  0.0271 -0.1050 -0.0106
  175SAPI   H9R19890   6.216   4.128   7.431 -2.6217  0.2689 -1.4441
  175SAPI  C21019891   6.106   4.017   7.602 -0.6359  0.2809  0.0947
  175SAPI  H10R19892   6.175   3.968   7.674  0.7307  2.6827  0.4753
  175SAPI  H10S19893   6.024   3.943   7.590 -0.7483  0.4493 -0.1658
  175SAPI  C21119894   6.036   4.148   7.638 -0.2176 -0.1772  0.4560
  175SAPI  H11R19895   6.003   4.218   7.561  0.2813 -0.1785  0.2406
  175SAPI  C21219896   6.016   4.183   7.763 -0.0152  0.9051  0.0642
  175SAPI  H12R19897   5.984   4.287   7.780 -0.4430  0.6655  0.7768
  175SAPI  C21319898   6.063   4.102   7.879  0.7695 -0.6140 -0.3352
  175SAPI  H13R19899   6.174   4.097   7.883  0.8517  0.3539 -1.1975
  175SAPI  H13S19900   6.016   4.003   7.865 -1.1334  0.4134 -1.4192
  175SAPI  C21419901   6.022   4.166   8.009 -0.0614 -0.2992  0.5675
  175SAPI  H14R19902   6.032   4.275   8.013 -0.2132 -0.3243  1.8878
  175SAPI  C21519903   5.981   4.099   8.119  0.0804 -0.0010 -0.2284
  175SAPI  H15R19904   5.947   4.154   8.208  2.3812  0.6020  0.3083
  175SAPI  C21619905   5.989   3.949   8.139 -0.1907 -0.0735  1.0266
  175SAPI  H16R19906   6.013   3.917   8.243  1.3968 -1.3152  0.2975
  175SAPI  H16S19907   6.069   3.894   8.084  0.4233  2.1396 -0.3649
  175SAPI  C21719908   5.853   3.890   8.096 -0.8354  0.4597 -0.4370
  175SAPI  H17R19909   5.840   3.909   7.988 -0.3282 -1.2633 -0.8167
  175SAPI  H17S19910   5.775   3.940   8.158  0.2619  0.9345  0.5961
  175SAPI  C21819911   5.849   3.742   8.129  0.7312  0.0850 -0.1882
  175SAPI  H18R19912   5.812   3.727   8.233  1.9406  0.1494  0.2608
  175SAPI  H18S19913   5.952   3.700   8.123  1.5686  1.7029  2.0933
  175SAPI  C21919914   5.752   3.657   8.048  1.0933  0.5147  0.7275
  175SAPI  H19R19915   5.766   3.683   7.941 -0.6997 -2.4099 -0.2938
  175SAPI  H19S19916   5.645   3.681   8.068  1.0360  2.1998 -1.3950
  175SAPI  C22019917   5.760   3.503   8.086 -0.3139  0.1889 -0.0898
  175SAPI  H20R19918   5.866   3.476   8.070  0.1114  1.8015 -0.1216
  175SAPI  H20S19919   5.711   3.446   8.004 -0.2240  0.1189 -0.0949
  175SAPI  H20T19920   5.715   3.470   8.181 -0.9069  1.3425  0.0432
  175SAPI   C3319921   6.440   3.439   7.095 -0.4942 -0.1254  0.1868
  175SAPI   H3X19922   6.346   3.392   7.132  0.2582  0.0051  2.3524
  175SAPI   H3Y19923   6.410   3.546   7.092  0.8929  0.2620 -0.6616
  175SAPI   C3419924   6.560   3.424   7.186 -0.1043  0.2883  0.1690
  175SAPI   H4X19925   6.645   3.478   7.140 -0.7748 -0.2552 -1.7758
  175SAPI   H4Y19926   6.585   3.316   7.185  0.4875  0.4030  1.7478
  175SAPI   C3519927   6.541   3.485   7.325 -0.2466  0.3741  0.0302
  175SAPI   H5X19928   6.442   3.451   7.363 -0.9564  2.1260 -0.2326
  175SAPI   H5Y19929   6.548   3.595   7.315  1.1784  0.4209  1.4271
  175SAPI   C3619930   6.635   3.433   7.436  1.2691 -0.1073  0.2989
  175SAPI   H6X19931   6.742   3.453   7.412 -0.0670  2.8901 -3.7939
  175SAPI   H6Y19932   6.626   3.323   7.449 -0.2533  0.1604  1.7833
  175SAPI   C3719933   6.603   3.494   7.577 -0.0868 -0.1488  0.2805
  175SAPI   H7X19934   6.678   3.575   7.593  0.6154 -1.0696  1.7757
  175SAPI   H7Y19935   6.629   3.412   7.647  2.4069 -1.6678 -2.3119
  175SAPI   C3819936   6.469   3.552   7.609  0.1617 -0.1244 -0.7969
  175SAPI   H8X19937   6.384   3.481   7.606 -1.1076  1.3167 -0.0031
  175SAPI   H8Y19938   6.435   3.630   7.537 -1.4895 -0.0872 -0.0106
  175SAPI   C3919939   6.471   3.621   7.745 -0.0483  0.0324 -0.2180
  175SAPI   H9X19940   6.370   3.645   7.785  0.3800 -0.8255  1.4397
  175SAPI   H9Y19941   6.519   3.717   7.719 -0.6097  0.6437  0.9145
  175SAPI  C31019942   6.544   3.548   7.860  0.0234 -0.1581 -0.2321
  175SAPI  H10X19943   6.577   3.620   7.938 -2.0781  1.5498 -0.8678
  175SAPI  H10Y19944   6.643   3.511   7.825  0.1916  0.6511 -0.6119
  175SAPI  C31119945   6.465   3.439   7.926 -0.1421 -0.4688 -0.5538
  175SAPI  H11X19946   6.530   3.382   7.995 -2.0006 -1.3176  0.5422
  175SAPI  H11Y19947   6.429   3.370   7.846  1.6530  2.1261 -3.7480
  175SAPI  C31219948   6.349   3.477   8.023 -0.9564  0.0488 -0.2985
  175SAPI  H12X19949   6.249   3.486   7.976 -0.7754  0.5011 -0.6069
  175SAPI  H12Y19950   6.391   3.568   8.071 -1.6925 -0.0055  0.4566
  175SAPI  C31319951   6.321   3.362   8.123 -0.6172  0.4965  0.0430
  175SAPI  H13X19952   6.392   3.350   8.208 -0.2544 -0.4404 -0.3792
  175SAPI  H13Y19953   6.328   3.267   8.065  1.6424 -1.1862  2.9001
  175SAPI  C31419954   6.169   3.363   8.170  0.0941  0.1088  0.1098
  175SAPI  H14X19955   6.163   3.280   8.244  0.9673  0.3514  0.4586
  175SAPI  H14Y19956   6.111   3.332   8.081  0.0513  3.4285 -1.1152
  175SAPI  C31519957   6.121   3.493   8.238 -0.7353 -0.6908 -0.4971
  175SAPI  H15X19958   6.016   3.487   8.272 -0.6034 -0.5253 -0.0608
  175SAPI  H15Y19959   6.139   3.575   8.165  1.1690 -0.5010  0.1382
  175SAPI  C31619960   6.208   3.518   8.371 -0.3221 -0.0579  0.4762
  175SAPI  H16X19961   6.317   3.516   8.350 -0.1929  0.7858  1.0246
  175SAPI  H16Y19962   6.197   3.430   8.438 -1.1748  0.3898  0.9346
  175SAPI  C31719963   6.180   3.648   8.445 -0.4244 -0.2978  0.1181
  175SAPI  H17X19964   6.228   3.723   8.379  0.7726 -1.2592 -0.0991
  175SAPI  H17Y19965   6.245   3.650   8.535 -1.6609  1.5659  1.0229
  175SAPI  C31819966   6.034   3.691   8.469 -0.4717 -0.8451  0.2971
  175SAPI  H18X19967   5.991   3.702   8.368  1.6057 -3.1498 -0.8692
  175SAPI  H18Y19968   6.027   3.787   8.526  0.9311 -0.0458 -0.8341
  175SAPI  H18Z19969   5.977   3.612   8.522  0.7987 -0.5767  2.1218
  176SAPI   C1219970   6.405   2.579   6.281 -1.2685 -0.0395  0.2561
  176SAPI    H219971   6.475   2.503   6.240  0.2605  0.5040  1.7814
  176SAPI    O219972   6.485   2.649   6.378  0.0840 -0.3828 -0.5360
  176SAPI   HO219973   6.463   2.609   6.463 -0.8544  3.3203  1.0493
  176SAPI   C1319974   6.341   2.681   6.180 -0.1956 -0.4538 -0.4478
  176SAPI    H319975   6.262   2.629   6.122  1.2394 -2.2340 -0.8541
  176SAPI    O319976   6.438   2.748   6.098 -0.0462  0.1157 -0.3716
  176SAPI   HO319977   6.383   2.790   6.032 -0.2056  0.7117  0.1344
  176SAPI   C1419978   6.259   2.781   6.264 -0.0391 -0.0862  0.8412
  176SAPI    H419979   6.322   2.842   6.333 -0.3377  2.0270 -0.6939
  176SAPI    O419980   6.195   2.881   6.179  0.0315 -0.1066 -0.4579
  176SAPI   HO419981   6.205   2.973   6.206  1.0066  0.4391 -2.5158
  176SAPI   C1519982   6.146   2.706   6.349  1.0219 -0.3430  0.2452
  176SAPI    H519983   6.085   2.661   6.267  1.7361 -1.1704  0.1600
  176SAPI    O519984   6.068   2.800   6.423 -0.6227 -0.3856 -0.6938
  176SAPI   HO519985   6.007   2.757   6.484 -1.0626  2.0887  0.6868
  176SAPI   C1619986   6.206   2.601   6.433  0.1425  0.2329 -0.0545
  176SAPI    H619987   6.277   2.648   6.505 -0.5585 -1.6830  1.9529
  176SAPI    O619988   6.103   2.535   6.506  0.3206  0.2135 -0.5132
  176SAPI   HO619989   6.149   2.479   6.568  1.9286  2.0775  0.0610
  176SAPI   C1119990   6.292   2.504   6.351 -0.2419 -0.1459  0.2778
  176SAPI    H119991   6.222   2.462   6.275 -3.2181  1.2653  2.1300
  176SAPI     P19992   6.347   2.241   6.396 -0.4239  0.5357 -0.6937
  176SAPI   O1319993   6.430   2.241   6.274  0.0322 -0.2687  0.3599
  176SAPI   O1419994   6.213   2.176   6.399 -0.1403  0.3112 -0.3726
  176SAPI   O1219995   6.341   2.404   6.442  0.3147  0.2812  0.5921
  176SAPI   O1119996   6.422   2.178   6.519  0.9039  0.1916 -0.0767
  176SAPI    C119997   6.415   2.214   6.654 -0.2007  1.1869 -0.5412
  176SAPI    HA19998   6.498   2.165   6.709 -0.8709 -3.4006 -3.3613
  176SAPI    HB19999   6.427   2.325   6.657  3.2654  0.8272  1.8472
  176SAPI    C220000   6.284   2.167   6.724  0.0153  0.1232 -0.0771
  176SAPI    HS20001   6.195   2.212   6.676 -0.5436 -0.3252  0.5333
  176SAPI   O2120002   6.297   2.191   6.865  0.1909 -0.8142 -0.2970
  176SAPI   C2120003   6.280   2.317   6.893  0.4104 -0.2618  0.3608
  176SAPI   O2220004   6.245   2.405   6.823  0.0281 -0.1431  0.1141
  176SAPI   C2220005   6.305   2.336   7.045  0.3583  0.1620  0.0195
  176SAPI   H2R20006   6.207   2.327   7.095  1.8080 -2.1763  2.5415
  176SAPI   H2S20007   6.364   2.250   7.081  1.2534  1.7779  2.5318
  176SAPI    C320008   6.269   2.017   6.696  0.3825 -0.0122  0.0889
  176SAPI    HX20009   6.260   2.014   6.585  0.0311  0.2195  0.1116
  176SAPI    HY20010   6.171   1.985   6.737 -1.3293  0.2857 -3.4982
  176SAPI   O3120011   6.385   1.937   6.729 -0.0270  0.0247 -0.5973
  176SAPI   C3120012   6.383   1.852   6.823 -0.3497 -0.6915 -0.5314
  176SAPI   O3220013   6.284   1.801   6.871 -0.1830  0.7591  0.0741
  176SAPI   C3220014   6.523   1.803   6.855  0.3367 -0.3283 -0.2666
  176SAPI   H2X20015   6.606   1.877   6.850 -0.8792  1.1550  0.8473
  176SAPI   H2Y20016   6.551   1.724   6.782  0.4912  0.5752 -1.1912
  176SAPI   C2320017   6.372   2.474   7.078  0.2711  0.4234  0.8413
  176SAPI   H3R20018   6.306   2.549   7.031  1.8069  0.4560 -1.3609
  176SAPI   H3S20019   6.470   2.485   7.026 -0.2011  1.2596  0.1184
  176SAPI   C2420020   6.386   2.502   7.226 -0.3578 -0.3384 -0.0939
  176SAPI   H4R20021   6.306   2.449   7.282 -2.1203  2.0640 -0.2779
  176SAPI   H4S20022   6.373   2.611   7.243  0.7375 -0.2220  0.0896
  176SAPI   C2520023   6.526   2.473   7.266  1.0100  0.4407 -0.1116
  176SAPI   H5R20024   6.608   2.541   7.236 -0.2089  1.0612 -2.1648
  176SAPI   C2620025   6.560   2.373   7.340  0.8774 -0.1392 -0.4125
  176SAPI   H6R20026   6.665   2.375   7.371  0.5765  1.1232  0.5772
  176SAPI   C2720027   6.478   2.266   7.402 -0.1656  0.3638 -0.1218
  176SAPI   H7R20028   6.502   2.169   7.352 -0.2739  1.6780 -2.7896
  176SAPI   H7S20029   6.369   2.273   7.383 -0.2806  2.5115  1.1592
  176SAPI   C2820030   6.509   2.238   7.549  0.6377 -0.3170  1.3725
  176SAPI   H8R20031   6.569   2.148   7.566  3.6137  0.5748 -3.5629
  176SAPI   C2920032   6.473   2.323   7.656 -0.1357 -0.3836 -0.5618
  176SAPI   H9R20033   6.500   2.285   7.756 -1.8448 -1.5850 -0.5248
  176SAPI  C21020034   6.417   2.461   7.649 -0.4637 -0.4352  0.0879
  176SAPI  H10R20035   6.327   2.456   7.714 -0.4374  0.8832  0.2390
  176SAPI  H10S20036   6.374   2.464   7.547  1.8784 -1.6483 -0.9543
  176SAPI  C21120037   6.517   2.574   7.679 -0.0039  0.3756  0.7920
  176SAPI  H11R20038   6.588   2.573   7.596  0.6580  0.8213  1.3473
  176SAPI  C21220039   6.534   2.644   7.791  0.4143  0.1383 -0.2101
  176SAPI  H12R20040   6.612   2.721   7.783 -0.4793  1.0218 -0.4889
  176SAPI  C21320041   6.455   2.648   7.918 -0.0741  0.5566 -0.2397
  176SAPI  H13R20042   6.352   2.676   7.890  0.3741  3.3704  0.6711
  176SAPI  H13S20043   6.481   2.734   7.985 -0.7500 -2.2105  3.7623
  176SAPI  C21420044   6.464   2.532   8.007 -0.2607 -0.2433  0.1044
  176SAPI  H14R20045   6.407   2.441   7.983 -1.9966  0.4420  1.5137
  176SAPI  C21520046   6.545   2.530   8.117  0.1238  0.5744 -0.3949
  176SAPI  H15R20047   6.547   2.443   8.184  0.5263  0.4517 -0.5678
  176SAPI  C21620048   6.632   2.648   8.162 -0.7666  0.6788  0.5146
  176SAPI  H16R20049   6.575   2.710   8.234 -1.6109 -1.8499  2.0669
  176SAPI  H16S20050   6.653   2.714   8.075 -1.3869 -0.2952 -0.3903
  176SAPI  C21720051   6.771   2.607   8.203 -0.5279  0.0902  0.5373
  176SAPI  H17R20052   6.839   2.695   8.211 -2.5613  1.5653  2.3508
  176SAPI  H17S20053   6.817   2.544   8.124 -1.1866  0.9568 -0.5570
  176SAPI  C21820054   6.791   2.531   8.337 -0.0266  0.0027 -0.4542
  176SAPI  H18R20055   6.733   2.437   8.324  0.6725 -0.1617 -2.7432
  176SAPI  H18S20056   6.738   2.596   8.410 -0.1716 -0.0356 -0.5246
  176SAPI  C21920057   6.938   2.513   8.378 -0.2316  1.3067 -0.4285
  176SAPI  H19R20058   6.941   2.491   8.487 -1.4106  3.2498  0.0334
  176SAPI  H19S20059   6.999   2.605   8.366  0.9774  0.4023 -1.2668
  176SAPI  C22020060   7.032   2.399   8.320 -0.4127  0.4048 -0.1991
  176SAPI  H20R20061   7.137   2.415   8.353  0.2020 -0.9984 -1.4326
  176SAPI  H20S20062   7.025   2.389   8.209  0.8484  0.6478 -0.3137
  176SAPI  H20T20063   7.000   2.307   8.373  0.5825  1.1077  1.6870
  176SAPI   C3320064   6.521   1.727   6.990  0.4037 -0.3327  0.0592
  176SAPI   H3X20065   6.610   1.661   6.979  1.1845  1.0514 -2.2477
  176SAPI   H3Y20066   6.435   1.656   6.986  0.2415 -0.1006 -0.5880
  176SAPI   C3420067   6.520   1.812   7.115  0.1374 -0.6287  0.0927
  176SAPI   H4X20068   6.423   1.865   7.116  1.3390  1.6347 -0.0765
  176SAPI   H4Y20069   6.604   1.883   7.098 -0.8306  0.3520 -0.5938
  176SAPI   C3520070   6.524   1.741   7.244 -0.6346 -0.5792 -0.6341
  176SAPI   H5X20071   6.608   1.668   7.241 -0.3785 -0.3553  0.8517
  176SAPI   H5Y20072   6.426   1.691   7.255 -0.5527 -0.9778 -1.6875
  176SAPI   C3620073   6.554   1.836   7.358 -0.8221 -0.0593  0.2533
  176SAPI   H6X20074   6.494   1.929   7.348  0.8469  0.8859 -1.2467
  176SAPI   H6Y20075   6.663   1.854   7.369 -0.7287 -1.6718  2.2482
  176SAPI   C3720076   6.506   1.768   7.485  0.2528  0.0159  0.2836
  176SAPI   H7X20077   6.562   1.673   7.500 -0.5215 -0.3656  0.8159
  176SAPI   H7Y20078   6.399   1.741   7.472  0.4962 -1.3849  1.1438
  176SAPI   C3820079   6.525   1.849   7.610 -0.0851 -0.8551 -0.0410
  176SAPI   H8X20080   6.468   1.945   7.611  0.4307 -0.5487  0.0675
  176SAPI   H8Y20081   6.633   1.874   7.614  0.3409 -2.7071  0.5300
  176SAPI   C3920082   6.498   1.777   7.740  0.4308 -0.4640  0.0458
  176SAPI   H9X20083   6.537   1.674   7.723 -1.8587 -0.9239 -2.8435
  176SAPI   H9Y20084   6.388   1.759   7.748  0.4964 -1.2176 -0.6783
  176SAPI  C31020085   6.558   1.835   7.871 -0.3970 -0.0983 -0.2901
  176SAPI  H10X20086   6.522   1.939   7.884  2.8485  0.9101  0.9746
  176SAPI  H10Y20087   6.669   1.832   7.869 -0.4187 -1.2313  0.0820
  176SAPI  C31120088   6.499   1.759   7.996 -0.6154  0.2732  0.2049
  176SAPI  H11X20089   6.574   1.772   8.077 -0.6414 -3.6169  0.9332
  176SAPI  H11Y20090   6.503   1.651   7.972 -2.9609  0.0919  0.5223
  176SAPI  C31220091   6.362   1.811   8.048 -0.7819 -0.2394  0.0662
  176SAPI  H12X20092   6.280   1.792   7.975  0.4988  0.3767 -1.5491
  176SAPI  H12Y20093   6.372   1.921   8.056  0.1056 -0.4164  1.4799
  176SAPI  C31320094   6.319   1.758   8.182 -0.3460 -0.4029  0.2204
  176SAPI  H13X20095   6.409   1.765   8.246 -1.1834 -1.9748  1.6199
  176SAPI  H13Y20096   6.276   1.656   8.175 -0.2285 -0.6601  2.8637
  176SAPI  C31420097   6.213   1.848   8.254 -0.4611  0.3419  0.4604
  176SAPI  H14X20098   6.135   1.873   8.179  0.9459  3.1704 -0.1363
  176SAPI  H14Y20099   6.261   1.943   8.286 -1.7068  0.6382  1.5020
  176SAPI  C31520100   6.163   1.785   8.379 -0.3035  0.3898  0.0962
  176SAPI  H15X20101   6.241   1.735   8.440  0.8013 -0.9957 -2.3780
  176SAPI  H15Y20102   6.091   1.703   8.359  1.1093 -0.7490 -0.3779
  176SAPI  C31620103   6.080   1.892   8.459  0.3104 -0.6834 -1.0280
  176SAPI  H16X20104   6.137   1.987   8.460 -2.1802  0.8638 -1.1152
  176SAPI  H16Y20105   6.054   1.860   8.562  0.9037  1.2015 -0.2819
  176SAPI  C31720106   5.948   1.908   8.386  0.0907  0.4690 -0.1686
  176SAPI  H17X20107   5.874   1.830   8.413  0.2063 -0.1559 -1.6444
  176SAPI  H17Y20108   5.957   1.898   8.276 -2.0454 -1.2840 -0.2115
  176SAPI  C31820109   5.869   2.033   8.428 -0.1605 -0.1676 -0.3035
  176SAPI  H18X20110   5.772   2.031   8.374 -0.3948 -1.1469  0.1460
  176SAPI  H18Y20111   5.929   2.119   8.390 -0.9057 -1.6559 -5.2660
  176SAPI  H18Z20112   5.852   2.042   8.537  1.1038 -1.2941 -0.0017
  177SLPC     N20113   0.552   5.517  11.020  0.1706 -0.1317  0.3877
  177SLPC   C1320114   0.476   5.624  10.947 -0.0032 -0.0486 -0.0506
  177SLPC  H13A20115   0.530   5.663  10.862  0.0161 -1.0083 -0.4826
  177SLPC  H13B20116   0.379   5.600  10.906 -0.8187 -0.5435  2.0781
  177SLPC  H13C20117   0.466   5.707  11.015  0.0850 -1.6929  2.0217
  177SLPC   C1420118   0.463   5.438  11.106 -0.0766  0.4453  0.0684
  177SLPC  H14A20119   0.407   5.375  11.039 -0.1827  1.0965 -0.4539
  177SLPC  H14B20120   0.527   5.382  11.173 -1.2801 -0.7943  0.1913
  177SLPC  H14C20121   0.389   5.498  11.156  1.4942  1.5291  1.1626
  177SLPC   C1520122   0.651   5.587  11.106 -0.7664  0.4147 -0.2840
  177SLPC  H15A20123   0.607   5.620  11.198 -0.6663  0.9138 -0.4158
  177SLPC  H15B20124   0.732   5.522  11.136 -1.6200  0.5420  2.4800
  177SLPC  H15C20125   0.698   5.671  11.058  0.9075 -1.0308 -1.2591
  177SLPC   C1220126   0.624   5.435  10.920  0.1636 -0.1232  0.5936
  177SLPC  H12A20127   0.703   5.381  10.970 -0.4427 -2.5810 -0.9987
  177SLPC  H12B20128   0.678   5.508  10.861  2.4361 -2.2271 -0.0216
  177SLPC   C1120129   0.538   5.340  10.828  0.6662 -0.1253 -0.0616
  177SLPC  H11A20130   0.592   5.288  10.746  1.6736 -0.1028  0.5748
  177SLPC  H11B20131   0.462   5.404  10.779  1.2598  0.2783 -0.4734
  177SLPC     P20132   0.371   5.142  10.851  0.0461 -0.0246 -0.1089
  177SLPC   O1320133   0.412   4.995  10.860 -0.4138 -0.1987 -0.2576
  177SLPC   O1420134   0.238   5.169  10.912  0.0296 -0.1435 -0.3538
  177SLPC   O1220135   0.476   5.244  10.914  0.5672 -0.1765 -0.3733
  177SLPC   O1120136   0.369   5.189  10.706  0.3503  0.0706  0.1243
  177SLPC    C120137   0.260   5.200  10.618 -0.6169 -0.5023 -0.0380
  177SLPC    HA20138   0.185   5.123  10.646  0.6490 -1.4172  0.8663
  177SLPC    HB20139   0.213   5.298  10.640  0.1421 -0.0974 -0.2246
  177SLPC    C220140   0.304   5.186  10.468  0.0025  0.0699  0.2259
  177SLPC    HS20141   0.335   5.081  10.445 -0.2313  0.0243  0.1121
  177SLPC   O2120142   0.413   5.282  10.446 -0.5325  0.3317  0.4470
  177SLPC   C2120143   0.533   5.230  10.464 -0.7003  0.0172  0.3489
  177SLPC   O2220144   0.563   5.112  10.485 -0.7121  0.1493 -0.0667
  177SLPC   C2220145   0.628   5.349  10.471 -0.0553  0.2886  0.4216
  177SLPC   H2R20146   0.582   5.433  10.527 -1.5812 -0.3267  0.1208
  177SLPC   H2S20147   0.725   5.308  10.505 -0.1374 -1.0791 -0.9122
  177SLPC    C320148   0.190   5.206  10.372 -0.5581  0.4754  0.0765
  177SLPC    HX20149   0.161   5.312  10.387 -2.5120 -0.0852  0.3634
  177SLPC    HY20150   0.108   5.131  10.380 -0.2095  0.0472 -0.3302
  177SLPC   O3120151   0.245   5.178  10.242 -0.0693 -0.0201 -0.4414
  177SLPC   C3120152   0.260   5.275  10.151 -0.3499  0.0162  0.0877
  177SLPC   O3220153   0.241   5.392  10.175 -0.2421  0.1195 -0.1735
  177SLPC   C3220154   0.325   5.219  10.025  0.4406 -0.1590 -0.2156
  177SLPC   H2X20155   0.318   5.108  10.028 -0.2236 -0.1071  0.5406
  177SLPC   H2Y20156   0.432   5.243  10.014  0.4169  0.1978  0.3101
  177SLPC   C2320157   0.653   5.414  10.335 -0.1586 -0.4855 -0.2710
  177SLPC   H3R20158   0.680   5.522  10.339  3.1041 -1.2455 -0.5870
  177SLPC   H3S20159   0.555   5.404  10.282 -0.2088 -0.3713 -0.2016
  177SLPC   C2420160   0.770   5.342  10.269  0.0107 -0.3527 -0.4966
  177SLPC   H4R20161   0.735   5.238  10.256  0.6106 -0.8232  1.5637
  177SLPC   H4S20162   0.858   5.347  10.336  0.6721  0.5733 -1.4076
  177SLPC   C2520163   0.801   5.413  10.134  0.0828  0.1926  0.0568
  177SLPC   H5R20164   0.900   5.381  10.095  0.2509  0.6881  0.0738
  177SLPC   H5S20165   0.800   5.522  10.152 -0.7313  0.0715  0.8304
  177SLPC   C2620166   0.702   5.367  10.023 -0.5481  0.2627  0.0082
  177SLPC   H6R20167   0.603   5.412  10.048 -0.5052  0.0100  0.6323
  177SLPC   H6S20168   0.698   5.257  10.018  1.8556  0.2026 -0.9694
  177SLPC   C2720169   0.751   5.406   9.891 -0.4087  1.1879 -0.4880
  177SLPC   H7R20170   0.849   5.358   9.874 -0.9872 -0.0629 -0.3855
  177SLPC   H7S20171   0.778   5.513   9.884  3.5953  0.0952 -3.1758
  177SLPC   C2820172   0.662   5.369   9.773 -0.2000  0.0910 -0.2512
  177SLPC   H8R20173   0.608   5.275   9.797 -1.4038  0.5534 -1.0672
  177SLPC   H8S20174   0.730   5.359   9.687 -1.5473  0.5278 -1.3927
  177SLPC   C2920175   0.564   5.477   9.752  0.5225 -0.5386 -0.2215
  177SLPC   H9R20176   0.524   5.524   9.843  0.8903  1.8974 -1.2901
  177SLPC  C21020177   0.542   5.522   9.629  0.6518  1.3138 -0.5912
  177SLPC  H10R20178   0.467   5.602   9.624 -1.4969 -0.4798  1.8030
  177SLPC  C21120179   0.586   5.477   9.495 -0.3195  0.0684 -0.5425
  177SLPC  H11R20180   0.631   5.376   9.490  0.0567  0.2988 -1.8070
  177SLPC  H11S20181   0.498   5.486   9.429 -0.8814  2.3708  0.4586
  177SLPC  C21220182   0.702   5.568   9.452  0.3100 -0.3666 -0.8809
  177SLPC  H12R20183   0.767   5.609   9.531 -0.8087  0.0545 -0.1794
  177SLPC  C21320184   0.738   5.584   9.321  0.0956  0.0026  0.2233
  177SLPC  H13R20185   0.825   5.651   9.316  0.3109 -0.3735 -1.5788
  177SLPC  C21420186   0.676   5.528   9.195  0.8742  0.2856 -0.7025
  177SLPC  H14R20187   0.602   5.602   9.158  1.8228  0.8271 -1.5320
  177SLPC  H14S20188   0.608   5.441   9.209  0.0052  1.4607  3.0101
  177SLPC  C21520189   0.770   5.506   9.080 -0.0858 -0.8412  0.5798
  177SLPC  H15R20190   0.852   5.435   9.104  1.2342 -0.3638 -2.2500
  177SLPC  H15S20191   0.818   5.606   9.064 -0.0228 -0.8996  0.4079
  177SLPC  C21620192   0.699   5.460   8.946 -0.1552 -0.0127 -0.6540
  177SLPC  H16R20193   0.612   5.528   8.936  0.5775  0.8599 -1.1913
  177SLPC  H16S20194   0.668   5.353   8.946 -1.2773  0.2940 -2.5921
  177SLPC  C21720195   0.780   5.491   8.815  0.2478  0.4189 -0.1058
  177SLPC  H17R20196   0.825   5.591   8.826  0.1798  0.7692 -2.5779
  177SLPC  H17S20197   0.718   5.503   8.724  0.0943  1.5385  0.1404
  177SLPC  C21820198   0.892   5.384   8.794  0.3371 -0.7985 -0.5564
  177SLPC  H18R20199   0.964   5.389   8.878  0.5797  1.8372 -0.8877
  177SLPC  H18S20200   0.947   5.419   8.704 -0.0600 -0.5390 -0.7046
  177SLPC  H18T20201   0.857   5.279   8.790  1.5241 -1.2564  0.6702
  177SLPC   C3320202   0.243   5.286   9.922 -0.6085  0.6332 -0.0399
  177SLPC   H3X20203   0.283   5.390   9.919  0.5111  0.2222  0.7650
  177SLPC   H3Y20204   0.133   5.286   9.940 -0.4564 -2.6981  1.2135
  177SLPC   C3420205   0.289   5.232   9.784  0.3531  1.1438  0.1480
  177SLPC   H4X20206   0.254   5.127   9.777  0.7145  0.8197  2.8539
  177SLPC   H4Y20207   0.399   5.220   9.790  0.3190  1.4048  1.3744
  177SLPC   C3520208   0.232   5.309   9.669  0.3302 -0.1470  0.7183
  177SLPC   H5X20209   0.244   5.418   9.689 -1.8666  0.0788  0.9209
  177SLPC   H5Y20210   0.124   5.285   9.658  0.7121 -1.6112  0.0985
  177SLPC   C3620211   0.302   5.257   9.550 -0.3136  0.1258 -0.2111
  177SLPC   H6X20212   0.289   5.149   9.530 -1.5178 -0.0800  1.5765
  177SLPC   H6Y20213   0.411   5.276   9.554 -0.1935 -0.8857  1.8445
  177SLPC   C3720214   0.268   5.321   9.413  0.3324  0.6093  0.6546
  177SLPC   H7X20215   0.308   5.424   9.415  0.8389  0.4650 -1.1520
  177SLPC   H7Y20216   0.159   5.302   9.403  0.6111  0.2155 -2.1013
  177SLPC   C3820217   0.340   5.248   9.299 -0.0178  0.1400 -0.2857
  177SLPC   H8X20218   0.316   5.140   9.284 -0.9296  0.3724 -0.5262
  177SLPC   H8Y20219   0.450   5.247   9.318 -0.0563  1.6130  0.0206
  177SLPC   C3920220   0.298   5.314   9.166 -0.0879  0.4455 -0.1756
  177SLPC   H9X20221   0.327   5.421   9.158  1.8737 -0.0965 -0.7214
  177SLPC   H9Y20222   0.187   5.318   9.173 -0.2133 -1.6026 -0.6925
  177SLPC  C31020223   0.342   5.237   9.044  0.7520  0.0905  0.9732
  177SLPC  H10X20224   0.309   5.132   9.055 -0.0996  0.0097 -1.9014
  177SLPC  H10Y20225   0.453   5.227   9.040  0.8938  1.8686 -0.1832
  177SLPC  C31120226   0.302   5.316   8.924  0.5256 -0.0088 -0.0368
  177SLPC  H11X20227   0.339   5.418   8.899 -0.2263  0.0634 -0.8944
  177SLPC  H11Y20228   0.190   5.320   8.924  0.5636  1.5768  0.0783
  177SLPC  C31220229   0.366   5.251   8.805  0.0895 -0.5833  0.1007
  177SLPC  H12X20230   0.342   5.143   8.809 -0.3013 -0.4870  0.3292
  177SLPC  H12Y20231   0.477   5.266   8.804 -0.2321  2.1465  0.7555
  177SLPC  C31320232   0.305   5.299   8.667  0.0226 -0.3505  0.2013
  177SLPC  H13X20233   0.328   5.405   8.640 -0.3491 -0.0523  1.0265
  177SLPC  H13Y20234   0.195   5.295   8.680 -0.1768  3.1541  0.0344
  177SLPC  C31420235   0.350   5.208   8.550  0.5159 -0.6512 -0.5422
  177SLPC  H14X20236   0.284   5.221   8.461  2.7030  1.0025 -1.9791
  177SLPC  H14Y20237   0.347   5.106   8.595 -3.8704 -0.5093 -0.2766
  177SLPC  C31520238   0.497   5.228   8.501  0.4078 -0.7042  0.1814
  177SLPC  H15X20239   0.544   5.138   8.455 -0.5791 -1.3689  0.4515
  177SLPC  H15Y20240   0.564   5.256   8.585  0.5016  2.5575 -0.9146
  177SLPC  C31620241   0.491   5.344   8.397 -0.8279  0.6003  0.1279
  177SLPC  H16X20242   0.428   5.426   8.438 -2.6785 -0.8913  0.2824
  177SLPC  H16Y20243   0.439   5.302   8.309  1.6189 -1.3978 -0.4298
  177SLPC  C31720244   0.615   5.407   8.338  0.1295 -0.1669 -0.3060
  177SLPC  H17X20245   0.686   5.333   8.295  0.3982  0.4993 -1.0260
  177SLPC  H17Y20246   0.676   5.459   8.415 -0.6429  1.5873 -0.8497
  177SLPC  C31820247   0.579   5.526   8.236 -0.5015  0.1945  0.4184
  177SLPC  H18X20248   0.508   5.493   8.158 -0.6909 -0.3275  0.8101
  177SLPC  H18Y20249   0.672   5.578   8.205  0.4753 -1.9241 -0.2698
  177SLPC  H18Z20250   0.522   5.596   8.301  2.1432 -1.6541  4.9562
  178SLPC     N20251   2.127   0.815  11.201 -0.0655  0.3441 -0.1244
  178SLPC   C1320252   2.255   0.886  11.186 -0.7483  0.0657 -0.1306
  178SLPC  H13A20253   2.261   0.953  11.102 -2.1468 -1.8568 -1.7984
  178SLPC  H13B20254   2.284   0.943  11.273  4.2937 -0.1607 -1.5044
  178SLPC  H13C20255   2.337   0.815  11.180 -1.1649 -0.3627 -0.8196
  178SLPC   C1420256   2.013   0.913  11.202 -0.3053  0.1505  0.1883
  178SLPC  H14A20257   2.041   0.990  11.272 -0.0296  0.6883 -0.5030
  178SLPC  H14B20258   1.989   0.960  11.108  1.4547  1.1083  0.1919
  178SLPC  H14C20259   1.919   0.876  11.239 -2.1291  0.8676 -3.4788
  178SLPC   C1520260   2.126   0.746  11.335 -0.1190 -0.0027 -0.4229
  178SLPC  H15A20261   2.071   0.653  11.340  2.2964 -1.3083  3.4224
  178SLPC  H15B20262   2.225   0.707  11.350 -0.7096 -0.9963  1.0969
  178SLPC  H15C20263   2.094   0.801  11.422 -0.9866 -1.1368 -0.0145
  178SLPC   C1220264   2.112   0.703  11.099 -0.2593 -0.4114  0.4622
  178SLPC  H12A20265   2.126   0.743  11.000 -0.2427 -0.6892  0.3505
  178SLPC  H12B20266   2.007   0.679  11.103 -0.6077  1.3064  2.6029
  178SLPC   C1120267   2.202   0.576  11.114  0.5365  0.2952  0.2762
  178SLPC  H11A20268   2.170   0.497  11.043  0.7912  3.6508 -3.7823
  178SLPC  H11B20269   2.180   0.528  11.212 -2.4351  0.0341 -0.4752
  178SLPC     P20270   2.420   0.621  10.977 -0.6772 -0.0060 -0.1509
  178SLPC   O1320271   2.472   0.760  10.969 -0.5845  0.1105  0.4134
  178SLPC   O1420272   2.519   0.509  10.969  0.1152  0.1758  0.1337
  178SLPC   O1220273   2.337   0.602  11.109 -0.0729  0.4587 -0.1491
  178SLPC   O1120274   2.312   0.606  10.859  0.2989 -0.1129  0.7795
  178SLPC    C120275   2.345   0.513  10.756  0.3747 -0.4871 -0.1138
  178SLPC    HA20276   2.449   0.507  10.716  0.3977 -0.3835 -0.0695
  178SLPC    HB20277   2.311   0.410  10.779 -0.1002 -0.1100  0.9014
  178SLPC    C220278   2.265   0.552  10.622  0.2534 -1.0202  0.0037
  178SLPC    HS20279   2.291   0.488  10.535  0.8268  2.9700 -2.8735
  178SLPC   O2120280   2.285   0.690  10.594 -0.0344 -0.7262  0.7898
  178SLPC   C2120281   2.394   0.734  10.532 -0.4196 -0.0755 -0.1462
  178SLPC   O2220282   2.484   0.664  10.492  0.1113 -0.0078 -0.2159
  178SLPC   C2220283   2.391   0.888  10.507  0.1096  0.1997  0.3021
  178SLPC   H2R20284   2.287   0.917  10.533  0.2768  0.3993  0.7508
  178SLPC   H2S20285   2.452   0.932  10.589  0.2125 -0.4894  0.5955
  178SLPC    C320286   2.118   0.525  10.662 -0.2729 -1.1372 -0.7651
  178SLPC    HX20287   2.083   0.590  10.745 -1.6124 -1.2571 -1.2256
  178SLPC    HY20288   2.118   0.420  10.698 -1.3193 -0.9388 -0.1878
  178SLPC   O3120289   2.041   0.533  10.540 -0.0912 -0.0268 -0.5184
  178SLPC   C3120290   1.969   0.646  10.524 -0.5602  1.0018  0.4148
  178SLPC   O3220291   1.983   0.744  10.590 -0.4253 -0.2943  0.2251
  178SLPC   C3220292   1.869   0.635  10.412 -0.3864  0.0326  0.8697
  178SLPC   H2X20293   1.771   0.603  10.454 -0.8217 -0.4401 -0.4912
  178SLPC   H2Y20294   1.903   0.549  10.350 -0.6619 -1.9465  3.3780
  178SLPC   C2320295   2.431   0.932  10.366 -0.4429 -0.6972  0.3537
  178SLPC   H3R20296   2.539   0.910  10.352 -0.5912 -1.1800 -0.0542
  178SLPC   H3S20297   2.421   1.042  10.356 -0.9496 -0.8240 -0.5223
  178SLPC   C2420298   2.357   0.863  10.249  0.1029 -0.4324 -0.3567
  178SLPC   H4R20299   2.250   0.891  10.243  0.3346  1.1482  2.0574
  178SLPC   H4S20300   2.362   0.754  10.270  1.2561 -0.4173 -0.4990
  178SLPC   C2520301   2.428   0.910  10.122  0.4034 -0.9933 -0.0322
  178SLPC   H5R20302   2.530   0.867  10.132  1.2105  1.3165  2.2144
  178SLPC   H5S20303   2.444   1.019  10.127 -3.0058 -0.3306 -1.6335
  178SLPC   C2620304   2.364   0.852   9.999 -0.0853 -0.0907  0.3596
  178SLPC   H6R20305   2.253   0.856  10.004 -0.1187  0.4790 -0.7918
  178SLPC   H6S20306   2.390   0.745   9.988 -0.8644 -0.3597  1.0967
  178SLPC   C2720307   2.411   0.927   9.877 -0.4604 -0.3156  0.3131
  178SLPC   H7R20308   2.521   0.939   9.884 -0.4474  0.6976 -1.4573
  178SLPC   H7S20309   2.373   1.031   9.874 -0.8929 -0.4937 -1.0183
  178SLPC   C2820310   2.385   0.844   9.746 -0.0151  0.3480  0.0076
  178SLPC   H8R20311   2.411   0.737   9.762 -1.2049 -0.2338 -1.8374
  178SLPC   H8S20312   2.464   0.882   9.678 -1.8914  1.6877 -1.4597
  178SLPC   C2920313   2.244   0.859   9.676 -0.1021  0.3607  0.4682
  178SLPC   H9R20314   2.164   0.895   9.742 -0.6332 -2.0918  1.2112
  178SLPC  C21020315   2.214   0.844   9.551  0.4416  0.1294  0.2003
  178SLPC  H10R20316   2.114   0.870   9.513  0.2523  3.2963  2.6898
  178SLPC  C21120317   2.307   0.799   9.447  0.7395 -0.4259 -0.5239
  178SLPC  H11R20318   2.405   0.763   9.486  1.3365  2.0587  0.3632
  178SLPC  H11S20319   2.327   0.885   9.381 -2.1205 -0.0588 -0.9722
  178SLPC  C21220320   2.245   0.688   9.358  0.3618 -0.6564  0.3260
  178SLPC  H12R20321   2.247   0.588   9.402 -0.9794 -1.3981 -1.2469
  178SLPC  C21320322   2.179   0.712   9.245  0.2155 -0.5243  0.9406
  178SLPC  H13R20323   2.152   0.623   9.186 -1.1642 -0.1575  1.0026
  178SLPC  C21420324   2.153   0.841   9.171 -0.0524 -0.0279  0.4780
  178SLPC  H14R20325   2.201   0.924   9.226 -0.0769 -0.9720  1.9713
  178SLPC  H14S20326   2.046   0.869   9.183  0.2255  0.4270  1.8985
  178SLPC  C21520327   2.214   0.849   9.028  0.0546 -0.4844 -0.0167
  178SLPC  H15R20328   2.320   0.819   9.014 -0.3669 -2.5111  1.0479
  178SLPC  H15S20329   2.209   0.959   9.009  1.7625  0.1077  2.6727
  178SLPC  C21620330   2.128   0.771   8.933 -0.5109 -0.3200  0.5360
  178SLPC  H16R20331   2.030   0.816   8.959 -0.3669  1.1207 -1.3398
  178SLPC  H16S20332   2.132   0.662   8.956 -1.2331 -0.8546 -1.7805
  178SLPC  C21720333   2.157   0.786   8.784 -0.4177 -0.4537 -0.1998
  178SLPC  H17R20334   2.224   0.704   8.751 -0.3460  0.5336 -2.6283
  178SLPC  H17S20335   2.206   0.885   8.771  0.7404 -0.7209  1.9025
  178SLPC  C21820336   2.030   0.767   8.703  0.4459  0.0347  0.1869
  178SLPC  H18R20337   2.033   0.814   8.602 -0.3196 -2.9404 -1.2631
  178SLPC  H18S20338   1.935   0.786   8.756  0.1487 -0.6683 -0.0898
  178SLPC  H18T20339   2.023   0.660   8.672  1.4097 -0.0742  0.3284
  178SLPC   C3320340   1.842   0.762  10.328 -0.0936  0.5613  0.6765
  178SLPC   H3X20341   1.823   0.838  10.406 -0.7351  0.3647  0.7099
  178SLPC   H3Y20342   1.756   0.754  10.258 -0.9125 -1.2717  1.8496
  178SLPC   C3420343   1.970   0.776  10.232 -0.3372  0.3334  0.4420
  178SLPC   H4X20344   1.955   0.715  10.140 -1.0461 -0.2374  0.9363
  178SLPC   H4Y20345   2.054   0.739  10.295  1.0376  0.7111 -1.1308
  178SLPC   C3520346   1.979   0.918  10.178 -0.0519  0.1029 -0.1173
  178SLPC   H5X20347   2.081   0.939  10.138 -0.4935  0.1367 -1.2252
  178SLPC   H5Y20348   1.966   0.985  10.266  2.1858  0.5190 -0.0808
  178SLPC   C3620349   1.877   0.946  10.070 -0.4792  0.4706 -0.5456
  178SLPC   H6X20350   1.894   1.053  10.045 -2.4497  0.3329 -2.6227
  178SLPC   H6Y20351   1.775   0.944  10.115 -0.1086 -1.1596  0.2806
  178SLPC   C3720352   1.880   0.860   9.944  0.1757 -0.1820 -0.2928
  178SLPC   H7X20353   1.822   0.767   9.962  0.8802 -0.9049 -1.7112
  178SLPC   H7Y20354   1.982   0.817   9.933  1.2660  2.3714 -0.5277
  178SLPC   C3820355   1.823   0.927   9.821  0.6728  0.5177 -0.2243
  178SLPC   H8X20356   1.881   1.021   9.806 -0.5065  1.2395 -0.2575
  178SLPC   H8Y20357   1.718   0.955   9.840 -0.0478 -1.3255 -1.4018
  178SLPC   C3920358   1.819   0.841   9.698  0.8713  0.5217  0.6733
  178SLPC   H9X20359   1.769   0.742   9.709  1.8301 -0.1973 -1.1666
  178SLPC   H9Y20360   1.925   0.812   9.682  0.7001 -0.1534  0.7261
  178SLPC  C31020361   1.762   0.919   9.581  0.3845  0.1765 -0.1210
  178SLPC  H10X20362   1.822   1.009   9.555  1.4876 -0.2528  0.9117
  178SLPC  H10Y20363   1.656   0.947   9.600 -0.0734 -1.2812 -0.4445
  178SLPC  C31120364   1.755   0.835   9.452 -0.0794 -0.0299 -0.4074
  178SLPC  H11X20365   1.670   0.765   9.469 -0.6373  1.1692  2.0803
  178SLPC  H11Y20366   1.847   0.773   9.450  1.6103  2.2734  1.8693
  178SLPC  C31220367   1.729   0.907   9.314  0.1072  0.3634  0.4290
  178SLPC  H12X20368   1.747   0.831   9.234 -0.9536 -0.7507  1.2263
  178SLPC  H12Y20369   1.806   0.985   9.294  1.0235 -0.4489  0.7257
  178SLPC  C31320370   1.588   0.960   9.304 -0.0996 -0.0524 -0.4831
  178SLPC  H13X20371   1.582   1.059   9.354  1.0023  0.4201 -1.2816
  178SLPC  H13Y20372   1.516   0.885   9.343 -2.4068  1.8344 -0.9423
  178SLPC  C31420373   1.557   0.997   9.156  0.0400 -0.4872  0.0324
  178SLPC  H14X20374   1.633   1.063   9.109  2.2751 -1.6003  1.9912
  178SLPC  H14Y20375   1.461   1.053   9.163  0.2158  0.0014 -1.4607
  178SLPC  C31520376   1.526   0.877   9.065 -0.6855 -0.5344  0.0227
  178SLPC  H15X20377   1.610   0.808   9.084  0.0470 -0.5867 -3.2098
  178SLPC  H15Y20378   1.445   0.814   9.106  0.6209 -2.2380  0.0393
  178SLPC  C31620379   1.519   0.916   8.918 -0.0416 -0.0115 -0.4467
  178SLPC  H16X20380   1.521   0.819   8.864 -2.0660 -0.2672 -0.1216
  178SLPC  H16Y20381   1.602   0.986   8.895 -1.0351  1.3338 -0.0053
  178SLPC  C31720382   1.393   0.991   8.875  0.8223  0.4135  0.7888
  178SLPC  H17X20383   1.409   1.097   8.903  2.4686  0.4276 -0.1508
  178SLPC  H17Y20384   1.308   0.948   8.933 -0.0387 -0.7712 -1.2797
  178SLPC  C31820385   1.353   0.986   8.724 -0.0994 -0.3463 -0.1299
  178SLPC  H18X20386   1.424   1.040   8.658 -0.4981 -0.3301 -0.5483
  178SLPC  H18Y20387   1.250   1.027   8.719 -0.5358 -1.4621 -0.3582
  178SLPC  H18Z20388   1.349   0.882   8.686  2.5417 -0.6505  0.3245
  179SLPC     N20389   3.967   4.130  10.484  0.2110  0.1979  0.5411
  179SLPC   C1320390   4.113   4.139  10.461 -0.0212  0.1043  0.2992
  179SLPC  H13A20391   4.160   4.043  10.447  0.5080  0.5616 -1.1584
  179SLPC  H13B20392   4.134   4.203  10.377  0.1457  0.0375  0.2902
  179SLPC  H13C20393   4.167   4.182  10.544  0.5948  0.1934 -0.1473
  179SLPC   C1420394   3.934   4.035  10.595  0.5599 -0.1868  0.2915
  179SLPC  H14A20395   3.944   3.933  10.562  0.9120 -0.9135  2.5938
  179SLPC  H14B20396   3.986   4.051  10.688  0.2937 -0.2673  0.4548
  179SLPC  H14C20397   3.830   4.051  10.622  0.2960 -1.9063  0.3331
  179SLPC   C1520398   3.914   4.079  10.358  0.6934  0.6736  0.0258
  179SLPC  H15A20399   3.811   4.044  10.363  0.7622  0.4407 -0.1554
  179SLPC  H15B20400   3.915   4.145  10.272 -0.8438 -1.7281 -1.9382
  179SLPC  H15C20401   3.963   3.994  10.312 -2.2597  0.4094 -2.8459
  179SLPC   C1220402   3.923   4.268  10.523  0.1161  0.2391 -0.4053
  179SLPC  H12A20403   3.981   4.297  10.610 -1.2900 -0.8585  0.9272
  179SLPC  H12B20404   3.825   4.258  10.567  0.1502  0.3785 -0.2957
  179SLPC   C1120405   3.920   4.381  10.416 -0.4855  0.4660  0.0245
  179SLPC  H11A20406   3.879   4.468  10.472 -1.9136  0.2603 -0.6686
  179SLPC  H11B20407   3.849   4.362  10.333  0.1335 -0.1325 -0.3796
  179SLPC     P20408   4.149   4.512  10.405 -0.0355  0.0642 -0.1857
  179SLPC   O1320409   4.127   4.550  10.545  0.1564  0.7010  0.2663
  179SLPC   O1420410   4.291   4.484  10.368 -0.3533 -0.1083  0.1931
  179SLPC   O1220411   4.051   4.405  10.359 -0.6554 -0.1462  0.0592
  179SLPC   O1120412   4.105   4.632  10.312 -0.6807 -0.7741  0.1714
  179SLPC    C120413   4.098   4.614  10.168  0.0157  0.0325 -1.0061
  179SLPC    HA20414   4.168   4.693  10.134 -2.0660  2.7158  0.7491
  179SLPC    HB20415   4.138   4.517  10.131  2.1443  1.1596 -1.7159
  179SLPC    C220416   3.957   4.621  10.116  0.2196  0.4737  0.4602
  179SLPC    HS20417   3.907   4.522  10.130  0.8991 -0.0528 -0.7833
  179SLPC   O2120418   3.966   4.645   9.975  0.0499 -0.2426 -0.0007
  179SLPC   C2120419   3.868   4.597   9.900 -0.8605 -0.2594 -0.2364
  179SLPC   O2220420   3.770   4.542   9.948  0.2179  0.1958 -0.7456
  179SLPC   C2220421   3.884   4.633   9.753 -0.4895 -0.3726  0.4734
  179SLPC   H2R20422   3.884   4.744   9.752  2.8830 -0.2976  1.8735
  179SLPC   H2S20423   3.986   4.608   9.719 -0.1488 -0.2586  1.3954
  179SLPC    C320424   3.869   4.728  10.181 -0.1298  0.8046  0.0073
  179SLPC    HX20425   3.915   4.829  10.171  0.6093  0.3385 -1.4370
  179SLPC    HY20426   3.871   4.709  10.291 -0.5758  0.1131 -0.1042
  179SLPC   O3120427   3.732   4.742  10.126  0.0987 -0.1261 -0.1172
  179SLPC   C3120428   3.631   4.676  10.182  0.4672  0.1037  0.5805
  179SLPC   O3220429   3.625   4.616  10.290 -0.3459 -0.9128 -0.0765
  179SLPC   C3220430   3.509   4.677  10.091  0.4422  0.2204 -0.5191
  179SLPC   H2X20431   3.540   4.645   9.989  0.0360 -1.8861  0.0011
  179SLPC   H2Y20432   3.462   4.777  10.097  0.7691  0.3727 -0.5003
  179SLPC   C2320433   3.772   4.583   9.664  0.2027 -0.8253 -0.1511
  179SLPC   H3R20434   3.681   4.644   9.682  0.9272  0.3804 -0.5030
  179SLPC   H3S20435   3.754   4.474   9.670 -2.2167 -0.5080 -0.9796
  179SLPC   C2420436   3.803   4.626   9.520  0.0313 -0.6171 -0.3720
  179SLPC   H4R20437   3.899   4.582   9.485  0.4405 -0.4598  0.5331
  179SLPC   H4S20438   3.811   4.736   9.509 -0.3929 -0.6931 -1.5271
  179SLPC   C2520439   3.693   4.581   9.422 -0.4621 -0.0054 -0.3346
  179SLPC   H5R20440   3.596   4.601   9.472  0.5916 -1.6353  2.4749
  179SLPC   H5S20441   3.700   4.470   9.425 -1.1386 -0.0645 -0.9585
  179SLPC   C2620442   3.699   4.635   9.281 -1.0600 -0.2794  0.7129
  179SLPC   H6R20443   3.779   4.573   9.235 -2.6017 -1.6548 -0.1761
  179SLPC   H6S20444   3.726   4.743   9.283  2.3267 -0.9708 -2.7779
  179SLPC   C2720445   3.567   4.600   9.207  0.2500 -0.7085  0.2890
  179SLPC   H7R20446   3.484   4.650   9.262 -0.7905  0.3244 -2.1127
  179SLPC   H7S20447   3.537   4.493   9.207 -2.4299 -0.0059 -0.0880
  179SLPC   C2820448   3.576   4.648   9.068 -0.4597  0.1104  0.3354
  179SLPC   H8R20449   3.590   4.757   9.053 -0.3061 -0.2318 -2.1914
  179SLPC   H8S20450   3.479   4.626   9.018 -0.7181 -0.5089  1.1044
  179SLPC   C2920451   3.672   4.560   8.991  1.2074  0.4374 -0.4811
  179SLPC   H9R20452   3.661   4.452   9.004 -2.5889  0.7322 -0.5600
  179SLPC  C21020453   3.774   4.597   8.915 -0.7962 -0.1334  0.0308
  179SLPC  H10R20454   3.836   4.519   8.868 -0.5706 -0.1795  0.4096
  179SLPC  C21120455   3.809   4.738   8.883 -0.4432  0.6318 -0.3763
  179SLPC  H11R20456   3.914   4.751   8.849 -0.4331  1.0010 -0.2006
  179SLPC  H11S20457   3.798   4.797   8.976 -1.4133 -0.1566  0.0245
  179SLPC  C21220458   3.714   4.790   8.778  0.3310 -0.3071  0.4921
  179SLPC  H12R20459   3.618   4.811   8.827  0.8603  2.4187  0.4155
  179SLPC  C21320460   3.743   4.815   8.649  0.3039 -0.2814 -0.1576
  179SLPC  H13R20461   3.664   4.860   8.587 -0.9217 -0.4035  1.2865
  179SLPC  C21420462   3.887   4.796   8.593  0.2873 -0.7960  0.1455
  179SLPC  H14R20463   3.929   4.693   8.595 -1.9946 -1.7488  0.9601
  179SLPC  H14S20464   3.956   4.867   8.643 -0.9042  1.3158 -1.1571
  179SLPC  C21520465   3.908   4.818   8.439  0.1564  0.0199 -0.0222
  179SLPC  H15R20466   3.850   4.902   8.395 -0.1486 -0.6167 -0.8357
  179SLPC  H15S20467   3.873   4.725   8.390  0.9216  0.0845 -0.7044
  179SLPC  C21620468   4.057   4.849   8.402  0.2869 -0.6998 -0.1203
  179SLPC  H16R20469   4.114   4.754   8.414  1.3172 -0.0878 -0.1319
  179SLPC  H16S20470   4.087   4.922   8.481 -0.6948  0.4770 -0.8104
  179SLPC  C21720471   4.072   4.917   8.265  0.5145  0.2092 -0.1708
  179SLPC  H17R20472   4.173   4.962   8.269  1.2743 -1.4996  0.2775
  179SLPC  H17S20473   4.002   5.003   8.260  0.1141 -0.0852  0.2977
  179SLPC  C21820474   4.054   4.823   8.148  0.2124  0.1013 -0.1347
  179SLPC  H18R20475   4.142   4.756   8.139  1.5002  1.5374  1.5277
  179SLPC  H18S20476   4.051   4.889   8.058 -3.4142 -0.2817 -0.3579
  179SLPC  H18T20477   3.964   4.758   8.154  1.4269 -1.9474 -2.7555
  179SLPC   C3320478   3.392   4.573  10.128 -0.3272 -0.6891 -0.1492
  179SLPC   H3X20479   3.318   4.638  10.179  1.1047 -0.7540  2.1047
  179SLPC   H3Y20480   3.432   4.494  10.196  0.5221  0.3908  0.6368
  179SLPC   C3420481   3.335   4.500  10.007 -0.0369 -1.2652  0.6769
  179SLPC   H4X20482   3.403   4.415   9.983  1.1976 -0.0806 -0.0889
  179SLPC   H4Y20483   3.337   4.573   9.924  1.8466 -0.5444  1.3181
  179SLPC   C3520484   3.200   4.430  10.035 -0.5276 -0.8097 -0.0274
  179SLPC   H5X20485   3.124   4.501  10.073  0.0214  1.5960 -3.2567
  179SLPC   H5Y20486   3.221   4.353  10.113  1.1978  0.5825  0.9329
  179SLPC   C3620487   3.138   4.358   9.906  0.1228  0.5107 -0.2705
  179SLPC   H6X20488   3.208   4.285   9.861  0.5438  0.3935  0.5788
  179SLPC   H6Y20489   3.107   4.428   9.825  3.6540  1.8945 -0.4967
  179SLPC   C3720490   3.010   4.276   9.935  0.2957  0.1560  0.0047
  179SLPC   H7X20491   2.932   4.336   9.986  0.4080 -1.2690  1.9236
  179SLPC   H7Y20492   3.038   4.181   9.987  0.6533  0.6618  0.7488
  179SLPC   C3820493   2.944   4.254   9.796  0.2241 -0.0236 -0.7250
  179SLPC   H8X20494   3.019   4.213   9.725  1.6629 -1.3972  1.5601
  179SLPC   H8Y20495   2.904   4.348   9.751 -0.0445  0.4945  0.5726
  179SLPC   C3920496   2.822   4.165   9.807 -0.2672  0.1241  0.3077
  179SLPC   H9X20497   2.763   4.197   9.895 -0.3184  1.7554 -0.2988
  179SLPC   H9Y20498   2.848   4.057   9.815 -0.8689 -0.0632 -0.1578
  179SLPC  C31020499   2.729   4.185   9.686 -0.5138  0.2832 -0.0755
  179SLPC  H10X20500   2.792   4.211   9.598 -1.0252  1.9763  0.0456
  179SLPC  H10Y20501   2.662   4.273   9.699 -2.5177 -1.2538  0.1965
  179SLPC  C31120502   2.640   4.066   9.668  0.6211 -0.3322 -0.3171
  179SLPC  H11X20503   2.580   4.053   9.761 -0.9975  0.3011 -1.2549
  179SLPC  H11Y20504   2.697   3.972   9.652 -0.5817 -0.8804 -1.5237
  179SLPC  C31220505   2.534   4.089   9.562 -0.2629 -0.2756  0.4429
  179SLPC  H12X20506   2.490   4.189   9.579 -1.5126 -0.5182 -1.2185
  179SLPC  H12Y20507   2.448   4.018   9.567 -0.5079  0.0190  0.4065
  179SLPC  C31320508   2.581   4.082   9.421  1.0811 -0.0337 -0.2442
  179SLPC  H13X20509   2.625   3.981   9.403 -1.4623 -0.9158 -1.7375
  179SLPC  H13Y20510   2.660   4.159   9.408  0.8588  0.1924 -0.2630
  179SLPC  C31420511   2.464   4.116   9.324  0.4770 -0.3488 -0.1111
  179SLPC  H14X20512   2.426   4.217   9.352 -0.8400 -0.4561 -1.4837
  179SLPC  H14Y20513   2.391   4.035   9.344 -1.4027  1.2323 -0.4833
  179SLPC  C31520514   2.508   4.120   9.179  0.4094  0.0540  0.1723
  179SLPC  H15X20515   2.564   4.025   9.172 -2.1314 -1.7233  2.6984
  179SLPC  H15Y20516   2.575   4.205   9.156  0.6125  0.2705  1.5235
  179SLPC  C31620517   2.382   4.112   9.084 -0.4762  0.7437 -0.5041
  179SLPC  H16X20518   2.331   4.210   9.079 -0.7915  0.5207 -1.8820
  179SLPC  H16Y20519   2.304   4.043   9.124 -0.9043  1.8081  0.5040
  179SLPC  C31720520   2.418   4.058   8.943 -0.6190 -0.0773 -0.6052
  179SLPC  H17X20521   2.489   3.974   8.961 -2.1489 -1.4560 -0.8962
  179SLPC  H17Y20522   2.470   4.137   8.884  0.4994  0.0456  0.5357
  179SLPC  C31820523   2.282   4.009   8.894  0.0198  0.2539  0.2125
  179SLPC  H18X20524   2.291   3.995   8.784  0.3253 -0.3771  0.3128
  179SLPC  H18Y20525   2.204   4.087   8.911  0.7247  1.0453 -0.1216
  179SLPC  H18Z20526   2.254   3.908   8.929 -3.1534 -0.1175 -3.1206
  180SLPC     N20527   4.452   1.994  11.128 -0.1499  0.5003 -0.0388
  180SLPC   C1320528   4.323   1.919  11.121 -0.3297  0.1926  0.2667
  180SLPC  H13A20529   4.269   1.895  11.211  1.3234 -0.2294  1.1609
  180SLPC  H13B20530   4.255   1.972  11.055  0.7442 -0.1431 -1.1343
  180SLPC  H13C20531   4.343   1.826  11.071 -1.4816  0.2125 -0.2574
  180SLPC   C1420532   4.563   1.917  11.197  0.7866  1.3040 -0.2810
  180SLPC  H14A20533   4.587   1.832  11.135  1.7645  0.6134  1.0293
  180SLPC  H14B20534   4.650   1.981  11.206  2.7657 -0.8898 -2.7183
  180SLPC  H14C20535   4.539   1.874  11.292  1.0112  2.0039  0.0972
  180SLPC   C1520536   4.419   2.124  11.198 -0.5929  0.1653 -0.4843
  180SLPC  H15A20537   4.343   2.095  11.269  1.3035  0.2041  1.6140
  180SLPC  H15B20538   4.504   2.163  11.252 -1.5926 -2.0003  2.7771
  180SLPC  H15C20539   4.384   2.195  11.124 -1.5814 -0.1003 -0.2720
  180SLPC   C1220540   4.488   2.033  10.983 -0.0492  0.4505  0.5610
  180SLPC  H12A20541   4.586   2.079  10.980 -0.3203  0.9131 -3.6123
  180SLPC  H12B20542   4.415   2.101  10.941 -0.1705 -0.1197 -0.1594
  180SLPC   C1120543   4.502   1.928  10.869  1.3723  0.4568  0.2353
  180SLPC  H11A20544   4.494   1.974  10.768  0.3426 -0.4439 -0.1077
  180SLPC  H11B20545   4.414   1.860  10.867 -0.4584  2.7479 -1.7957
  180SLPC     P20546   4.762   1.906  10.833 -0.2064 -0.0918  0.3785
  180SLPC   O1320547   4.766   2.055  10.844 -0.0791 -0.2596  0.3063
  180SLPC   O1420548   4.866   1.822  10.901  0.1294 -1.0070  0.0216
  180SLPC   O1220549   4.622   1.862  10.885  0.4424 -0.0863  0.3007
  180SLPC   O1120550   4.743   1.866  10.685 -0.3251 -0.2125  0.2164
  180SLPC    C120551   4.730   1.725  10.659 -0.1910  0.3225 -0.2051
  180SLPC    HA20552   4.809   1.662  10.706 -0.7502 -0.0947  0.1808
  180SLPC    HB20553   4.634   1.689  10.701 -1.4778  3.2941 -0.4795
  180SLPC    C220554   4.708   1.687  10.513 -0.3852  0.7517 -0.5166
  180SLPC    HS20555   4.780   1.738  10.445  0.8245 -1.0235 -0.5970
  180SLPC   O2120556   4.571   1.716  10.488 -0.2782  0.0351  0.0743
  180SLPC   C2120557   4.533   1.840  10.452 -0.3951  0.0305 -0.3406
  180SLPC   O2220558   4.609   1.931  10.440 -0.4316  0.4608 -0.1550
  180SLPC   C2220559   4.388   1.849  10.436 -0.6099  0.2692  0.3647
  180SLPC   H2R20560   4.346   1.753  10.473  1.8886 -0.4362  1.5038
  180SLPC   H2S20561   4.343   1.933  10.493 -2.2371 -0.6669  0.4892
  180SLPC    C320562   4.732   1.535  10.477  0.1941 -0.1328 -0.2762
  180SLPC    HX20563   4.672   1.474  10.547 -1.8150  1.0171 -0.9726
  180SLPC    HY20564   4.839   1.507  10.488 -0.1303 -1.2435  0.1419
  180SLPC   O3120565   4.691   1.519  10.344  0.1737 -0.0920 -0.1427
  180SLPC   C3120566   4.563   1.464  10.315 -0.5584  0.3616  0.5131
  180SLPC   O3220567   4.489   1.430  10.402  0.2755 -1.4123 -0.6492
  180SLPC   C3220568   4.539   1.469  10.168  0.0891 -0.4518  0.5680
  180SLPC   H2X20569   4.434   1.446  10.140  0.6349 -0.6472 -1.4154
  180SLPC   H2Y20570   4.605   1.386  10.134  0.6230  1.0864 -2.3229
  180SLPC   C2320571   4.343   1.885  10.291  0.1264 -0.4207  0.1086
  180SLPC   H3R20572   4.232   1.890  10.291  0.1338 -0.0405 -1.1870
  180SLPC   H3S20573   4.363   1.804  10.217 -0.9958  0.7921 -1.5576
  180SLPC   C2420574   4.398   2.021  10.238  0.6243 -0.0972 -0.1715
  180SLPC   H4R20575   4.432   2.093  10.315  0.6226 -0.0442 -0.2202
  180SLPC   H4S20576   4.317   2.073  10.182 -1.0123 -0.1163  2.1191
  180SLPC   C2520577   4.505   2.011  10.120  0.3849  0.0843  0.1706
  180SLPC   H5R20578   4.463   1.932  10.055  1.9856  1.1527 -2.2045
  180SLPC   H5S20579   4.604   1.986  10.164  0.9980  2.8296  0.4437
  180SLPC   C2620580   4.518   2.130  10.021  0.4416  0.2870  0.2394
  180SLPC   H6R20581   4.420   2.148   9.971  0.0856 -3.2235 -0.3944
  180SLPC   H6S20582   4.586   2.095   9.941 -0.2163 -1.4482  0.4251
  180SLPC   C2720583   4.578   2.258  10.075 -0.2005  0.4428  0.1760
  180SLPC   H7R20584   4.672   2.228  10.126  1.2954  0.6156 -2.3798
  180SLPC   H7S20585   4.507   2.291  10.153 -0.8497  1.3805 -0.7913
  180SLPC   C2820586   4.620   2.360   9.972  1.0113 -0.1111 -0.5451
  180SLPC   H8R20587   4.527   2.394   9.921  2.5389  0.1397 -3.2803
  180SLPC   H8S20588   4.693   2.314   9.902  1.0933  0.9292 -1.1637
  180SLPC   C2920589   4.689   2.470  10.044  0.5962 -0.1555  1.0843
  180SLPC   H9R20590   4.647   2.482  10.145 -1.4116 -0.9559  0.3806
  180SLPC  C21020591   4.805   2.537  10.014  0.3970  0.5614  0.0055
  180SLPC  H10R20592   4.848   2.611  10.083  0.0044  1.6123 -0.8726
  180SLPC  C21120593   4.882   2.506   9.893 -0.6411 -0.4614 -0.2888
  180SLPC  H11R20594   4.912   2.599   9.839  0.1632 -1.5075 -1.6593
  180SLPC  H11S20595   4.837   2.440   9.816  0.4657 -0.3972 -0.9985
  180SLPC  C21220596   5.012   2.435   9.942  0.5631 -0.0687 -0.6423
  180SLPC  H12R20597   5.000   2.325   9.941 -0.6057  0.0614 -1.9548
  180SLPC  C21320598   5.126   2.494   9.972  0.0911 -0.2114  0.2252
  180SLPC  H13R20599   5.208   2.434  10.013  0.1247 -0.7515 -0.6311
  180SLPC  C21420600   5.160   2.642   9.966 -1.1932 -0.3120  0.2100
  180SLPC  H14R20601   5.200   2.680  10.062 -1.2904 -3.6999  1.6368
  180SLPC  H14S20602   5.071   2.708   9.957  0.1200  1.6839  1.4360
  180SLPC  C21520603   5.257   2.680   9.854 -0.6965  0.3602 -0.0847
  180SLPC  H15R20604   5.349   2.619   9.863  0.2805  1.8100  0.0054
  180SLPC  H15S20605   5.296   2.784   9.860  0.6694 -0.1227 -0.3241
  180SLPC  C21620606   5.207   2.660   9.718  0.5297  0.2931  0.4255
  180SLPC  H16R20607   5.107   2.707   9.717  0.0959 -0.5728  1.7504
  180SLPC  H16S20608   5.181   2.553   9.703 -3.2837  1.2125  0.0929
  180SLPC  C21720609   5.297   2.716   9.614 -0.1687 -0.4024 -0.6216
  180SLPC  H17R20610   5.397   2.669   9.627  0.4328  0.9973 -0.1841
  180SLPC  H17S20611   5.306   2.825   9.629  1.8876 -0.8389  1.7225
  180SLPC  C21820612   5.250   2.698   9.470  0.2990  0.5568 -0.1070
  180SLPC  H18R20613   5.160   2.763   9.468  0.5278  0.9570  1.6393
  180SLPC  H18S20614   5.241   2.590   9.446 -1.5809  1.0741 -1.7758
  180SLPC  H18T20615   5.322   2.727   9.391  1.3583  0.2052  0.7125
  180SLPC   C3320616   4.595   1.599  10.098 -0.0730 -0.5231  0.0289
  180SLPC   H3X20617   4.705   1.597  10.113  0.0372  1.0333 -0.4224
  180SLPC   H3Y20618   4.545   1.689  10.141  0.5627 -0.1329 -0.0436
  180SLPC   C3420619   4.561   1.609   9.948 -0.3022 -0.2060 -0.4466
  180SLPC   H4X20620   4.565   1.710   9.902  0.3001  0.3476  0.7679
  180SLPC   H4Y20621   4.465   1.565   9.914 -0.7092 -2.2197  3.0010
  180SLPC   C3520622   4.667   1.541   9.857 -0.0361  0.2682 -0.3561
  180SLPC   H5X20623   4.688   1.445   9.909 -0.2541  0.2704 -0.2658
  180SLPC   H5Y20624   4.753   1.611   9.864 -0.6052  0.9381 -0.0392
  180SLPC   C3620625   4.619   1.505   9.719  0.1150  0.1400 -0.7243
  180SLPC   H6X20626   4.539   1.430   9.734  1.2813 -0.8635  0.6569
  180SLPC   H6Y20627   4.703   1.458   9.662 -0.0913 -1.1703  0.0229
  180SLPC   C3720628   4.553   1.616   9.645 -0.5564  0.0468 -0.7366
  180SLPC   H7X20629   4.592   1.717   9.671 -0.6462 -0.0232 -0.3268
  180SLPC   H7Y20630   4.443   1.597   9.643 -0.6096  0.3794 -1.2128
  180SLPC   C3820631   4.583   1.619   9.490  0.3481  0.0575  0.0314
  180SLPC   H8X20632   4.692   1.616   9.466  0.4360  0.9306  0.3050
  180SLPC   H8Y20633   4.533   1.709   9.449  1.1917 -0.3727 -1.9974
  180SLPC   C3920634   4.506   1.509   9.428 -0.0127 -0.3186  0.7530
  180SLPC   H9X20635   4.400   1.514   9.462 -0.1824 -3.9498  0.9175
  180SLPC   H9Y20636   4.533   1.408   9.465 -1.5280 -0.4831  1.4464
  180SLPC  C31020637   4.483   1.517   9.274 -0.6826  0.1303  0.4810
  180SLPC  H10X20638   4.420   1.605   9.249 -1.4785 -0.7523 -0.6988
  180SLPC  H10Y20639   4.429   1.426   9.239  3.8577 -2.8017  0.6401
  180SLPC  C31120640   4.617   1.530   9.200  0.5811 -0.1434 -0.2376
  180SLPC  H11X20641   4.681   1.441   9.214  0.7380 -0.4712 -2.8297
  180SLPC  H11Y20642   4.676   1.615   9.241  2.4218 -0.6754 -1.7106
  180SLPC  C31220643   4.599   1.544   9.051  0.2981  0.2815 -0.4487
  180SLPC  H12X20644   4.515   1.474   9.032  0.1147 -0.2880  2.1890
  180SLPC  H12Y20645   4.685   1.511   8.989 -0.9592 -2.0121 -1.0239
  180SLPC  C31320646   4.568   1.686   9.009  0.1798 -0.2693  1.1777
  180SLPC  H13X20647   4.662   1.744   9.019  0.0986 -0.0952  0.9484
  180SLPC  H13Y20648   4.484   1.706   9.079 -0.3815 -1.1306  0.7621
  180SLPC  C31420649   4.510   1.697   8.867 -0.6994  0.0919  1.0261
  180SLPC  H14X20650   4.480   1.798   8.832  0.5343  0.0316 -0.2387
  180SLPC  H14Y20651   4.416   1.638   8.860 -1.4864  1.5582 -1.7629
  180SLPC  C31520652   4.603   1.629   8.761  0.1536  0.3314  0.6498
  180SLPC  H15X20653   4.577   1.522   8.751 -2.6419  1.0917 -0.9678
  180SLPC  H15Y20654   4.706   1.657   8.788 -0.0167  1.8226 -0.1612
  180SLPC  C31620655   4.576   1.687   8.616 -0.0565 -0.3945  0.0867
  180SLPC  H16X20656   4.617   1.791   8.615 -0.3778 -0.2635 -1.9822
  180SLPC  H16Y20657   4.470   1.685   8.585 -0.0794 -2.0478  0.2539
  180SLPC  C31720658   4.656   1.612   8.501  0.7193 -0.1664 -0.3446
  180SLPC  H17X20659   4.766   1.612   8.520  0.7515 -1.5403 -0.5130
  180SLPC  H17Y20660   4.635   1.670   8.409 -0.1738  0.0987  0.0247
  180SLPC  C31820661   4.618   1.465   8.478 -0.3527 -0.0927 -0.1351
  180SLPC  H18X20662   4.702   1.410   8.431 -0.0865  0.5622 -0.4452
  180SLPC  H18Y20663   4.526   1.461   8.416 -2.2174 -0.7071  2.5824
  180SLPC  H18Z20664   4.586   1.416   8.572 -0.3863  0.4735  0.1534
  181SLPC     N20665   1.485   5.841  10.928  0.5138  0.0429  0.6027
  181SLPC   C1320666   1.518   5.704  10.975  0.0154  0.6295 -0.1074
  181SLPC  H13A20667   1.513   5.710  11.083  1.8267  0.5701 -0.0079
  181SLPC  H13B20668   1.442   5.635  10.942 -0.9329 -0.0942  3.4234
  181SLPC  H13C20669   1.615   5.680  10.934  0.2628 -1.3169  1.5191
  181SLPC   C1420670   1.463   5.829  10.781  0.3968  1.1342  0.0603
  181SLPC  H14A20671   1.552   5.782  10.741 -0.7269  0.0561 -1.1826
  181SLPC  H14B20672   1.380   5.763  10.759  0.5814  1.2093 -0.9108
  181SLPC  H14C20673   1.438   5.920  10.728  1.8608  1.5207  0.0032
  181SLPC   C1520674   1.608   5.923  10.949 -0.0646 -0.6189 -0.3489
  181SLPC  H15A20675   1.620   5.959  11.050  2.4731 -2.1469 -0.0690
  181SLPC  H15B20676   1.705   5.878  10.932  0.4564  0.4986 -0.4104
  181SLPC  H15C20677   1.604   6.017  10.895  0.5414  0.6409  1.7498
  181SLPC   C1220678   1.362   5.897  11.001  1.0161 -0.2489 -1.0951
  181SLPC  H12A20679   1.287   5.826  10.971  1.3218 -0.1414 -2.1362
  181SLPC  H12B20680   1.339   5.987  10.946  0.7829  0.7067  0.5219
  181SLPC   C1120681   1.378   5.921  11.153 -0.0977 -0.4737  0.0748
  181SLPC  H11A20682   1.420   5.826  11.191 -0.2543 -0.3007  0.6969
  181SLPC  H11B20683   1.285   5.935  11.212  0.8876  0.6760  1.3903
  181SLPC     P20684   1.435   6.182  11.150  0.0422 -0.0483  0.3132
  181SLPC   O1320685   1.303   6.219  11.203  0.1076 -0.7217 -0.0922
  181SLPC   O1420686   1.547   6.266  11.194  0.6342  0.0801  0.3624
  181SLPC   O1220687   1.467   6.025  11.178  0.8092  0.5143  0.5025
  181SLPC   O1120688   1.427   6.189  10.995 -0.6802 -0.5425 -0.0503
  181SLPC    C120689   1.394   6.306  10.925  0.0173 -0.4157 -0.1734
  181SLPC    HA20690   1.314   6.363  10.976  1.2953  2.0007 -0.7936
  181SLPC    HB20691   1.477   6.380  10.917 -0.6144  0.2331 -0.8418
  181SLPC    C220692   1.361   6.276  10.776  0.1953 -0.4070  0.1518
  181SLPC    HS20693   1.317   6.364  10.725 -1.7493 -0.7618  1.1870
  181SLPC   O2120694   1.251   6.179  10.769  0.6338  0.0816 -0.8957
  181SLPC   C2120695   1.129   6.232  10.795  0.1359  0.7593 -0.3703
  181SLPC   O2220696   1.096   6.348  10.804 -0.8625 -0.1796 -0.3876
  181SLPC   C2220697   1.034   6.116  10.803 -1.1389  0.2568  0.1187
  181SLPC   H2R20698   1.087   6.025  10.770 -0.9208  0.5949 -0.4613
  181SLPC   H2S20699   0.994   6.097  10.906 -0.7808  1.6659  0.5264
  181SLPC    C320700   1.488   6.237  10.696 -0.0621 -0.3106  0.0486
  181SLPC    HX20701   1.530   6.141  10.733 -0.6342  0.6523  3.4004
  181SLPC    HY20702   1.553   6.320  10.730 -1.0768  1.0314 -1.2176
  181SLPC   O3120703   1.457   6.252  10.556 -0.6433  0.2651 -0.2299
  181SLPC   C3120704   1.400   6.146  10.494 -0.0254  0.2612  0.4675
  181SLPC   O3220705   1.400   6.031  10.539  0.3302  0.0049 -0.2029
  181SLPC   C3220706   1.334   6.185  10.371 -0.3355 -0.7994 -0.1555
  181SLPC   H2X20707   1.417   6.235  10.315 -0.8601  0.9768  0.6306
  181SLPC   H2Y20708   1.251   6.256  10.385 -1.9567 -2.6788  0.0272
  181SLPC   C2320709   0.916   6.125  10.703 -0.6359  0.4903 -0.5348
  181SLPC   H3R20710   0.854   6.214  10.725 -2.0141 -0.2440 -1.3364
  181SLPC   H3S20711   0.851   6.037  10.723 -0.8551  0.4604 -1.3406
  181SLPC   C2420712   0.944   6.105  10.555  0.1276 -0.0373 -0.1746
  181SLPC   H4R20713   0.965   5.997  10.536  2.1801  0.4755 -1.0085
  181SLPC   H4S20714   1.036   6.163  10.532  1.5411 -2.1881 -0.1118
  181SLPC   C2520715   0.831   6.145  10.459  0.3003  0.1367  0.1922
  181SLPC   H5R20716   0.776   6.224  10.514 -2.7100 -3.2518  2.2165
  181SLPC   H5S20717   0.763   6.060  10.441  1.0405  0.1927 -3.3537
  181SLPC   C2620718   0.874   6.199  10.319 -0.0599 -0.7112  1.0167
  181SLPC   H6R20719   0.901   6.105  10.267  3.1853  0.3133  0.7482
  181SLPC   H6S20720   0.953   6.277  10.328 -0.0920 -0.6558  0.8083
  181SLPC   C2720721   0.754   6.252  10.239 -0.2258  0.2003 -0.8371
  181SLPC   H7R20722   0.735   6.355  10.278  0.5955 -0.4959  1.5335
  181SLPC   H7S20723   0.670   6.181  10.245  0.0324 -0.0597 -0.1532
  181SLPC   C2820724   0.781   6.268  10.086  0.2698  0.4586 -0.8204
  181SLPC   H8R20725   0.774   6.165  10.045  0.6936  0.2915 -0.4876
  181SLPC   H8S20726   0.887   6.301  10.076 -0.4288  3.5586  1.2149
  181SLPC   C2920727   0.698   6.364  10.013  0.4235  0.0731 -0.1093
  181SLPC   H9R20728   0.663   6.448  10.075  0.5403 -0.5279  0.7895
  181SLPC  C21020729   0.660   6.374   9.882 -0.3088  0.3998  0.3179
  181SLPC  H10R20730   0.609   6.466   9.850 -0.9918 -0.3273 -0.6975
  181SLPC  C21120731   0.703   6.285   9.766 -0.2098 -0.2962  0.5033
  181SLPC  H11R20732   0.651   6.187   9.774  1.1418 -1.0177  0.5444
  181SLPC  H11S20733   0.810   6.256   9.771  0.1938  1.2514  1.2518
  181SLPC  C21220734   0.683   6.347   9.626 -0.1735 -0.0496  0.2310
  181SLPC  H12R20735   0.591   6.406   9.608 -0.4692  0.3262  2.7680
  181SLPC  C21320736   0.762   6.329   9.510 -0.7279 -0.0369  0.6471
  181SLPC  H13R20737   0.740   6.391   9.422  0.6850 -2.0205 -1.1564
  181SLPC  C21420738   0.886   6.240   9.500  0.0514  0.5992  0.4129
  181SLPC  H14R20739   0.862   6.139   9.461  0.2496  1.1290 -1.1147
  181SLPC  H14S20740   0.956   6.242   9.587 -1.2296  0.6688  1.4550
  181SLPC  C21520741   0.977   6.286   9.379  0.9282  0.1081  0.2357
  181SLPC  H15R20742   1.077   6.240   9.391  0.7913 -0.2504  0.0137
  181SLPC  H15S20743   0.987   6.396   9.395  0.1647 -0.0052  1.5593
  181SLPC  C21620744   0.919   6.255   9.237 -0.5788 -0.0524  0.2462
  181SLPC  H16R20745   0.818   6.300   9.226 -0.7587 -0.8080 -1.3097
  181SLPC  H16S20746   0.909   6.145   9.228  1.8423 -0.0183 -3.9564
  181SLPC  C21720747   0.998   6.315   9.118  0.0644  0.2304  0.2547
  181SLPC  H17R20748   0.928   6.298   9.033  1.2431 -0.2325 -0.6226
  181SLPC  H17S20749   1.093   6.262   9.097 -1.0935 -2.1283  0.7951
  181SLPC  C21820750   1.014   6.469   9.131 -0.4869  0.3636  0.2333
  181SLPC  H18R20751   1.084   6.495   9.213  0.0468 -2.3586  0.6806
  181SLPC  H18S20752   0.917   6.519   9.153  0.2512  1.5581  0.8629
  181SLPC  H18T20753   1.059   6.518   9.042  0.9177  0.2778  0.8824
  181SLPC   C3320754   1.260   6.073  10.296  0.0789 -0.1160  0.1950
  181SLPC   H3X20755   1.184   6.034  10.367  0.8365 -1.0319  0.5213
  181SLPC   H3Y20756   1.330   5.987  10.295 -0.7282 -1.0115  5.2496
  181SLPC   C3420757   1.199   6.123  10.163  0.0472  0.9134 -0.5196
  181SLPC   H4X20758   1.135   6.212  10.183 -2.1356 -0.5078 -0.9380
  181SLPC   H4Y20759   1.130   6.040  10.135  0.1113  1.2499 -1.6764
  181SLPC   C3520760   1.305   6.159  10.059 -0.1541  0.6083  0.2067
  181SLPC   H5X20761   1.380   6.077  10.050  0.5720  1.3724 -0.8481
  181SLPC   H5Y20762   1.375   6.244  10.078  0.8031 -0.2977  0.7755
  181SLPC   C3620763   1.245   6.176   9.922 -0.0975 -0.0261 -0.3422
  181SLPC   H6X20764   1.164   6.252   9.920 -0.1357 -0.0906 -1.7814
  181SLPC   H6Y20765   1.186   6.085   9.897 -0.8931  0.6654 -0.9737
  181SLPC   C3720766   1.344   6.204   9.799  0.3577 -0.3130 -0.6223
  181SLPC   H7X20767   1.412   6.117   9.789  1.1788  0.3418 -0.8779
  181SLPC   H7Y20768   1.391   6.304   9.812  0.9245 -0.4903 -1.2984
  181SLPC   C3820769   1.257   6.215   9.667 -0.4354  0.6177  0.1060
  181SLPC   H8X20770   1.153   6.253   9.677 -1.1216 -1.5105  1.2436
  181SLPC   H8Y20771   1.249   6.119   9.612 -0.1784  0.7514 -0.1692
  181SLPC   C3920772   1.311   6.314   9.563 -1.1646 -0.3353 -0.8287
  181SLPC   H9X20773   1.355   6.400   9.617  0.2118 -0.9913 -0.8778
  181SLPC   H9Y20774   1.231   6.358   9.499 -0.6603  1.9599  0.0873
  181SLPC  C31020775   1.424   6.250   9.480 -0.3864  0.2695  0.7416
  181SLPC  H10X20776   1.384   6.152   9.445  2.0760 -1.0819  1.5746
  181SLPC  H10Y20777   1.514   6.232   9.543  0.3525  0.5251 -0.2125
  181SLPC  C31120778   1.478   6.332   9.358  0.0629 -0.0940  0.1015
  181SLPC  H11X20779   1.565   6.291   9.304  0.0770  0.8861 -0.6256
  181SLPC  H11Y20780   1.503   6.430   9.402  0.4354  0.1559 -0.6748
  181SLPC  C31220781   1.388   6.358   9.246  0.6400  0.6265  0.6760
  181SLPC  H12X20782   1.296   6.411   9.278 -0.0547 -0.3257  0.3000
  181SLPC  H12Y20783   1.334   6.269   9.207  2.7745  0.2942 -1.5915
  181SLPC  C31320784   1.452   6.436   9.133  0.4435 -0.0731  0.2057
  181SLPC  H13X20785   1.514   6.520   9.171 -1.5518  0.8942  1.3886
  181SLPC  H13Y20786   1.366   6.490   9.089 -1.8295 -2.2232  1.8518
  181SLPC  C31420787   1.519   6.349   9.032  0.4434  0.7041  0.4149
  181SLPC  H14X20788   1.447   6.275   8.990  0.9041 -0.3497  1.4647
  181SLPC  H14Y20789   1.594   6.286   9.083 -0.0845 -0.3370 -0.0665
  181SLPC  C31520790   1.589   6.434   8.927  0.1984 -0.3928  0.6741
  181SLPC  H15X20791   1.641   6.367   8.856  0.7137 -1.7989  2.3520
  181SLPC  H15Y20792   1.666   6.497   8.977  1.9603  0.6165 -3.1502
  181SLPC  C31620793   1.494   6.520   8.846 -0.3077  1.1169  0.5839
  181SLPC  H16X20794   1.438   6.597   8.903 -0.8672  0.1739  1.3302
  181SLPC  H16Y20795   1.417   6.456   8.796  1.2333 -0.7178  0.5111
  181SLPC  C31720796   1.553   6.593   8.726 -0.1874 -0.7884 -0.2897
  181SLPC  H17X20797   1.481   6.599   8.641  2.5381 -1.0599 -2.6696
  181SLPC  H17Y20798   1.639   6.531   8.696  0.9061 -0.7244  2.5150
  181SLPC  C31820799   1.595   6.736   8.755 -0.3077  0.2654  0.0086
  181SLPC  H18X20800   1.625   6.763   8.859 -2.3398 -0.0656  0.7049
  181SLPC  H18Y20801   1.506   6.797   8.728 -1.0253 -1.3041 -1.3064
  181SLPC  H18Z20802   1.668   6.766   8.678  0.4895 -0.2495  0.5579
  182SLPC     N20803   6.439   6.708  11.103 -0.5270  0.0854  0.1825
  182SLPC   C1320804   6.439   6.826  11.190 -0.4286  0.2396  0.5561
  182SLPC  H13A20805   6.349   6.827  11.249  0.7967 -2.4204  2.6172
  182SLPC  H13B20806   6.519   6.828  11.263 -0.1849 -0.2755  0.3065
  182SLPC  H13C20807   6.458   6.910  11.124 -0.0272 -1.2768 -1.2758
  182SLPC   C1420808   6.436   6.582  11.182 -0.0018 -0.4921 -0.1198
  182SLPC  H14A20809   6.430   6.492  11.122 -2.8465 -2.2344  2.6452
  182SLPC  H14B20810   6.523   6.578  11.246 -0.8731 -0.5915  1.0785
  182SLPC  H14C20811   6.346   6.586  11.240 -0.2215  0.8648 -0.5505
  182SLPC   C1520812   6.572   6.701  11.030  0.1264 -0.2030  1.1107
  182SLPC  H15A20813   6.566   6.651  10.935 -1.2377  1.0584  0.5126
  182SLPC  H15B20814   6.586   6.805  11.004  0.4245 -0.7446 -0.9829
  182SLPC  H15C20815   6.655   6.670  11.091  0.4214 -1.6210 -0.0060
  182SLPC   C1220816   6.321   6.700  11.005  0.2175 -0.3919 -0.3496
  182SLPC  H12A20817   6.227   6.720  11.056 -0.4214 -1.2518 -1.1770
  182SLPC  H12B20818   6.312   6.594  10.984 -0.4412 -0.6563  1.1509
  182SLPC   C1120819   6.338   6.799  10.884  1.3685 -0.2845  0.1896
  182SLPC  H11A20820   6.248   6.771  10.825  2.0029 -0.6009 -0.6235
  182SLPC  H11B20821   6.436   6.771  10.840  2.5292  4.2529 -0.3830
  182SLPC     P20822   6.211   7.011  10.960 -0.0324  0.1474  0.4669
  182SLPC   O1320823   6.137   6.946  11.073 -0.0402 -0.2358 -0.1049
  182SLPC   O1420824   6.247   7.150  10.991  0.5717 -0.2024 -0.4448
  182SLPC   O1220825   6.339   6.938  10.923 -0.0992  0.5780  0.8597
  182SLPC   O1120826   6.103   7.008  10.848  0.1744  0.7683 -0.1902
  182SLPC    C120827   6.142   7.018  10.705 -0.2018  1.0894 -0.1433
  182SLPC    HA20828   6.250   6.997  10.694  0.1317  1.7658  1.6294
  182SLPC    HB20829   6.090   6.937  10.649  0.5092 -1.8274  3.2289
  182SLPC    C220830   6.101   7.154  10.639 -0.2058 -0.2902 -0.4128
  182SLPC    HS20831   6.069   7.126  10.536 -1.9205 -0.8627  0.2498
  182SLPC   O2120832   6.202   7.247  10.631  0.1541  0.1703  0.6189
  182SLPC   C2120833   6.308   7.213  10.555 -0.5454 -0.2908 -0.5062
  182SLPC   O2220834   6.317   7.112  10.485  0.0739 -0.1365 -0.4258
  182SLPC   C2220835   6.433   7.309  10.554  0.5407  0.1944 -0.5099
  182SLPC   H2R20836   6.467   7.314  10.660 -0.1752  1.1644 -0.3160
  182SLPC   H2S20837   6.507   7.271  10.481  0.3323 -0.7103 -0.2485
  182SLPC    C320838   5.987   7.225  10.711 -0.2836  0.0971  0.5573
  182SLPC    HX20839   6.020   7.269  10.807 -1.1303 -1.2555  1.4871
  182SLPC    HY20840   5.914   7.145  10.739 -0.5333  0.0220 -0.2965
  182SLPC   O3120841   5.918   7.316  10.627 -0.1872  0.2086 -0.8565
  182SLPC   C3120842   5.951   7.447  10.635 -0.1277 -0.1887  0.3897
  182SLPC   O3220843   6.048   7.493  10.690  0.5290  0.3017  0.5815
  182SLPC   C3220844   5.850   7.518  10.554  0.0932 -0.6049  0.2595
  182SLPC   H2X20845   5.768   7.544  10.624 -0.0191 -1.2741  0.3733
  182SLPC   H2Y20846   5.809   7.459  10.469  0.0624  1.3604 -1.1144
  182SLPC   C2320847   6.388   7.450  10.513  0.4792  0.1891 -0.4159
  182SLPC   H3R20848   6.474   7.519  10.526 -0.7214  1.2758  2.0370
  182SLPC   H3S20849   6.303   7.482  10.576  2.5224  1.3960  1.7919
  182SLPC   C2420850   6.325   7.446  10.372 -0.8271  0.6071 -0.8681
  182SLPC   H4R20851   6.297   7.545  10.330 -1.2233  0.6900 -0.4145
  182SLPC   H4S20852   6.231   7.388  10.381 -0.9585  1.3790  3.6776
  182SLPC   C2520853   6.418   7.378  10.267 -0.5241 -0.2042  0.1452
  182SLPC   H5R20854   6.414   7.268  10.279  3.7008 -0.4993 -0.4363
  182SLPC   H5S20855   6.521   7.414  10.283 -0.7653  0.3660  0.4198
  182SLPC   C2620856   6.375   7.399  10.123 -0.2022 -0.3025 -0.3871
  182SLPC   H6R20857   6.366   7.507  10.100  0.2025 -0.3478 -0.7639
  182SLPC   H6S20858   6.272   7.357  10.124 -0.5338  0.5159  0.6843
  182SLPC   C2720859   6.465   7.337  10.017 -0.3609 -0.1613 -0.5607
  182SLPC   H7R20860   6.509   7.241  10.051  1.9909  1.7318  1.9876
  182SLPC   H7S20861   6.560   7.396  10.015  0.0955 -0.7585  1.6560
  182SLPC   C2820862   6.405   7.326   9.877  0.5775 -0.4002  0.0795
  182SLPC   H8R20863   6.482   7.341   9.799 -0.2618  2.6629 -0.2226
  182SLPC   H8S20864   6.330   7.408   9.870  0.5447 -0.3935  0.5027
  182SLPC   C2920865   6.341   7.193   9.849  0.3071 -0.3403  0.1743
  182SLPC   H9R20866   6.405   7.106   9.872  2.1669  0.5938 -1.3173
  182SLPC  C21020867   6.222   7.168   9.788 -0.7111  0.0845  0.3491
  182SLPC  H10R20868   6.200   7.060   9.782 -0.8543  0.2025 -1.4440
  182SLPC  C21120869   6.112   7.255   9.732 -0.2989 -0.7264  0.4469
  182SLPC  H11R20870   6.084   7.326   9.812  1.5691  1.7987 -1.0786
  182SLPC  H11S20871   6.023   7.189   9.725  0.4480 -1.6060 -1.1198
  182SLPC  C21220872   6.135   7.329   9.604  0.0979  0.4878 -0.2817
  182SLPC  H12R20873   6.190   7.423   9.621  2.3694 -1.4419  3.9128
  182SLPC  C21320874   6.109   7.280   9.482 -0.1856  0.6870  1.0194
  182SLPC  H13R20875   6.122   7.342   9.392 -2.1818 -1.7809 -1.0429
  182SLPC  C21420876   6.059   7.146   9.449  0.6082  0.0826  0.1318
  182SLPC  H14R20877   5.948   7.159   9.449  0.8092  2.0626  0.0043
  182SLPC  H14S20878   6.081   7.073   9.529  1.5535  0.0013 -0.1941
  182SLPC  C21520879   6.106   7.087   9.315  0.4328 -0.9286 -0.3791
  182SLPC  H15R20880   6.061   6.986   9.310 -1.4309  0.0112 -3.9715
  182SLPC  H15S20881   6.217   7.086   9.311  0.4334  1.7320 -2.2407
  182SLPC  C21620882   6.059   7.165   9.196 -0.8029 -0.0167  0.6412
  182SLPC  H16R20883   6.113   7.114   9.113 -2.8277  0.0064 -0.6964
  182SLPC  H16S20884   6.102   7.267   9.188  0.0481 -0.6133 -3.7046
  182SLPC  C21720885   5.910   7.165   9.160 -0.7573  0.5875 -1.0508
  182SLPC  H17R20886   5.863   7.219   9.244  2.2278 -0.5966  1.5082
  182SLPC  H17S20887   5.873   7.062   9.141 -0.9461  0.5669 -0.5586
  182SLPC  C21820888   5.886   7.245   9.031 -0.4390 -0.0153 -0.9285
  182SLPC  H18R20889   5.906   7.187   8.939  0.3177 -0.1837 -0.6601
  182SLPC  H18S20890   5.938   7.342   9.025  0.4386 -0.3169  1.4020
  182SLPC  H18T20891   5.776   7.265   9.030 -0.7325 -1.5506 -0.6123
  182SLPC   C3320892   5.901   7.648  10.483 -0.2220 -0.5460  0.0827
  182SLPC   H3X20893   5.967   7.703  10.552  0.2412 -2.0566  0.8600
  182SLPC   H3Y20894   5.816   7.718  10.464  1.7382  1.7702 -0.3637
  182SLPC   C3420895   5.978   7.625  10.356 -0.1399 -0.1923  0.1153
  182SLPC   H4X20896   5.913   7.573  10.283  0.9841  0.8527 -1.6616
  182SLPC   H4Y20897   6.067   7.559  10.365 -0.4450 -0.7646 -1.0621
  182SLPC   C3520898   6.030   7.744  10.292  0.1781  0.2208 -0.2393
  182SLPC   H5X20899   6.113   7.783  10.355  0.0826  0.3949 -0.2217
  182SLPC   H5Y20900   5.948   7.818  10.286 -1.5713 -1.5514  1.0544
  182SLPC   C3620901   6.072   7.734  10.144  0.0541 -0.5871  0.1406
  182SLPC   H6X20902   6.141   7.649  10.126 -0.0439 -0.4360 -1.0183
  182SLPC   H6Y20903   6.118   7.834  10.128 -1.9401  0.3691  0.2101
  182SLPC   C3720904   5.965   7.723  10.041  0.2609 -0.5342 -0.2511
  182SLPC   H7X20905   5.903   7.815  10.052  0.3500 -0.0479 -3.2240
  182SLPC   H7Y20906   5.896   7.638  10.057  0.2815 -0.6071 -0.5482
  182SLPC   C3820907   6.009   7.737   9.896  0.0405 -0.1460  0.2206
  182SLPC   H8X20908   6.052   7.639   9.868 -0.5407 -0.3338 -0.0329
  182SLPC   H8Y20909   6.084   7.814   9.869  0.9753 -0.5372  1.6276
  182SLPC   C3920910   5.880   7.736   9.811  0.1824  0.0304 -0.5431
  182SLPC   H9X20911   5.840   7.839   9.811 -0.6007 -0.2266  2.1821
  182SLPC   H9Y20912   5.794   7.675   9.846 -0.3844 -0.4556 -2.7119
  182SLPC  C31020913   5.903   7.680   9.668 -0.0095 -1.0672 -0.1902
  182SLPC  H10X20914   5.953   7.582   9.677  1.1465 -0.2198  3.0638
  182SLPC  H10Y20915   5.978   7.746   9.619 -2.4095  1.5682 -0.5214
  182SLPC  C31120916   5.774   7.684   9.594  0.3688  0.5160 -0.1179
  182SLPC  H11X20917   5.717   7.777   9.616 -1.2995 -0.7951  1.2959
  182SLPC  H11Y20918   5.721   7.604   9.650  1.3642  0.9728  1.4800
  182SLPC  C31220919   5.779   7.655   9.443 -0.5564  0.2753  0.4062
  182SLPC  H12X20920   5.861   7.587   9.410  1.1332  2.5444 -0.2074
  182SLPC  H12Y20921   5.810   7.746   9.387  0.2738  0.5727  1.3360
  182SLPC  C31320922   5.645   7.600   9.387  0.1214 -0.3824  0.4129
  182SLPC  H13X20923   5.559   7.657   9.429  0.6151 -0.3321  1.3687
  182SLPC  H13Y20924   5.652   7.495   9.423 -2.4936 -0.8361 -0.2665
  182SLPC  C31420925   5.632   7.582   9.233 -0.7211 -0.6257  0.6539
  182SLPC  H14X20926   5.535   7.530   9.217 -0.5801 -0.3157 -1.3669
  182SLPC  H14Y20927   5.701   7.498   9.208  1.2156  0.9593  0.5191
  182SLPC  C31520928   5.657   7.706   9.155 -0.3330 -0.5767  0.4792
  182SLPC  H15X20929   5.764   7.734   9.163 -1.1755  2.6191  1.3422
  182SLPC  H15Y20930   5.615   7.793   9.209  0.3135 -0.5569  0.9465
  182SLPC  C31620931   5.614   7.688   9.007  0.3102 -0.6906 -0.0332
  182SLPC  H16X20932   5.506   7.688   8.984  0.3693 -0.2880 -0.3126
  182SLPC  H16Y20933   5.650   7.594   8.961  0.7374 -0.4844 -0.1294
  182SLPC  C31720934   5.666   7.811   8.935 -0.0576 -0.1127 -0.4051
  182SLPC  H17X20935   5.777   7.806   8.940 -0.1179 -1.4466  0.0073
  182SLPC  H17Y20936   5.640   7.910   8.976  1.4432 -0.6499  1.9729
  182SLPC  C31820937   5.618   7.814   8.788 -0.1815  0.2762  0.3948
  182SLPC  H18X20938   5.514   7.773   8.787  0.0548 -0.4481  2.6141
  182SLPC  H18Y20939   5.684   7.759   8.718 -2.0448 -0.1968 -1.0219
  182SLPC  H18Z20940   5.612   7.923   8.766 -2.0578  0.4526  1.6222
  183SLPC     N20941   1.282   0.957  10.858  0.2077 -0.3870 -0.4198
  183SLPC   C1320942   1.368   0.855  10.925  0.8371  0.7870 -0.1895
  183SLPC  H13A20943   1.448   0.811  10.866 -0.7577 -1.6719 -0.6171
  183SLPC  H13B20944   1.405   0.894  11.018  0.3073 -1.2007  0.8868
  183SLPC  H13C20945   1.323   0.768  10.971 -3.5978  2.3567 -1.3080
  183SLPC   C1420946   1.345   1.086  10.831 -0.2293 -0.0135 -0.2668
  183SLPC  H14A20947   1.399   1.083  10.737  0.0043 -0.4654 -0.1198
  183SLPC  H14B20948   1.261   1.153  10.835 -1.1891 -1.2884  2.0274
  183SLPC  H14C20949   1.415   1.112  10.910 -0.6268  1.2610 -0.3360
  183SLPC   C1520950   1.179   0.992  10.953  0.9006  0.2503  0.1088
  183SLPC  H15A20951   1.103   1.058  10.914 -0.4920  0.5534  3.1810
  183SLPC  H15B20952   1.112   0.912  10.982 -0.2530  1.3460  0.5300
  183SLPC  H15C20953   1.216   1.043  11.041  0.5526 -1.1861  1.1207
  183SLPC   C1220954   1.217   0.888  10.736  0.5829 -0.6304  0.5996
  183SLPC  H12A20955   1.159   0.802  10.763  1.5397 -0.9642  1.6655
  183SLPC  H12B20956   1.300   0.855  10.675  0.7883  2.2728 -0.7868
  183SLPC   C1120957   1.131   0.985  10.653  0.2514 -0.4417  0.2512
  183SLPC  H11A20958   1.091   0.929  10.565  2.5309 -2.2956  0.3661
  183SLPC  H11B20959   1.208   1.059  10.619 -1.0497  0.1903 -1.4425
  183SLPC     P20960   0.976   1.191  10.728 -0.1488 -0.1546  0.0377
  183SLPC   O1320961   0.835   1.192  10.778 -0.0008 -0.5524  0.8163
  183SLPC   O1420962   1.080   1.276  10.793 -0.5422  0.0159  0.1330
  183SLPC   O1220963   1.018   1.035  10.727 -0.9994 -0.0009 -0.3715
  183SLPC   O1120964   0.975   1.217  10.573 -0.4455  0.1718 -0.8310
  183SLPC    C120965   0.858   1.243  10.496  0.2834 -0.6750  0.7917
  183SLPC    HA20966   0.795   1.323  10.540 -3.1069 -3.5940  1.4688
  183SLPC    HB20967   0.894   1.276  10.396 -1.6313  0.2139  0.3760
  183SLPC    C220968   0.772   1.114  10.474  0.4606  0.6195  0.1151
  183SLPC    HS20969   0.737   1.074  10.571  0.2813 -1.3828 -0.7601
  183SLPC   O2120970   0.855   1.011  10.417 -0.2378  0.2194  0.2354
  183SLPC   C2120971   0.804   0.889  10.408  0.3690 -0.3111 -0.1365
  183SLPC   O2220972   0.691   0.861  10.446  0.0783  0.2144 -0.0990
  183SLPC   C2220973   0.918   0.790  10.376  0.3884  1.1117 -0.2788
  183SLPC   H2R20974   0.992   0.788  10.458  0.0920 -0.6068 -0.0235
  183SLPC   H2S20975   0.866   0.692  10.365  1.4701  0.2230  2.2627
  183SLPC    C320976   0.644   1.144  10.392 -0.2612 -0.4275 -0.5872
  183SLPC    HX20977   0.597   1.229  10.445  1.9678  0.2708  0.2965
  183SLPC    HY20978   0.570   1.060  10.386 -1.5112  0.6327 -0.1892
  183SLPC   O3120979   0.669   1.199  10.260 -0.2389  0.0711 -0.1619
  183SLPC   C3120980   0.554   1.225  10.196  0.0152 -0.1929 -0.2430
  183SLPC   O3220981   0.442   1.224  10.249 -0.7123  0.5361 -0.2037
  183SLPC   C3220982   0.573   1.223  10.038  0.2345  0.4224  0.2619
  183SLPC   H2X20983   0.668   1.165  10.027  0.2272  0.3682  0.4847
  183SLPC   H2Y20984   0.595   1.326  10.003 -0.9515  1.0965  1.4556
  183SLPC   C2320985   0.981   0.836  10.241  0.2570  0.2980 -0.2785
  183SLPC   H3R20986   1.066   0.768  10.217  1.1502  1.2914  0.0420
  183SLPC   H3S20987   1.019   0.939  10.256 -1.8180  0.9448  0.7001
  183SLPC   C2420988   0.895   0.820  10.122 -0.3658 -0.3515 -0.0135
  183SLPC   H4R20989   0.791   0.844  10.153  0.0162  1.0265  0.2564
  183SLPC   H4S20990   0.887   0.715  10.088  0.0041  0.2593 -2.1064
  183SLPC   C2520991   0.938   0.895   9.994 -0.5329  0.1083  0.0098
  183SLPC   H5R20992   1.035   0.860   9.951 -1.7781 -1.8649 -1.2847
  183SLPC   H5S20993   0.940   1.000  10.028  0.8283 -0.5661  2.0976
  183SLPC   C2620994   0.840   0.866   9.883 -1.1273  0.0953 -0.1051
  183SLPC   H6R20995   0.743   0.913   9.910 -1.0778 -0.7649  1.7010
  183SLPC   H6S20996   0.822   0.759   9.863 -2.1813  0.3419 -0.5229
  183SLPC   C2720997   0.895   0.928   9.757  0.8231  0.1990  0.6806
  183SLPC   H7R20998   0.980   0.872   9.712 -1.3391 -1.3936 -1.5599
  183SLPC   H7S20999   0.933   1.028   9.784  0.5924  0.4401  0.1186
  183SLPC   C2821000   0.796   0.952   9.643  0.1616  1.5235  0.2879
  183SLPC   H8R21001   0.843   1.022   9.569 -0.6042 -1.5587 -3.2766
  183SLPC   H8S21002   0.708   1.007   9.681  0.0887  0.3081  1.9098
  183SLPC   C2921003   0.737   0.822   9.581 -0.1975  0.0840 -1.0169
  183SLPC   H9R21004   0.759   0.728   9.634  0.9685  0.4223 -0.8902
  183SLPC  C21021005   0.653   0.823   9.479 -1.1600 -0.0680  1.0570
  183SLPC  H10R21006   0.620   0.731   9.428 -1.0967 -0.7985  2.3414
  183SLPC  C21121007   0.595   0.947   9.418 -0.5017 -0.2714  0.3579
  183SLPC  H11R21008   0.575   0.916   9.313  2.3902 -1.5618  0.1352
  183SLPC  H11S21009   0.679   1.020   9.416 -1.3467  0.6856 -1.3912
  183SLPC  C21221010   0.481   1.010   9.492 -0.4209  0.6175  0.3997
  183SLPC  H12R21011   0.476   0.973   9.595 -1.8048  0.7031  0.3722
  183SLPC  C21321012   0.374   1.078   9.450 -0.3347 -0.2734  0.4035
  183SLPC  H13R21013   0.299   1.129   9.514  0.0733  0.8108  0.0359
  183SLPC  C21421014   0.359   1.104   9.300 -0.2259  0.1346 -0.1083
  183SLPC  H14R21015   0.459   1.108   9.251 -0.9571 -0.3566 -1.6793
  183SLPC  H14S21016   0.307   1.200   9.277  2.7289  2.1424  1.1867
  183SLPC  C21521017   0.275   0.998   9.226 -0.9465  0.5995  0.4574
  183SLPC  H15R21018   0.324   0.899   9.236 -0.8595  0.7853  1.8748
  183SLPC  H15S21019   0.280   1.021   9.117  1.8063 -0.7279  0.2714
  183SLPC  C21621020   0.131   0.984   9.282 -0.6394  0.2365  0.4287
  183SLPC  H16R21021   0.072   1.070   9.245 -0.1277  0.0886 -0.7566
  183SLPC  H16S21022   0.139   1.003   9.391  0.4219  0.0056  0.4009
  183SLPC  C21721023   0.059   0.850   9.260  0.3778  0.2577  0.2737
  183SLPC  H17R21024  -0.045   0.847   9.299  0.6292 -4.4124  0.9387
  183SLPC  H17S21025   0.125   0.769   9.299 -1.6864 -1.6128  0.0552
  183SLPC  C21821026   0.046   0.817   9.110  0.0287 -0.0957  0.2870
  183SLPC  H18R21027  -0.002   0.897   9.051 -1.1121 -1.4923 -0.7258
  183SLPC  H18S21028  -0.026   0.733   9.100 -3.7736  3.0548  0.0700
  183SLPC  H18T21029   0.145   0.798   9.064 -0.0556 -0.6088  0.3112
  183SLPC   C3321030   0.452   1.168   9.963  0.6168 -0.2414 -0.1814
  183SLPC   H3X21031   0.468   1.209   9.860 -0.2969 -0.6066 -0.4750
  183SLPC   H3Y21032   0.360   1.224   9.990  0.4963 -0.4822 -0.0976
  183SLPC   C3421033   0.419   1.018   9.957 -0.3635  0.4051  0.6195
  183SLPC   H4X21034   0.393   0.967  10.052  3.7182 -0.5005  1.3430
  183SLPC   H4Y21035   0.515   0.969   9.930 -0.7255  1.0904 -2.1075
  183SLPC   C3521036   0.322   0.978   9.838 -0.4684 -0.1858 -0.1930
  183SLPC   H5X21037   0.345   1.042   9.750  1.1435  0.8475  0.9303
  183SLPC   H5Y21038   0.220   1.013   9.862 -0.6860 -0.2884 -0.9706
  183SLPC   C3621039   0.327   0.835   9.793 -0.5535  0.3620  0.8370
  183SLPC   H6X21040   0.304   0.771   9.881 -0.9407  1.0064  1.2063
  183SLPC   H6Y21041   0.431   0.805   9.766 -1.7813 -1.2401 -2.3924
  183SLPC   C3721042   0.234   0.789   9.679 -0.6039 -0.1210 -0.2408
  183SLPC   H7X21043   0.266   0.684   9.664  0.2293  0.5662 -3.6457
  183SLPC   H7Y21044   0.256   0.838   9.582  0.1025  0.8961  0.4227
  183SLPC   C3821045   0.088   0.792   9.713 -0.7025 -0.1270  0.0339
  183SLPC   H8X21046   0.068   0.896   9.748 -4.5900 -0.7416 -0.1067
  183SLPC   H8Y21047   0.072   0.730   9.804  1.2820  0.0891  0.5633
  183SLPC   C3921048  -0.004   0.768   9.597 -0.6916  0.6728 -0.0576
  183SLPC   H9X21049   0.045   0.693   9.531 -2.8759 -2.9672  2.2483
  183SLPC   H9Y21050  -0.016   0.861   9.538  3.8718  1.8706  0.7060
  183SLPC  C31021051  -0.139   0.714   9.638 -1.0926 -0.1839 -0.2519
  183SLPC  H10X21052  -0.166   0.787   9.717 -0.3215  1.6887 -1.6998
  183SLPC  H10Y21053  -0.127   0.615   9.688  0.1602  0.1633  0.1561
  183SLPC  C31121054  -0.252   0.703   9.535 -0.5220 -0.3321 -0.7137
  183SLPC  H11X21055  -0.266   0.805   9.494  0.3312  1.1686  2.5105
  183SLPC  H11Y21056  -0.350   0.681   9.582 -1.5988  0.0553 -2.7605
  183SLPC  C31221057  -0.217   0.613   9.411 -0.1012 -0.1185 -0.3325
  183SLPC  H12X21058  -0.188   0.510   9.440  1.2829  0.4238  0.2459
  183SLPC  H12Y21059  -0.137   0.660   9.349  0.2573 -1.0851 -0.6234
  183SLPC  C31321060  -0.330   0.597   9.318 -0.1195  0.1678 -1.0154
  183SLPC  H13X21061  -0.353   0.699   9.282 -0.4240  0.2261 -0.6590
  183SLPC  H13Y21062  -0.417   0.559   9.376 -1.2042 -1.3955 -3.5842
  183SLPC  C31421063  -0.276   0.513   9.199  0.0716  0.7222  0.4521
  183SLPC  H14X21064  -0.281   0.405   9.228 -0.5857  0.4254 -0.7267
  183SLPC  H14Y21065  -0.170   0.537   9.177 -0.9943  1.0049 -5.2266
  183SLPC  C31521066  -0.360   0.523   9.063 -0.8070  0.0993  0.1320
  183SLPC  H15X21067  -0.464   0.559   9.077 -1.3950 -2.2593  2.3342
  183SLPC  H15Y21068  -0.373   0.418   9.028 -0.9984 -0.7357  2.6027
  183SLPC  C31621069  -0.290   0.614   8.954  0.0791  0.0539 -0.1197
  183SLPC  H16X21070  -0.250   0.707   9.000 -0.4564  0.6576 -0.8598
  183SLPC  H16Y21071  -0.364   0.648   8.878  0.7281 -0.5834 -1.0454
  183SLPC  C31721072  -0.173   0.548   8.876 -0.2356  0.3375  0.1141
  183SLPC  H17X21073  -0.222   0.460   8.829 -1.3834  0.0020  1.8916
  183SLPC  H17Y21074  -0.095   0.513   8.947  0.0280  1.8269  0.5734
  183SLPC  C31821075  -0.106   0.625   8.762  0.2135 -0.0365 -0.3157
  183SLPC  H18X21076  -0.046   0.554   8.703  0.9779  2.1157 -2.2168
  183SLPC  H18Y21077  -0.029   0.699   8.793 -2.0537  1.6209  1.6366
  183SLPC  H18Z21078  -0.180   0.687   8.705  2.3452 -0.1126 -3.2748
  184SLPC     N21079   2.826   5.589  10.922 -0.4343 -0.0036 -0.0122
  184SLPC   C1321080   2.801   5.726  10.988 -0.2004 -0.4135 -0.1831
  184SLPC  H13A21081   2.870   5.795  10.943 -0.7422  0.3896  0.2071
  184SLPC  H13B21082   2.704   5.771  10.973  0.3678  0.4206 -1.4241
  184SLPC  H13C21083   2.828   5.727  11.092  3.3794  0.3749 -1.0689
  184SLPC   C1421084   2.744   5.483  10.984  0.3613 -0.3949  0.2599
  184SLPC  H14A21085   2.742   5.476  11.091 -2.3099 -0.2853  0.2700
  184SLPC  H14B21086   2.640   5.503  10.960  0.1865  0.1234  1.4320
  184SLPC  H14C21087   2.778   5.390  10.940 -2.5434 -1.6142  0.4365
  184SLPC   C1521088   2.975   5.558  10.961  0.4348 -0.7743  0.6119
  184SLPC  H15A21089   2.999   5.453  10.949 -0.4896 -1.2099  2.3998
  184SLPC  H15B21090   3.044   5.630  10.920 -2.5036  0.2689 -2.7849
  184SLPC  H15C21091   2.990   5.584  11.064  1.8768  1.7672 -0.1944
  184SLPC   C1221092   2.812   5.613  10.770  0.3043  0.0615  0.7104
  184SLPC  H12A21093   2.883   5.692  10.754  1.9597 -1.6418 -0.4970
  184SLPC  H12B21094   2.711   5.646  10.751  0.4630  1.8914  2.8396
  184SLPC   C1121095   2.852   5.496  10.674  0.4818  0.0032 -0.1861
  184SLPC  H11A21096   2.955   5.472  10.709  0.1348 -1.5412 -0.1819
  184SLPC  H11B21097   2.865   5.528  10.569  0.6326  0.4710 -0.0238
  184SLPC     P21098   2.609   5.413  10.633  0.1649 -0.4125  0.2775
  184SLPC   O1321099   2.537   5.282  10.629  0.1918  0.4674  0.0528
  184SLPC   O1421100   2.547   5.520  10.712  0.0447 -0.1872  0.4563
  184SLPC   O1221101   2.755   5.389  10.685 -0.0176 -0.5271 -0.2765
  184SLPC   O1121102   2.628   5.466  10.481  0.1107 -0.1085  0.3498
  184SLPC    C121103   2.650   5.365  10.379 -0.1796 -0.4365  0.3931
  184SLPC    HA21104   2.568   5.290  10.368  0.7185 -1.0823 -2.0626
  184SLPC    HB21105   2.644   5.424  10.285 -0.0331  2.2995  2.0544
  184SLPC    C221106   2.789   5.290  10.373  0.6779  0.0246 -0.5123
  184SLPC    HS21107   2.800   5.244  10.473 -1.4839  1.8220  0.5956
  184SLPC   O2121108   2.906   5.370  10.345 -0.6404  0.9234  0.7220
  184SLPC   C2121109   3.017   5.323  10.396  0.0861 -0.1746 -0.2219
  184SLPC   O2221110   3.027   5.223  10.461 -0.0454  0.2995  0.3494
  184SLPC   C2221111   3.135   5.405  10.360 -0.2438  0.1335 -0.2809
  184SLPC   H2R21112   3.120   5.515  10.362  0.8485  0.2842  0.0633
  184SLPC   H2S21113   3.210   5.380  10.438  0.5551 -1.0183 -1.4107
  184SLPC    C321114   2.778   5.174  10.272 -0.1609  0.0058  0.1609
  184SLPC    HX21115   2.692   5.115  10.311 -0.2807 -0.5582 -0.9392
  184SLPC    HY21116   2.863   5.103  10.279 -1.0446 -0.9841  1.1727
  184SLPC   O3121117   2.745   5.223  10.141 -0.4194 -0.9788 -0.2962
  184SLPC   C3121118   2.681   5.141  10.058 -0.0251 -0.2705 -0.4472
  184SLPC   O3221119   2.615   5.047  10.099  0.1505  0.6962  0.3689
  184SLPC   C3221120   2.694   5.192   9.916  0.3764  1.0810 -0.1602
  184SLPC   H2X21121   2.670   5.108   9.847  0.2023 -0.4706  1.7393
  184SLPC   H2Y21122   2.803   5.211   9.903  0.3900  0.5864 -0.7907
  184SLPC   C2321123   3.199   5.368  10.224  0.0055  0.6773 -0.1305
  184SLPC   H3R21124   3.131   5.382  10.138 -0.5776  3.8325  0.7650
  184SLPC   H3S21125   3.240   5.265  10.232  0.4687  0.9458  1.0693
  184SLPC   C2421126   3.314   5.468  10.190 -1.1521 -0.0690 -0.1803
  184SLPC   H4R21127   3.396   5.459  10.265 -1.0536  0.3268 -0.2401
  184SLPC   H4S21128   3.277   5.569  10.218  2.2879  1.1805  0.1222
  184SLPC   C2521129   3.373   5.461  10.047  0.2283  0.7027  0.3671
  184SLPC   H5R21130   3.303   5.493   9.967 -1.3778 -2.7764  0.2728
  184SLPC   H5S21131   3.382   5.352  10.025  1.4399  1.1271 -1.4269
  184SLPC   C2621132   3.511   5.522  10.034  0.6482  0.2613  0.4592
  184SLPC   H6R21133   3.578   5.475  10.109  0.0403 -1.1298  0.1518
  184SLPC   H6S21134   3.499   5.630  10.052  2.0645  0.2992  1.2311
  184SLPC   C2721135   3.563   5.504   9.887  0.3424  0.7346 -0.6209
  184SLPC   H7R21136   3.531   5.400   9.864 -0.1781  0.1585  2.4787
  184SLPC   H7S21137   3.673   5.498   9.897  0.0015  0.0301  3.7443
  184SLPC   C2821138   3.503   5.612   9.799  0.8449 -0.0561  0.6266
  184SLPC   H8R21139   3.525   5.711   9.844 -0.9494 -0.1824  1.8522
  184SLPC   H8S21140   3.392   5.605   9.800  0.8544 -0.1905  0.7700
  184SLPC   C2921141   3.544   5.588   9.656 -0.5744 -0.1030  0.4037
  184SLPC   H9R21142   3.592   5.489   9.645 -1.9380 -0.6276 -1.0563
  184SLPC  C21021143   3.537   5.672   9.553  0.0738 -0.3021 -0.7896
  184SLPC  H10R21144   3.581   5.636   9.458 -1.4735 -2.5864 -0.6706
  184SLPC  C21121145   3.479   5.809   9.546 -0.1363 -0.5927 -0.4484
  184SLPC  H11R21146   3.388   5.812   9.610  0.5862 -1.3869  0.6326
  184SLPC  H11S21147   3.454   5.828   9.439 -0.6565  0.2723 -0.1849
  184SLPC  C21221148   3.568   5.912   9.609  0.2034 -0.5499 -0.7017
  184SLPC  H12R21149   3.618   5.895   9.706  1.8312  0.3688 -1.3490
  184SLPC  C21321150   3.597   6.030   9.557 -0.8163 -0.4159  1.1763
  184SLPC  H13R21151   3.644   6.106   9.621 -0.6654  0.1159  0.4385
  184SLPC  C21421152   3.551   6.083   9.424  0.7208 -0.0456 -0.1271
  184SLPC  H14R21153   3.563   6.193   9.419 -1.1230  0.1032 -2.0436
  184SLPC  H14S21154   3.441   6.069   9.412  0.1020  2.0814  2.5729
  184SLPC  C21521155   3.618   6.036   9.298  0.0512  0.4544  0.1072
  184SLPC  H15R21156   3.578   5.934   9.282  1.9183 -0.6175  2.0348
  184SLPC  H15S21157   3.728   6.029   9.308 -0.2561 -2.4854  1.9011
  184SLPC  C21621158   3.586   6.123   9.182 -0.5408  0.8771  0.8255
  184SLPC  H16R21159   3.640   6.098   9.088 -2.4566 -1.9836  0.4043
  184SLPC  H16S21160   3.609   6.228   9.209  0.0059  1.3800 -1.5608
  184SLPC  C21721161   3.441   6.105   9.137 -0.0547  0.1462  0.0428
  184SLPC  H17R21162   3.373   6.134   9.220 -1.1285 -0.5109 -0.6093
  184SLPC  H17S21163   3.432   5.995   9.131  3.2995 -0.1873  0.3467
  184SLPC  C21821164   3.407   6.174   9.003  0.0497  0.5715  0.2698
  184SLPC  H18R21165   3.333   6.117   8.943  0.2795 -0.9573  1.4169
  184SLPC  H18S21166   3.499   6.186   8.941  0.6698  0.6923  1.2023
  184SLPC  H18T21167   3.371   6.278   9.020 -0.9999  0.4149 -0.9043
  184SLPC   C3321168   2.609   5.316   9.893 -0.1994 -1.0005 -0.6872
  184SLPC   H3X21169   2.632   5.359   9.794 -2.9058  0.2547 -0.8140
  184SLPC   H3Y21170   2.631   5.392   9.971  3.4337  0.9299 -3.4718
  184SLPC   C3421171   2.450   5.303   9.893  0.6216 -0.6662 -0.0247
  184SLPC   H4X21172   2.417   5.246   9.983 -0.5137 -0.8071 -0.5229
  184SLPC   H4Y21173   2.438   5.238   9.804  0.5159  0.5278 -0.8917
  184SLPC   C3521174   2.381   5.437   9.867 -0.2562  0.9505 -1.2128
  184SLPC   H5X21175   2.402   5.504   9.953  0.1443 -0.5647 -0.1070
  184SLPC   H5Y21176   2.274   5.415   9.886 -0.0938 -1.7686 -3.1577
  184SLPC   C3621177   2.391   5.515   9.737  0.4782  1.0752  0.5796
  184SLPC   H6X21178   2.493   5.556   9.721  1.6237 -1.1427  1.9360
  184SLPC   H6Y21179   2.319   5.599   9.728  1.1385  1.5775 -0.1013
  184SLPC   C3721180   2.388   5.427   9.611 -0.3422 -0.4179  0.2111
  184SLPC   H7X21181   2.291   5.373   9.610 -0.5145 -0.0992 -1.3818
  184SLPC   H7Y21182   2.462   5.345   9.622  1.9967  1.8931  2.2676
  184SLPC   C3821183   2.412   5.507   9.484  0.2008  0.0299  0.1790
  184SLPC   H8X21184   2.511   5.557   9.489  0.3398 -0.1371 -0.8371
  184SLPC   H8Y21185   2.333   5.585   9.472 -1.1959 -0.9976  2.2377
  184SLPC   C3921186   2.405   5.420   9.353 -0.5961  0.3044 -0.4756
  184SLPC   H9X21187   2.310   5.363   9.352  0.9502 -2.4050  2.1002
  184SLPC   H9Y21188   2.488   5.346   9.351 -0.9820 -0.1275 -0.5988
  184SLPC  C31021189   2.414   5.507   9.224 -0.2694 -0.5359  0.4409
  184SLPC  H10X21190   2.513   5.556   9.214 -0.5533 -0.2701 -1.1547
  184SLPC  H10Y21191   2.326   5.574   9.212  0.8644  1.3077  2.1251
  184SLPC  C31121192   2.404   5.413   9.095 -0.2150  0.3371  0.0922
  184SLPC  H11X21193   2.303   5.368   9.084 -0.0677  0.3796 -1.6431
  184SLPC  H11Y21194   2.487   5.339   9.095 -0.7936 -0.3163  0.2341
  184SLPC  C31221195   2.414   5.483   8.961  0.1360 -0.0106 -0.0304
  184SLPC  H12X21196   2.329   5.555   8.957 -0.7435 -1.0583 -0.5627
  184SLPC  H12Y21197   2.401   5.409   8.879 -2.3734  0.0321  0.2821
  184SLPC  C31321198   2.545   5.565   8.932  0.1891  0.3500  0.0748
  184SLPC  H13X21199   2.630   5.494   8.925 -0.2654 -0.1277 -0.6133
  184SLPC  H13Y21200   2.561   5.645   9.008  0.1749 -1.5523  2.1248
  184SLPC  C31421201   2.545   5.638   8.794 -0.7106 -0.0129 -0.2024
  184SLPC  H14X21202   2.636   5.702   8.798  0.2790 -1.3863 -0.3216
  184SLPC  H14Y21203   2.455   5.702   8.785  0.7615  2.1307 -0.1851
  184SLPC  C31521204   2.584   5.546   8.675  0.0277 -0.4443 -0.0425
  184SLPC  H15X21205   2.496   5.483   8.646  0.3647 -1.9284  2.0450
  184SLPC  H15Y21206   2.652   5.463   8.704 -0.6730 -1.6879 -1.8600
  184SLPC  C31621207   2.624   5.625   8.549  0.1625 -1.2480 -1.0350
  184SLPC  H16X21208   2.694   5.709   8.573 -1.7874  0.4727 -1.2543
  184SLPC  H16Y21209   2.535   5.677   8.510  0.4919 -0.5535 -0.8707
  184SLPC  C31721210   2.687   5.527   8.461 -0.4265 -0.0885  0.2279
  184SLPC  H17X21211   2.611   5.457   8.421 -0.2916 -0.2343  0.2280
  184SLPC  H17Y21212   2.771   5.474   8.510 -0.5928 -0.1698  0.4268
  184SLPC  C31821213   2.744   5.618   8.348 -0.8944 -0.6384 -0.0018
  184SLPC  H18X21214   2.671   5.668   8.281  0.4531  1.2912 -0.0751
  184SLPC  H18Y21215   2.820   5.557   8.293 -0.0411 -0.4014  0.8988
  184SLPC  H18Z21216   2.802   5.698   8.399 -2.1526 -0.0939  0.5808
  185SLPC     N21217   0.082   2.552   6.270 -0.0649  0.0483 -0.4604
  185SLPC   C1321218   0.186   2.451   6.232 -0.4973 -0.3245 -0.0179
  185SLPC  H13A21219   0.244   2.464   6.142 -0.8643  0.1025 -0.1970
  185SLPC  H13B21220   0.261   2.438   6.308  2.5190  1.9319 -2.4895
  185SLPC  H13C21221   0.139   2.354   6.220  1.2450 -1.4123  1.6805
  185SLPC   C1421222  -0.024   2.579   6.169  0.6335 -0.4633  1.4252
  185SLPC  H14A21223  -0.081   2.489   6.149 -0.8278  0.6955  0.2897
  185SLPC  H14B21224  -0.093   2.658   6.197 -0.4105 -0.4594 -1.0626
  185SLPC  H14C21225   0.015   2.588   6.069 -1.2977 -0.9864  0.5988
  185SLPC   C1521226   0.157   2.683   6.291  0.8516  0.0595 -0.0280
  185SLPC  H15A21227   0.179   2.738   6.201  0.4214 -2.2818 -1.5991
  185SLPC  H15B21228   0.100   2.750   6.354 -1.3180  1.6350 -3.5049
  185SLPC  H15C21229   0.250   2.658   6.340  0.7177 -1.8702 -0.7354
  185SLPC   C1221230   0.017   2.523   6.406  0.3263  0.8574 -0.2675
  185SLPC  H12A21231  -0.036   2.611   6.440  1.2450  1.2932  0.0521
  185SLPC  H12B21232   0.103   2.513   6.471 -0.5548 -0.6510  0.6947
  185SLPC   C1121233  -0.075   2.397   6.411 -0.6489 -0.1906 -0.0654
  185SLPC  H11A21234  -0.150   2.403   6.330 -0.6425  1.2737  0.0067
  185SLPC  H11B21235  -0.147   2.399   6.495  0.3616  1.3445  0.7999
  185SLPC     P21236   0.085   2.217   6.520 -0.0833 -0.2517 -0.2731
  185SLPC   O1321237   0.100   2.075   6.483 -0.1731 -0.3684  0.5234
  185SLPC   O1421238   0.200   2.307   6.551 -0.1270 -0.7249 -0.3500
  185SLPC   O1221239   0.007   2.281   6.406  0.1247 -0.1825  0.5153
  185SLPC   O1121240  -0.020   2.228   6.636  0.4310  0.0144  0.4775
  185SLPC    C121241  -0.045   2.124   6.726  0.6279  0.2628  0.5459
  185SLPC    HA21242  -0.134   2.154   6.785  0.5464  0.1488  0.4811
  185SLPC    HB21243  -0.072   2.032   6.670  0.3865  1.3286 -1.1365
  185SLPC    C221244   0.077   2.100   6.820  0.2392  0.4559 -0.7793
  185SLPC    HS21245   0.171   2.079   6.765  0.0496 -0.3306 -0.8115
  185SLPC   O2121246   0.050   1.989   6.907  0.0978  0.2883 -0.0888
  185SLPC   C2121247   0.068   1.867   6.860 -1.0091  0.1275  0.7673
  185SLPC   O2221248   0.080   1.834   6.744  0.2534 -0.1801 -0.1611
  185SLPC   C2221249   0.074   1.773   6.985 -0.7015  0.2103 -0.1015
  185SLPC   H2R21250   0.032   1.824   7.074  1.1137  2.0922 -0.2748
  185SLPC   H2S21251   0.035   1.672   6.959  1.1944 -1.1811  2.2097
  185SLPC    C321252   0.095   2.227   6.903  0.1757  0.4311  0.4367
  185SLPC    HX21253  -0.004   2.246   6.950  1.6477  4.8593  2.0016
  185SLPC    HY21254   0.124   2.309   6.834  2.2655 -1.0099 -0.4468
  185SLPC   O3121255   0.197   2.204   7.003  0.5953  0.3555 -0.3563
  185SLPC   C3121256   0.166   2.217   7.129  0.1357  0.1805 -0.3913
  185SLPC   O3221257   0.056   2.252   7.172  0.3399 -0.4106 -0.1334
  185SLPC   C3221258   0.283   2.171   7.222 -0.0700  0.0703  0.2756
  185SLPC   H2X21259   0.336   2.260   7.262 -0.9594  1.0270 -0.6157
  185SLPC   H2Y21260   0.354   2.110   7.162  2.6773  1.1574  2.3332
  185SLPC   C2321261   0.222   1.746   7.029  0.3611 -0.4940  0.8993
  185SLPC   H3R21262   0.275   1.843   7.044 -1.1048  0.2870  1.1378
  185SLPC   H3S21263   0.272   1.711   6.937  0.8822  0.9137  0.6318
  185SLPC   C2421264   0.236   1.644   7.139  0.1246  0.2720 -0.2263
  185SLPC   H4R21265   0.344   1.626   7.155  0.3908  1.0845 -1.0653
  185SLPC   H4S21266   0.205   1.542   7.107  0.2048  0.4224 -0.7911
  185SLPC   C2521267   0.188   1.665   7.286 -0.1719  0.1978 -0.0614
  185SLPC   H5R21268   0.080   1.684   7.270 -0.1871 -0.1443 -0.3557
  185SLPC   H5S21269   0.233   1.758   7.326  0.5831  0.8776 -2.3649
  185SLPC   C2621270   0.221   1.556   7.383  0.0421  0.0745  0.2007
  185SLPC   H6R21271   0.330   1.534   7.390 -0.3067 -1.9258 -0.4138
  185SLPC   H6S21272   0.187   1.463   7.333 -1.5147  0.5998  0.2532
  185SLPC   C2721273   0.137   1.566   7.514 -0.0791  0.0555 -0.2741
  185SLPC   H7R21274   0.133   1.468   7.565 -2.8424 -0.9045 -2.2064
  185SLPC   H7S21275   0.034   1.596   7.486 -1.2303 -4.2502 -0.9795
  185SLPC   C2821276   0.186   1.670   7.614 -0.0406  0.6750 -0.6511
  185SLPC   H8R21277   0.191   1.770   7.566 -1.8579  2.0988  2.0002
  185SLPC   H8S21278   0.290   1.640   7.638 -0.4997 -0.9968 -0.6884
  185SLPC   C2921279   0.094   1.683   7.735 -0.3271 -0.0128  0.5342
  185SLPC   H9R21280   0.008   1.749   7.720 -0.9573 -0.1013  3.6101
  185SLPC  C21021281   0.113   1.620   7.848 -0.0571 -0.1795 -0.1700
  185SLPC  H10R21282   0.052   1.665   7.928 -0.4169  0.9679 -1.0917
  185SLPC  C21121283   0.218   1.516   7.896  0.8598  0.6505 -0.3870
  185SLPC  H11R21284   0.304   1.520   7.825  1.0986  0.0256 -0.1397
  185SLPC  H11S21285   0.173   1.414   7.896  0.0729  0.9785 -1.5658
  185SLPC  C21221286   0.279   1.555   8.025 -0.3701  0.6846  0.8192
  185SLPC  H12R21287   0.385   1.581   8.012  0.1144 -1.4355  0.4176
  185SLPC  C21321288   0.231   1.529   8.151 -0.3136 -0.6228  0.2334
  185SLPC  H13R21289   0.292   1.553   8.239 -2.5972  2.4528  1.0459
  185SLPC  C21421290   0.093   1.468   8.175  0.5874  0.3054 -0.6249
  185SLPC  H14R21291   0.097   1.374   8.234 -0.0905  2.2133  2.5809
  185SLPC  H14S21292   0.029   1.458   8.084 -0.0750  3.1639 -0.5159
  185SLPC  C21521293   0.005   1.556   8.263  0.4687 -0.2001  0.3246
  185SLPC  H15R21294  -0.090   1.501   8.281  0.6355 -0.3968  0.6131
  185SLPC  H15S21295  -0.004   1.650   8.204  1.9572  0.0735  0.5105
  185SLPC  C21621296   0.047   1.576   8.412 -0.4531 -0.4455  0.1194
  185SLPC  H16R21297   0.156   1.598   8.417 -0.2051 -1.3791 -0.8442
  185SLPC  H16S21298   0.039   1.480   8.466  0.9291  0.0339  1.2193
  185SLPC  C21721299  -0.047   1.666   8.499 -0.2465 -0.5506  0.2172
  185SLPC  H17R21300  -0.034   1.775   8.484 -2.3364  0.1002  2.8276
  185SLPC  H17S21301  -0.017   1.646   8.604  0.9458 -4.0707 -0.7033
  185SLPC  C21821302  -0.195   1.626   8.502  0.4270 -0.1335  0.2758
  185SLPC  H18R21303  -0.254   1.682   8.578  0.1290  1.3189 -1.0109
  185SLPC  H18S21304  -0.216   1.521   8.529  1.5224 -0.5697 -0.5303
  185SLPC  H18T21305  -0.240   1.640   8.401  1.3345  0.7153 -0.0203
  185SLPC   C3321306   0.231   2.098   7.345  0.4223 -0.2822 -0.4531
  185SLPC   H3X21307   0.318   2.065   7.406 -1.7499 -1.3135  2.1819
  185SLPC   H3Y21308   0.166   2.010   7.325  1.5431 -1.2686  0.2130
  185SLPC   C3421309   0.154   2.189   7.445 -1.0400 -0.2893  0.2995
  185SLPC   H4X21310   0.053   2.213   7.407 -0.7613  1.1854  0.4846
  185SLPC   H4Y21311   0.223   2.274   7.462 -0.8196 -0.0097 -1.8603
  185SLPC   C3521312   0.137   2.111   7.574  0.1643  0.2726  0.5653
  185SLPC   H5X21313   0.232   2.062   7.604 -0.1118 -0.8403 -0.3596
  185SLPC   H5Y21314   0.070   2.032   7.533  0.8105  0.0338 -0.0299
  185SLPC   C3621315   0.065   2.194   7.687 -0.0653  0.2573 -0.7450
  185SLPC   H6X21316  -0.040   2.216   7.659 -1.5652 -3.6486  1.3148
  185SLPC   H6Y21317   0.127   2.285   7.703 -0.0904  0.1786 -0.1899
  185SLPC   C3721318   0.059   2.110   7.824 -0.7015  0.4324 -0.2056
  185SLPC   H7X21319   0.166   2.088   7.843 -0.9975  0.9790  2.1910
  185SLPC   H7Y21320   0.007   2.015   7.802 -0.6814  0.4333 -0.2562
  185SLPC   C3821321   0.002   2.178   7.944  0.6445 -0.0700  0.2811
  185SLPC   H8X21322  -0.087   2.242   7.923  1.9841  1.6134 -0.3735
  185SLPC   H8Y21323   0.093   2.236   7.971  1.1146 -0.9273  0.5643
  185SLPC   C3921324  -0.040   2.078   8.053  0.2320 -0.2924 -0.0289
  185SLPC   H9X21325   0.045   2.009   8.070  0.2417 -0.3009 -0.1115
  185SLPC   H9Y21326  -0.127   2.016   8.023 -0.1869 -0.8751  2.2536
  185SLPC  C31021327  -0.075   2.153   8.175  0.1533 -0.0667  0.1569
  185SLPC  H10X21328  -0.171   2.203   8.150  0.7249  1.5558  1.1620
  185SLPC  H10Y21329  -0.000   2.232   8.196 -0.4466  1.2087 -2.3469
  185SLPC  C31121330  -0.078   2.063   8.302 -0.3570  0.1145 -0.9451
  185SLPC  H11X21331   0.020   2.012   8.316 -0.3736  0.6973  1.4559
  185SLPC  H11Y21332  -0.151   1.981   8.282 -0.5618  0.3635 -1.2222
  185SLPC  C31221333  -0.117   2.143   8.428  0.1375  0.3158 -0.0475
  185SLPC  H12X21334  -0.040   2.217   8.456  0.4409 -0.3172  0.7962
  185SLPC  H12Y21335  -0.116   2.069   8.511  2.4281  1.0831  0.6230
  185SLPC  C31321336  -0.252   2.222   8.416  0.1951  0.2164  0.3655
  185SLPC  H13X21337  -0.343   2.160   8.406 -0.1273  0.7819 -0.3171
  185SLPC  H13Y21338  -0.248   2.286   8.325 -0.0590 -2.5147 -1.6364
  185SLPC  C31421339  -0.272   2.317   8.533 -0.1158  0.0189  0.5305
  185SLPC  H14X21340  -0.368   2.368   8.511  0.7775  0.2454 -3.3226
  185SLPC  H14Y21341  -0.194   2.397   8.527  2.5059 -2.5804 -2.2419
  185SLPC  C31521342  -0.265   2.244   8.665  0.8349 -0.0311  0.1137
  185SLPC  H15X21343  -0.159   2.211   8.663  0.6436 -0.6462  0.1579
  185SLPC  H15Y21344  -0.334   2.158   8.670  1.4007 -0.3843  3.0236
  185SLPC  C31621345  -0.282   2.326   8.790  0.3965  0.3769  0.4455
  185SLPC  H16X21346  -0.194   2.392   8.806  0.1136  1.3626 -1.8756
  185SLPC  H16Y21347  -0.280   2.249   8.870  0.4903  0.0009  0.0804
  185SLPC  C31721348  -0.397   2.424   8.781  0.3529 -0.0997  0.3748
  185SLPC  H17X21349  -0.492   2.380   8.745 -1.4638  1.8598  2.5956
  185SLPC  H17Y21350  -0.374   2.507   8.710 -2.6546 -0.6625 -1.3522
  185SLPC  C31821351  -0.432   2.496   8.910  0.2852 -0.1079  0.0314
  185SLPC  H18X21352  -0.516   2.567   8.898  0.9090  0.4629 -1.1026
  185SLPC  H18Y21353  -0.347   2.557   8.948 -0.5712  2.2894 -1.8442
  185SLPC  H18Z21354  -0.453   2.417   8.986  0.5191  0.4188  0.6476
  186SLPC     N21355   0.757   3.647   6.044 -0.0453  0.0697 -0.5725
  186SLPC   C1321356   0.655   3.668   6.146  0.0179 -0.2865 -0.4457
  186SLPC  H13A21357   0.621   3.581   6.200  2.1633  0.7766  2.7505
  186SLPC  H13B21358   0.689   3.734   6.224 -2.0949 -0.3748  0.5820
  186SLPC  H13C21359   0.564   3.708   6.105  0.2495 -0.7485 -1.4393
  186SLPC   C1421360   0.788   3.773   5.971 -0.0668 -0.6557  0.5548
  186SLPC  H14A21361   0.837   3.838   6.042 -2.1649  0.6500  0.8531
  186SLPC  H14B21362   0.842   3.759   5.878  0.1042  0.0769  0.5425
  186SLPC  H14C21363   0.697   3.827   5.949 -1.1154 -2.0563  1.3859
  186SLPC   C1521364   0.713   3.542   5.942 -0.6518  0.8357  0.6749
  186SLPC  H15A21365   0.675   3.456   5.995 -0.6614 -0.7083 -1.7273
  186SLPC  H15B21366   0.625   3.575   5.889 -0.5701 -1.9348 -1.3354
  186SLPC  H15C21367   0.788   3.515   5.868 -3.3487 -1.1190 -1.4699
  186SLPC   C1221368   0.883   3.601   6.124  0.3818 -0.1488  0.0977
  186SLPC  H12A21369   0.966   3.593   6.056 -0.9185 -1.4451 -1.3760
  186SLPC  H12B21370   0.864   3.504   6.169 -1.4743 -0.0596 -0.4792
  186SLPC   C1121371   0.938   3.698   6.237 -0.4622  1.0792 -0.3231
  186SLPC  H11A21372   1.013   3.634   6.290 -1.6079  1.0195  1.2730
  186SLPC  H11B21373   0.865   3.727   6.315 -1.1735 -0.4311 -0.4133
  186SLPC     P21374   1.006   3.951   6.226  0.2320  0.0231 -0.6705
  186SLPC   O1321375   1.143   4.008   6.221  0.2576  1.0639 -0.4819
  186SLPC   O1421376   0.917   4.023   6.136  0.8767 -0.2270 -0.0614
  186SLPC   O1221377   1.009   3.806   6.179  0.1138  0.3433 -0.0358
  186SLPC   O1121378   0.951   3.950   6.376  0.2706  0.1147 -0.1566
  186SLPC    C121379   0.929   4.083   6.435 -0.1331 -0.7929 -0.0945
  186SLPC    HA21380   1.026   4.134   6.452  0.3578 -0.6973 -3.0126
  186SLPC    HB21381   0.872   4.156   6.374  1.4805 -0.1769 -0.8999
  186SLPC    C221382   0.855   4.069   6.573  0.4479 -1.1058 -0.0164
  186SLPC    HS21383   0.828   4.170   6.611  1.5015 -1.3247  1.3601
  186SLPC   O2121384   0.943   4.005   6.667 -0.5823 -1.0351  0.0288
  186SLPC   C2121385   1.033   4.080   6.733 -0.0140  0.8275 -0.5643
  186SLPC   O2221386   1.041   4.203   6.721  0.7245  0.4398  0.0901
  186SLPC   C2221387   1.125   3.994   6.822  0.5088 -0.3401 -0.0529
  186SLPC   H2R21388   1.063   3.942   6.898 -1.0654  2.8814  0.9363
  186SLPC   H2S21389   1.168   3.918   6.754 -2.1190 -1.4067 -0.5772
  186SLPC    C321390   0.721   3.994   6.583 -0.0444  0.8551  0.4413
  186SLPC    HX21391   0.745   3.888   6.561 -2.8932  0.6877 -2.1999
  186SLPC    HY21392   0.657   4.020   6.495  0.4691  2.8642  0.6370
  186SLPC   O3121393   0.646   4.024   6.700  0.5303  0.3367 -0.0067
  186SLPC   C3121394   0.675   3.944   6.803  0.4077 -0.0207  0.1287
  186SLPC   O3221395   0.757   3.856   6.805  0.3144 -0.1543 -0.1394
  186SLPC   C3221396   0.597   3.981   6.931  0.1853 -0.2268  0.5795
  186SLPC   H2X21397   0.490   3.992   6.902  0.7228 -1.5631 -2.1039
  186SLPC   H2Y21398   0.620   4.085   6.960 -0.7855  0.2792 -0.4423
  186SLPC   C2321399   1.238   4.071   6.895 -0.4029 -0.3371 -0.1240
  186SLPC   H3R21400   1.200   4.152   6.960 -1.6260 -1.4422  0.5827
  186SLPC   H3S21401   1.302   4.117   6.817  0.3735  1.1283  1.3549
  186SLPC   C2421402   1.325   3.986   6.990 -0.1717 -0.7628 -0.1898
  186SLPC   H4R21403   1.413   3.940   6.939 -0.5837  0.1298 -1.7393
  186SLPC   H4S21404   1.282   3.893   7.032  1.2566 -0.3189  2.3767
  186SLPC   C2521405   1.390   4.070   7.110 -0.1438  0.3351  0.3248
  186SLPC   H5R21406   1.319   4.147   7.147 -2.8289 -1.9498  0.1223
  186SLPC   H5S21407   1.482   4.120   7.073  0.2684 -1.5903 -1.3728
  186SLPC   C2621408   1.407   3.974   7.229  0.0390  0.8041  0.5701
  186SLPC   H6R21409   1.490   3.908   7.196  0.7349  0.6161  2.6352
  186SLPC   H6S21410   1.321   3.907   7.254  0.4863 -0.0351 -0.0972
  186SLPC   C2721411   1.460   4.049   7.356 -0.4004  0.5964  0.4793
  186SLPC   H7R21412   1.377   4.103   7.405 -0.1625  0.6916  0.7823
  186SLPC   H7S21413   1.542   4.121   7.334 -0.9312  1.2591  0.6626
  186SLPC   C2821414   1.512   3.942   7.461  1.0662 -0.0769 -0.2852
  186SLPC   H8R21415   1.589   3.884   7.406  0.1191 -1.6765  0.0301
  186SLPC   H8S21416   1.430   3.869   7.480 -0.4777  1.7264  0.1589
  186SLPC   C2921417   1.549   4.013   7.591 -0.3596  0.2014 -0.0932
  186SLPC   H9R21418   1.642   4.070   7.588  0.0357 -0.4911 -1.5716
  186SLPC  C21021419   1.467   4.030   7.696 -0.1019 -0.4074  0.5547
  186SLPC  H10R21420   1.490   4.091   7.785 -0.3836 -1.4061  1.3365
  186SLPC  C21121421   1.327   3.983   7.713  0.2339 -0.3838  0.7266
  186SLPC  H11R21422   1.323   3.923   7.806 -0.6248  0.4923  1.2689
  186SLPC  H11S21423   1.300   3.921   7.625  0.3096  1.1527 -0.3923
  186SLPC  C21221424   1.226   4.096   7.726 -0.5465 -0.1809  0.1550
  186SLPC  H12R21425   1.201   4.138   7.627 -0.6807 -0.3209  0.1301
  186SLPC  C21321426   1.189   4.167   7.834  1.2916  0.7439  0.3634
  186SLPC  H13R21427   1.109   4.241   7.817  0.5443 -0.8926 -3.5728
  186SLPC  C21421428   1.225   4.146   7.980 -0.1374 -0.5125  0.3582
  186SLPC  H14R21429   1.331   4.176   7.985 -0.3255  0.6650 -2.4253
  186SLPC  H14S21430   1.217   4.045   8.026 -0.9502 -0.6045  0.0230
  186SLPC  C21521431   1.164   4.249   8.080  0.5406  0.1405  0.1529
  186SLPC  H15R21432   1.056   4.258   8.054  0.8870 -0.9933 -1.7748
  186SLPC  H15S21433   1.210   4.348   8.059  0.2218  0.3940  0.6435
  186SLPC  C21621434   1.178   4.221   8.225  0.4444 -0.6545 -0.2326
  186SLPC  H16R21435   1.280   4.247   8.259  1.3006 -1.4602 -2.1225
  186SLPC  H16S21436   1.156   4.113   8.241 -2.2712 -0.0979  0.0232
  186SLPC  C21721437   1.081   4.315   8.297  0.7995  0.3901  0.1232
  186SLPC  H17R21438   0.979   4.309   8.253  0.3387  2.0772  0.9460
  186SLPC  H17S21439   1.122   4.416   8.275  2.0766 -0.2505 -0.5293
  186SLPC  C21821440   1.067   4.278   8.447 -0.4909 -0.2199 -0.4356
  186SLPC  H18R21441   1.020   4.178   8.456  0.1644 -0.4617  0.3769
  186SLPC  H18S21442   1.014   4.353   8.510 -1.7705 -2.3158  1.0358
  186SLPC  H18T21443   1.170   4.272   8.487 -0.6530  1.3198  0.2717
  186SLPC   C3321444   0.613   3.885   7.046  0.3723 -0.2766 -0.5397
  186SLPC   H3X21445   0.721   3.884   7.073 -0.3080 -1.2525  2.2710
  186SLPC   H3Y21446   0.593   3.778   7.021  1.6344 -1.3900  2.8960
  186SLPC   C3421447   0.529   3.928   7.170  0.0920  0.7046  0.1552
  186SLPC   H4X21448   0.419   3.931   7.155 -0.0078  3.1628  1.1194
  186SLPC   H4Y21449   0.544   4.030   7.211  0.0586  0.5218  0.6206
  186SLPC   C3521450   0.558   3.837   7.287  0.9248  0.0490  0.9407
  186SLPC   H5X21451   0.666   3.845   7.311  1.0995 -1.8329  0.8730
  186SLPC   H5Y21452   0.528   3.739   7.244 -2.1448  0.5978  1.6791
  186SLPC   C3621453   0.460   3.876   7.399 -0.1236  0.2053 -0.0925
  186SLPC   H6X21454   0.355   3.881   7.361 -0.0023 -2.5538 -0.9408
  186SLPC   H6Y21455   0.488   3.975   7.439  0.3427  0.2878 -0.6199
  186SLPC   C3721456   0.469   3.778   7.518  0.8921  0.0246 -0.2207
  186SLPC   H7X21457   0.569   3.750   7.557  1.4678  1.2965 -0.7428
  186SLPC   H7Y21458   0.433   3.679   7.484 -0.7756 -0.0837  1.7533
  186SLPC   C3821459   0.391   3.818   7.642 -0.7966 -1.6152 -0.0362
  186SLPC   H8X21460   0.399   3.737   7.718 -2.0797 -1.6016  0.1292
  186SLPC   H8Y21461   0.284   3.834   7.617 -0.4646 -0.0895 -0.5107
  186SLPC   C3921462   0.440   3.941   7.721  0.5458 -0.7222  0.5237
  186SLPC   H9X21463   0.444   4.030   7.654 -0.0500 -1.8539 -1.0558
  186SLPC   H9Y21464   0.544   3.923   7.756  1.4905  2.3187 -0.5487
  186SLPC  C31021465   0.360   3.980   7.846 -0.4866  0.5877 -0.5259
  186SLPC  H10X21466   0.261   4.010   7.805 -0.9654  0.6096  0.6323
  186SLPC  H10Y21467   0.415   4.071   7.879 -0.4792  0.1741  0.6016
  186SLPC  C31121468   0.336   3.883   7.964 -0.4373 -0.4918  0.5059
  186SLPC  H11X21469   0.437   3.872   8.011  0.3480 -0.9456 -1.2240
  186SLPC  H11Y21470   0.314   3.784   7.919  0.7418 -0.5453  0.0024
  186SLPC  C31221471   0.246   3.944   8.069  0.2175  0.1630  0.2022
  186SLPC  H12X21472   0.144   3.959   8.028 -0.3240 -0.6515  1.2542
  186SLPC  H12Y21473   0.293   4.041   8.096  3.8127 -2.3844  3.7744
  186SLPC  C31321474   0.227   3.855   8.195 -0.2300  0.7007  0.3033
  186SLPC  H13X21475   0.157   3.904   8.266 -1.2781  0.3470 -0.4732
  186SLPC  H13Y21476   0.325   3.859   8.247  0.8020 -0.9920 -1.4345
  186SLPC  C31421477   0.170   3.716   8.159 -0.0425 -0.5846 -0.4867
  186SLPC  H14X21478   0.249   3.665   8.100 -0.7320  1.0508 -2.9019
  186SLPC  H14Y21479   0.083   3.736   8.093 -1.1955 -0.7917  0.9195
  186SLPC  C31521480   0.138   3.615   8.270 -0.3354  0.4647  0.7411
  186SLPC  H15X21481   0.075   3.669   8.343  0.4959  0.2293  1.6366
  186SLPC  H15Y21482   0.236   3.590   8.316 -0.6628 -1.2269  0.5529
  186SLPC  C31621483   0.093   3.481   8.218  0.0699 -0.4426 -0.1667
  186SLPC  H16X21484   0.106   3.403   8.296  1.0417 -0.6730 -0.5428
  186SLPC  H16Y21485   0.175   3.451   8.148  1.1180 -0.4955  1.0616
  186SLPC  C31721486  -0.040   3.475   8.145 -0.5670  0.3577  0.4852
  186SLPC  H17X21487  -0.053   3.372   8.106  0.3714 -0.2016  1.6290
  186SLPC  H17Y21488  -0.037   3.538   8.053  0.7936  0.9833  0.9467
  186SLPC  C31821489  -0.161   3.503   8.235  0.8135 -0.0941  0.4818
  186SLPC  H18X21490  -0.259   3.489   8.185  1.1267  0.8557 -0.4147
  186SLPC  H18Y21491  -0.151   3.607   8.272 -0.2729  0.1939 -0.0054
  186SLPC  H18Z21492  -0.154   3.434   8.321  3.2159  1.5234  1.6178
  187SLPC     N21493   1.012   0.538   6.310  0.8195  0.4109  0.2621
  187SLPC   C1321494   0.997   0.393   6.273  0.3606 -0.2441 -0.2893
  187SLPC  H13A21495   0.990   0.335   6.363 -1.5134  0.5862  0.1269
  187SLPC  H13B21496   0.902   0.380   6.223  0.3513  0.8207 -0.5748
  187SLPC  H13C21497   1.076   0.362   6.207  1.4716  1.3168  0.2723
  187SLPC   C1421498   0.895   0.576   6.400 -0.2748  0.3723  1.2088
  187SLPC  H14A21499   0.911   0.682   6.415 -0.2789  0.8636 -1.9572
  187SLPC  H14B21500   0.798   0.589   6.355  0.8139  0.6538 -1.1160
  187SLPC  H14C21501   0.895   0.521   6.493 -0.1467 -0.9565  0.4268
  187SLPC   C1521502   1.002   0.614   6.183 -0.3043 -0.1188  0.2222
  187SLPC  H15A21503   1.003   0.722   6.184 -1.8564 -0.0922  1.0301
  187SLPC  H15B21504   1.091   0.601   6.124 -0.0376  0.1818  0.5638
  187SLPC  H15C21505   0.916   0.583   6.124  1.0129 -2.0905 -0.7306
  187SLPC   C1221506   1.135   0.579   6.390 -0.5713  0.3783  0.5329
  187SLPC  H12A21507   1.150   0.685   6.404 -0.0980  0.3816  0.0099
  187SLPC  H12B21508   1.218   0.551   6.327  0.6437  2.6896  1.0254
  187SLPC   C1121509   1.156   0.510   6.526  0.3103 -0.5278 -0.0545
  187SLPC  H11A21510   1.150   0.400   6.519 -0.8043 -0.4050 -1.2156
  187SLPC  H11B21511   1.072   0.527   6.597  1.3445 -0.9731  1.3090
  187SLPC     P21512   1.418   0.495   6.541  0.1578 -0.1346  0.4221
  187SLPC   O1321513   1.393   0.383   6.446  0.2465  0.4073 -0.4402
  187SLPC   O1421514   1.488   0.608   6.479  0.4992  0.2700  0.1143
  187SLPC   O1221515   1.281   0.551   6.586 -0.0931  0.3330 -0.2471
  187SLPC   O1121516   1.487   0.447   6.679 -0.6353 -0.0537  0.1793
  187SLPC    C121517   1.439   0.328   6.740  0.6086 -0.1558  0.2652
  187SLPC    HA21518   1.397   0.252   6.670 -0.9756 -0.1499  1.1771
  187SLPC    HB21519   1.525   0.276   6.785  2.9458  1.5990 -2.0056
  187SLPC    C221520   1.321   0.359   6.845  0.9683  0.3398 -0.1610
  187SLPC    HS21521   1.240   0.407   6.786 -1.3260 -0.0290  2.6197
  187SLPC   O2121522   1.368   0.435   6.949  0.2200  0.1285  0.4898
  187SLPC   C2121523   1.280   0.503   7.011  0.6237 -0.0325  0.1028
  187SLPC   O2221524   1.163   0.530   6.978  0.0356  0.2073  0.5213
  187SLPC   C2221525   1.342   0.555   7.139  0.6953 -0.1075 -0.0626
  187SLPC   H2R21526   1.372   0.463   7.193 -1.7466 -1.3656 -0.7404
  187SLPC   H2S21527   1.429   0.618   7.111 -0.4534  0.9450 -1.3399
  187SLPC    C321528   1.261   0.217   6.883 -0.5298  0.7338 -0.2714
  187SLPC    HX21529   1.229   0.169   6.788 -2.0243  1.4492 -0.1531
  187SLPC    HY21530   1.170   0.230   6.946  0.0168 -0.2365  0.7258
  187SLPC   O3121531   1.366   0.130   6.942  0.2269  0.1541  0.3528
  187SLPC   C3121532   1.377   0.152   7.072 -0.1843  0.8950  0.9855
  187SLPC   O3221533   1.309   0.212   7.148 -0.4272  0.2999 -0.0433
  187SLPC   C3221534   1.502   0.086   7.126  0.0324  0.1050 -0.1817
  187SLPC   H2X21535   1.589   0.155   7.126  0.0943  0.0282 -0.0700
  187SLPC   H2Y21536   1.526  -0.010   7.075  2.2429  0.6596 -0.2367
  187SLPC   C2321537   1.240   0.627   7.230  0.0749  0.0829  0.0964
  187SLPC   H3R21538   1.150   0.563   7.236 -0.5657  1.0515  0.9582
  187SLPC   H3S21539   1.200   0.721   7.187 -0.1929  0.7335  1.7358
  187SLPC   C2421540   1.291   0.660   7.370  0.8448  0.2961 -0.7145
  187SLPC   H4R21541   1.246   0.756   7.404  1.0199 -0.0367  0.4875
  187SLPC   H4S21542   1.399   0.682   7.375  1.1770 -1.6092  0.8704
  187SLPC   C2521543   1.264   0.548   7.469 -0.0648  0.4308 -0.0001
  187SLPC   H5R21544   1.313   0.453   7.437 -0.6155  0.9051 -2.3282
  187SLPC   H5S21545   1.154   0.536   7.466  0.2909 -3.1951 -0.8411
  187SLPC   C2621546   1.313   0.581   7.615 -0.2945 -0.4252  0.3643
  187SLPC   H6R21547   1.260   0.675   7.643  0.1437  0.6768 -2.3605
  187SLPC   H6S21548   1.420   0.608   7.606 -0.4995 -0.4457 -2.5901
  187SLPC   C2721549   1.297   0.471   7.719 -0.4307  0.7371  0.2060
  187SLPC   H7R21550   1.350   0.384   7.675 -0.4746  0.9254 -0.2183
  187SLPC   H7S21551   1.191   0.453   7.744 -0.6188  1.1747 -0.2532
  187SLPC   C2821552   1.363   0.508   7.861  0.6197 -0.2096  0.1087
  187SLPC   H8R21553   1.473   0.515   7.851  0.3746  1.4999 -1.8500
  187SLPC   H8S21554   1.344   0.419   7.924  1.8753 -0.6160 -0.0839
  187SLPC   C2921555   1.307   0.638   7.924 -0.6174 -0.6150  0.6789
  187SLPC   H9R21556   1.227   0.682   7.863 -0.0920 -1.1990 -0.4404
  187SLPC  C21021557   1.343   0.689   8.041 -0.6680  0.2094  0.5465
  187SLPC  H10R21558   1.326   0.797   8.048  0.7204  0.4843 -0.0567
  187SLPC  C21121559   1.448   0.636   8.135 -0.5512  0.3586  0.0563
  187SLPC  H11R21560   1.532   0.709   8.129  1.0269 -1.5430 -1.9127
  187SLPC  H11S21561   1.469   0.531   8.106 -1.6857 -0.0671  0.7353
  187SLPC  C21221562   1.393   0.642   8.273  0.1787  0.4146 -0.2972
  187SLPC  H12R21563   1.287   0.615   8.286  0.7692 -2.6533 -1.4236
  187SLPC  C21321564   1.454   0.671   8.394 -0.5190  0.4783  0.2778
  187SLPC  H13R21565   1.390   0.675   8.483 -0.2673 -2.3700  0.6468
  187SLPC  C21421566   1.609   0.681   8.412  0.4078 -0.5682 -1.0333
  187SLPC  H14R21567   1.630   0.769   8.476  1.1788 -1.0799 -0.5824
  187SLPC  H14S21568   1.675   0.684   8.323  1.9766 -1.3862  0.0730
  187SLPC  C21521569   1.673   0.568   8.493  0.1413  1.0846 -0.5693
  187SLPC  H15R21570   1.777   0.593   8.523 -0.2326 -0.0455  1.7769
  187SLPC  H15S21571   1.691   0.487   8.420 -1.8230  0.5309 -0.4630
  187SLPC  C21621572   1.588   0.525   8.610 -0.4462  0.5331 -0.2010
  187SLPC  H16R21573   1.486   0.489   8.588 -0.0206 -2.3030  2.1926
  187SLPC  H16S21574   1.578   0.608   8.683 -0.7612  0.9696 -0.7433
  187SLPC  C21721575   1.645   0.415   8.694  0.3215  0.0776  0.0219
  187SLPC  H17R21576   1.739   0.455   8.739 -0.2016  2.6494 -1.0606
  187SLPC  H17S21577   1.661   0.325   8.631  0.6920 -0.7907  1.3486
  187SLPC  C21821578   1.552   0.367   8.803  0.0346  0.2943  0.4623
  187SLPC  H18R21579   1.453   0.343   8.759  1.1981  1.0361 -2.7173
  187SLPC  H18S21580   1.552   0.447   8.880  1.1880  0.7604 -0.0077
  187SLPC  H18T21581   1.599   0.272   8.839 -0.3601  0.0785  0.4099
  187SLPC   C3321582   1.484   0.053   7.274  0.2326 -0.1558  0.2760
  187SLPC   H3X21583   1.557  -0.026   7.301  0.3786 -0.0696  0.1366
  187SLPC   H3Y21584   1.381   0.019   7.298 -0.5665  0.9638 -1.4846
  187SLPC   C3421585   1.528   0.173   7.359 -0.0979 -0.8696 -0.2894
  187SLPC   H4X21586   1.485   0.272   7.332 -0.1355 -1.3320 -1.9727
  187SLPC   H4Y21587   1.638   0.186   7.355 -0.3765  2.0989  0.3065
  187SLPC   C3521588   1.470   0.155   7.502 -0.2159  0.5551  0.0385
  187SLPC   H5X21589   1.359   0.155   7.513 -0.0300 -0.2317  2.1865
  187SLPC   H5Y21590   1.506   0.244   7.557  2.0377 -0.1582 -0.2233
  187SLPC   C3621591   1.530   0.038   7.578 -0.3106 -0.0508 -0.3977
  187SLPC   H6X21592   1.641   0.048   7.575 -0.2248 -0.9317 -0.3591
  187SLPC   H6Y21593   1.500  -0.054   7.524 -0.4546  0.1973 -0.7413
  187SLPC   C3721594   1.472   0.039   7.718  0.9684  0.3392 -0.9299
  187SLPC   H7X21595   1.489   0.141   7.758  1.1891  0.1893 -0.6422
  187SLPC   H7Y21596   1.362   0.022   7.716  1.5656 -4.0256 -2.9069
  187SLPC   C3821597   1.525  -0.071   7.810 -0.1828 -0.5387 -0.5067
  187SLPC   H8X21598   1.631  -0.038   7.824  0.3477 -1.7651 -1.5330
  187SLPC   H8Y21599   1.538  -0.156   7.740  0.2831  0.1254 -1.2369
  187SLPC   C3921600   1.453  -0.095   7.937 -0.0840  0.2391  0.1172
  187SLPC   H9X21601   1.346  -0.121   7.922 -0.8821  1.3329  3.6213
  187SLPC   H9Y21602   1.467  -0.000   7.993 -0.5492  1.7856 -2.2615
  187SLPC  C31021603   1.519  -0.208   8.026  0.6441  0.9355  0.8123
  187SLPC  H10X21604   1.623  -0.176   8.045  0.9374  0.6661 -0.3268
  187SLPC  H10Y21605   1.527  -0.303   7.969  1.9361  2.2708 -1.2676
  187SLPC  C31121606   1.448  -0.247   8.150  0.0124 -0.2551  0.9094
  187SLPC  H11X21607   1.514  -0.330   8.186 -0.4788 -1.2343 -0.4224
  187SLPC  H11Y21608   1.349  -0.291   8.124  0.8376 -3.2486  2.5325
  187SLPC  C31221609   1.446  -0.143   8.262  0.1431 -0.3432 -0.8731
  187SLPC  H12X21610   1.389  -0.055   8.225 -0.8126 -1.2740 -1.6501
  187SLPC  H12Y21611   1.543  -0.094   8.285 -0.5943  0.6842  0.0843
  187SLPC  C31321612   1.387  -0.194   8.387 -0.2932 -0.2858 -0.3881
  187SLPC  H13X21613   1.359  -0.112   8.457  0.7300 -1.1701  1.0878
  187SLPC  H13Y21614   1.474  -0.244   8.434  0.4034  2.0830  0.9524
  187SLPC  C31421615   1.269  -0.288   8.377 -0.1297  0.3157 -0.3899
  187SLPC  H14X21616   1.243  -0.328   8.477  1.6541  3.8957  1.6110
  187SLPC  H14Y21617   1.299  -0.373   8.312 -1.1284 -0.7843  0.5781
  187SLPC  C31521618   1.144  -0.219   8.311  0.1345  0.1086 -0.7839
  187SLPC  H15X21619   1.069  -0.302   8.313  0.0663  0.1738 -0.6276
  187SLPC  H15Y21620   1.165  -0.183   8.208  0.2083  0.7359 -0.5493
  187SLPC  C31621621   1.107  -0.093   8.383  0.2761 -0.3931  1.0992
  187SLPC  H16X21622   1.189  -0.020   8.365  0.0987 -0.2974  0.6880
  187SLPC  H16Y21623   1.101  -0.123   8.490 -1.8841  1.6636  1.5928
  187SLPC  C31721624   0.973  -0.030   8.341 -0.0713 -0.1571  0.4464
  187SLPC  H17X21625   0.887  -0.097   8.364  1.2656 -1.6105  1.3407
  187SLPC  H17Y21626   0.974  -0.008   8.232 -0.2060 -0.1003  0.4573
  187SLPC  C31821627   0.947   0.103   8.414  0.2940 -0.1735  0.3550
  187SLPC  H18X21628   0.986   0.188   8.355  0.3304  0.9292  1.9215
  187SLPC  H18Y21629   1.001   0.109   8.511 -0.1429 -0.6938  0.6368
  187SLPC  H18Z21630   0.843   0.141   8.426  0.5889  0.5065  0.7647
  188SLPC     N21631   2.531   1.504   6.425 -0.8280 -0.0477  0.1140
  188SLPC   C1321632   2.546   1.485   6.570 -0.9615  0.1745 -0.8387
  188SLPC  H13A21633   2.517   1.395   6.622 -0.6591  1.2628  1.2899
  188SLPC  H13B21634   2.652   1.489   6.593 -0.7343  0.8157 -1.9528
  188SLPC  H13C21635   2.493   1.558   6.629  0.1926  0.1950  0.2225
  188SLPC   C1421636   2.396   1.459   6.381 -0.1667 -0.3957  0.0877
  188SLPC  H14A21637   2.319   1.521   6.424 -0.4536 -0.4386 -0.3615
  188SLPC  H14B21638   2.382   1.458   6.274  0.4621  0.0965 -0.0064
  188SLPC  H14C21639   2.391   1.358   6.418 -2.3634 -0.0753  0.7246
  188SLPC   C1521640   2.639   1.437   6.351  0.6467  1.0559  0.5292
  188SLPC  H15A21641   2.732   1.469   6.396  0.5370 -1.3729  2.5427
  188SLPC  H15B21642   2.631   1.330   6.349 -1.8173  1.1790  2.1262
  188SLPC  H15C21643   2.646   1.459   6.246 -1.4063  0.6330  0.2953
  188SLPC   C1221644   2.553   1.649   6.382  0.2172  0.0514 -0.5209
  188SLPC  H12A21645   2.574   1.659   6.277  0.0159  1.6707 -0.4282
  188SLPC  H12B21646   2.649   1.667   6.427 -0.5335 -2.3731  2.2227
  188SLPC   C1121647   2.448   1.753   6.443  0.5086 -0.6546 -0.5292
  188SLPC  H11A21648   2.352   1.711   6.405  0.5652 -0.7343 -0.5820
  188SLPC  H11B21649   2.462   1.856   6.405 -1.5281 -0.3237 -0.4392
  188SLPC     P21650   2.563   1.816   6.674 -0.6268 -0.0146 -0.1529
  188SLPC   O1321651   2.559   1.766   6.810  0.4000  0.6708 -0.4836
  188SLPC   O1421652   2.694   1.793   6.612  0.1626  0.0443  0.2755
  188SLPC   O1221653   2.442   1.753   6.589 -0.1996 -0.2902  0.6505
  188SLPC   O1121654   2.536   1.973   6.666  0.1958 -0.0889  0.0257
  188SLPC    C121655   2.408   2.034   6.635 -0.0673  0.3183 -0.0275
  188SLPC    HA21656   2.407   2.053   6.526  0.9992  4.1215  0.5670
  188SLPC    HB21657   2.322   1.964   6.648  1.1068 -1.3466 -0.9718
  188SLPC    C221658   2.386   2.165   6.709  0.1048 -0.4935 -0.4394
  188SLPC    HS21659   2.471   2.235   6.692  0.1116 -0.1145  1.0501
  188SLPC   O2121660   2.345   2.138   6.848 -0.2391 -0.0217 -0.2612
  188SLPC   C2121661   2.454   2.142   6.923 -0.3637 -0.1192  0.0536
  188SLPC   O2221662   2.561   2.191   6.891 -0.1171  0.0550 -0.5520
  188SLPC   C2221663   2.412   2.086   7.057  0.0171  0.8320 -0.3225
  188SLPC   H2R21664   2.313   2.131   7.078 -0.2017  0.9925 -1.6689
  188SLPC   H2S21665   2.423   1.976   7.064  0.7604  0.9540  0.4833
  188SLPC    C321666   2.272   2.255   6.652  0.1621 -0.3842 -0.1797
  188SLPC    HX21667   2.171   2.217   6.681 -0.2608  0.6457 -0.2952
  188SLPC    HY21668   2.269   2.249   6.541  2.0214 -0.1628 -0.2530
  188SLPC   O3121669   2.271   2.396   6.701  0.0011 -0.1188 -0.3904
  188SLPC   C3121670   2.341   2.475   6.622  0.7540  0.1163 -0.0216
  188SLPC   O3221671   2.419   2.440   6.537 -0.0218 -0.4104 -0.2569
  188SLPC   C3221672   2.321   2.625   6.667  0.3321  0.3359  0.2530
  188SLPC   H2X21673   2.236   2.641   6.737 -0.2688 -1.9199  0.0727
  188SLPC   H2Y21674   2.290   2.672   6.571 -0.8869 -1.5240 -0.2925
  188SLPC   C2321675   2.510   2.135   7.174 -0.8178  0.0437 -0.2090
  188SLPC   H3R21676   2.517   2.245   7.186  0.9006  0.0017 -0.7482
  188SLPC   H3S21677   2.614   2.110   7.142 -1.0611  0.3748 -1.2502
  188SLPC   C2421678   2.473   2.073   7.313  0.6050 -0.1026  0.9849
  188SLPC   H4R21679   2.447   1.969   7.287  1.6953 -0.0412 -0.3874
  188SLPC   H4S21680   2.389   2.131   7.357  0.7639  1.1311 -0.3125
  188SLPC   C2521681   2.588   2.061   7.417 -0.5218  0.2785 -0.5346
  188SLPC   H5R21682   2.577   2.163   7.460 -0.9059 -0.2270  0.5946
  188SLPC   H5S21683   2.688   2.048   7.372 -0.6918 -1.2913 -0.4803
  188SLPC   C2621684   2.576   1.964   7.538 -0.4104  0.1990 -0.7462
  188SLPC   H6R21685   2.657   1.985   7.611 -0.2902  2.5350 -1.5233
  188SLPC   H6S21686   2.584   1.862   7.494 -0.2306 -0.0839 -0.0663
  188SLPC   C2721687   2.441   1.982   7.623  0.1817 -0.2565  0.0010
  188SLPC   H7R21688   2.435   1.907   7.704 -1.3911 -0.0924  0.0514
  188SLPC   H7S21689   2.360   1.972   7.548 -0.8185 -0.1070  1.0552
  188SLPC   C2821690   2.425   2.116   7.688 -0.0142 -0.0455  0.1551
  188SLPC   H8R21691   2.322   2.121   7.729  0.2242  0.7325  0.6633
  188SLPC   H8S21692   2.423   2.188   7.604  3.9901  0.4434  0.3702
  188SLPC   C2921693   2.534   2.151   7.797  0.2770 -0.3157  0.1432
  188SLPC   H9R21694   2.637   2.161   7.761  0.4429  1.4276  1.0579
  188SLPC  C21021695   2.510   2.159   7.926  0.1834 -0.1541 -0.8965
  188SLPC  H10R21696   2.587   2.195   7.996  1.0197  2.8475 -3.2242
  188SLPC  C21121697   2.374   2.154   7.999  0.0424  0.4096  0.9345
  188SLPC  H11R21698   2.342   2.048   7.997  2.7658 -0.4261 -0.6097
  188SLPC  H11S21699   2.307   2.218   7.938 -0.4033  0.5146  1.5224
  188SLPC  C21221700   2.367   2.204   8.141  0.6412 -0.3411  0.1382
  188SLPC  H12R21701   2.331   2.308   8.147 -0.2430 -0.6573  0.3669
  188SLPC  C21321702   2.375   2.133   8.254 -0.7542 -0.1460 -0.2451
  188SLPC  H13R21703   2.346   2.182   8.348 -1.0703 -0.3603 -0.2317
  188SLPC  C21421704   2.416   1.990   8.273  0.2971  0.4255  0.8710
  188SLPC  H14R21705   2.510   1.968   8.218  0.3957  0.0285  1.1925
  188SLPC  H14S21706   2.353   1.919   8.215  3.5087 -1.2538 -0.6935
  188SLPC  C21521707   2.421   1.931   8.422  0.5052 -0.8978  0.3248
  188SLPC  H15R21708   2.473   2.009   8.482 -1.6600 -0.4312  1.6391
  188SLPC  H15S21709   2.465   1.829   8.419  1.1382 -0.5928 -1.6928
  188SLPC  C21621710   2.278   1.910   8.476 -0.1913 -1.4137 -0.1165
  188SLPC  H16R21711   2.232   1.825   8.420 -0.5313 -0.3242 -1.5402
  188SLPC  H16S21712   2.215   1.999   8.455 -1.3548 -1.7161  1.9319
  188SLPC  C21721713   2.273   1.885   8.624  0.4590  1.3518  0.6703
  188SLPC  H17R21714   2.327   1.789   8.639 -0.0770  0.9002 -0.2902
  188SLPC  H17S21715   2.172   1.876   8.669  1.4623 -0.3660  2.7053
  188SLPC  C21821716   2.344   1.989   8.713  0.1040 -0.5029 -0.5948
  188SLPC  H18R21717   2.454   2.001   8.702  0.0849 -0.5021 -0.7785
  188SLPC  H18S21718   2.328   1.975   8.822  0.0381 -0.7557 -0.6365
  188SLPC  H18T21719   2.320   2.095   8.689  0.3119 -0.4026 -0.3697
  188SLPC   C3321720   2.454   2.697   6.707  0.0990  0.5692  0.1144
  188SLPC   H3X21721   2.437   2.803   6.737 -1.5787  0.5995 -0.8887
  188SLPC   H3Y21722   2.528   2.705   6.624  1.1615  2.8012  1.2130
  188SLPC   C3421723   2.525   2.623   6.816  0.5285 -0.3063  0.5973
  188SLPC   H4X21724   2.620   2.674   6.843  1.2938 -0.9058 -0.8989
  188SLPC   H4Y21725   2.558   2.520   6.790  0.7300 -0.2684  0.6988
  188SLPC   C3521726   2.437   2.626   6.948  0.6599  0.4477 -0.7928
  188SLPC   H5X21727   2.354   2.553   6.958  1.2422 -0.1553 -0.2994
  188SLPC   H5Y21728   2.394   2.727   6.965 -1.0153 -0.5271  1.0150
  188SLPC   C3621729   2.532   2.611   7.075 -0.3812 -0.3170  0.0030
  188SLPC   H6X21730   2.629   2.663   7.061 -1.3437  1.5648  0.1375
  188SLPC   H6Y21731   2.564   2.506   7.096  1.5386  0.1208 -0.5865
  188SLPC   C3721732   2.470   2.675   7.204  0.2542 -0.3579  0.1187
  188SLPC   H7X21733   2.374   2.624   7.224 -0.3139  1.8103  3.3735
  188SLPC   H7Y21734   2.436   2.781   7.191  0.0192 -0.6011 -1.3649
  188SLPC   C3821735   2.563   2.665   7.323  0.4826  0.3471 -0.3974
  188SLPC   H8X21736   2.629   2.755   7.321  0.4350  0.3802 -0.4671
  188SLPC   H8Y21737   2.620   2.570   7.318  0.2997 -0.1095  3.9229
  188SLPC   C3921738   2.478   2.674   7.452  0.2146  0.6444  0.6126
  188SLPC   H9X21739   2.408   2.588   7.458  0.6935  0.1632 -0.4968
  188SLPC   H9Y21740   2.414   2.764   7.461 -0.2926  0.3857 -0.3736
  188SLPC  C31021741   2.571   2.667   7.576 -0.3110  0.0324 -0.6094
  188SLPC  H10X21742   2.634   2.758   7.564 -0.9524  0.4263 -1.0109
  188SLPC  H10Y21743   2.644   2.583   7.566 -1.7758 -1.4910  1.1306
  188SLPC  C31121744   2.494   2.656   7.706 -0.3764 -0.3437  0.7599
  188SLPC  H11X21745   2.407   2.588   7.692 -0.3295 -0.6778  1.9999
  188SLPC  H11Y21746   2.442   2.753   7.723 -0.5514  0.1850 -2.4279
  188SLPC  C31221747   2.568   2.590   7.821 -0.0084  0.2159 -0.0206
  188SLPC  H12X21748   2.624   2.669   7.876  1.4983 -0.4456 -0.5861
  188SLPC  H12Y21749   2.646   2.515   7.798 -1.1228 -0.5178 -1.5254
  188SLPC  C31321750   2.476   2.543   7.934  0.0125 -0.6911 -0.7503
  188SLPC  H13X21751   2.526   2.477   8.008  0.6280  1.2795  0.6374
  188SLPC  H13Y21752   2.394   2.484   7.888  1.7016 -2.2491 -1.8397
  188SLPC  C31421753   2.419   2.654   8.031 -0.1317 -0.0449 -0.0600
  188SLPC  H14X21754   2.383   2.740   7.971 -1.9826  0.4189  1.6393
  188SLPC  H14Y21755   2.498   2.691   8.100  0.5460  1.1440 -1.4492
  188SLPC  C31521756   2.305   2.619   8.122  0.0291  0.3379  0.7970
  188SLPC  H15X21757   2.334   2.518   8.159 -0.0556  0.4180  1.0910
  188SLPC  H15Y21758   2.212   2.617   8.062 -0.1793  3.3027  0.9530
  188SLPC  C31621759   2.294   2.720   8.239  0.4086  0.9036 -0.0885
  188SLPC  H16X21760   2.201   2.683   8.288  0.9146  0.6263  0.6633
  188SLPC  H16Y21761   2.272   2.820   8.194  1.0108  0.7395 -0.7539
  188SLPC  C31721762   2.407   2.730   8.340  0.0830 -0.3258  0.2094
  188SLPC  H17X21763   2.385   2.787   8.432 -2.2908  0.0577 -0.5688
  188SLPC  H17Y21764   2.495   2.778   8.292 -0.9705  0.3064 -1.1258
  188SLPC  C31821765   2.443   2.588   8.399  0.4374  0.7263 -0.0842
  188SLPC  H18X21766   2.474   2.517   8.319 -1.4518 -1.0409  0.7190
  188SLPC  H18Y21767   2.358   2.544   8.455  2.3575 -0.0714  2.2798
  188SLPC  H18Z21768   2.522   2.606   8.475  1.1599  0.6684 -0.8130
  189SLPC     N21769   4.615   3.920   6.060  0.1027  0.1695  0.9026
  189SLPC   C1321770   4.490   3.865   6.003 -0.4161  1.1126  0.4156
  189SLPC  H13A21771   4.472   3.767   6.043  4.1805 -1.1418 -2.6154
  189SLPC  H13B21772   4.410   3.927   6.040 -2.0779 -0.0724 -1.0687
  189SLPC  H13C21773   4.483   3.868   5.895  0.0716  0.9288  0.3812
  189SLPC   C1421774   4.655   4.044   5.977 -0.3112 -0.1697 -0.0718
  189SLPC  H14A21775   4.576   4.117   5.977 -0.0735  0.1396 -3.1644
  189SLPC  H14B21776   4.741   4.088   6.026 -0.6812  0.8634 -0.3415
  189SLPC  H14C21777   4.681   4.011   5.878  0.6120 -1.2530  0.5108
  189SLPC   C1521778   4.726   3.813   6.049  0.4670 -0.0684 -0.5135
  189SLPC  H15A21779   4.827   3.851   6.057  0.4813 -0.0031 -0.9999
  189SLPC  H15B21780   4.711   3.744   6.131  0.2584 -0.1599 -0.6290
  189SLPC  H15C21781   4.734   3.760   5.956 -0.8815 -0.1320 -0.5930
  189SLPC   C1221782   4.607   3.974   6.200 -0.3926 -0.0617 -0.4636
  189SLPC  H12A21783   4.699   4.025   6.222 -0.6034 -0.6762  1.9958
  189SLPC  H12B21784   4.604   3.893   6.271  0.2262  0.7479  0.4892
  189SLPC   C1121785   4.492   4.085   6.225  0.6790 -1.3057 -0.2093
  189SLPC  H11A21786   4.484   4.102   6.335  0.0737  5.9645 -1.1338
  189SLPC  H11B21787   4.399   4.038   6.186 -0.0418 -0.8952  0.9890
  189SLPC     P21788   4.589   4.328   6.231  0.0088  0.6295  0.0207
  189SLPC   O1321789   4.731   4.288   6.239  0.6037  0.2701 -0.2670
  189SLPC   O1421790   4.550   4.453   6.164  0.1175 -0.0539  0.8342
  189SLPC   O1221791   4.524   4.209   6.158 -0.8574 -0.3038 -0.0708
  189SLPC   O1121792   4.544   4.326   6.382  0.1744  0.0310 -0.3552
  189SLPC    C121793   4.575   4.434   6.474 -1.2189  0.2463  0.1946
  189SLPC    HA21794   4.684   4.456   6.473 -0.6532 -2.3393  0.7081
  189SLPC    HB21795   4.521   4.524   6.437 -1.2681  0.0686 -0.1686
  189SLPC    C221796   4.536   4.409   6.616 -1.1861  0.4123  0.2666
  189SLPC    HS21797   4.540   4.501   6.677 -0.4750  1.8315 -1.8780
  189SLPC   O2121798   4.630   4.314   6.665 -0.5023 -0.5027 -0.2995
  189SLPC   C2121799   4.749   4.359   6.708  0.3012  0.0486  0.2589
  189SLPC   O2221800   4.785   4.474   6.721 -0.2041  0.1924 -0.2905
  189SLPC   C2221801   4.814   4.237   6.784 -0.4588 -0.5643 -0.2515
  189SLPC   H2R21802   4.732   4.181   6.833  0.9139 -1.7435  0.7403
  189SLPC   H2S21803   4.863   4.186   6.698 -2.2296 -0.1284 -1.5356
  189SLPC    C321804   4.391   4.349   6.623  0.2724 -0.0425  0.4755
  189SLPC    HX21805   4.393   4.245   6.584 -2.2671 -1.5190  4.0289
  189SLPC    HY21806   4.322   4.408   6.559  1.8276  2.1553  0.7769
  189SLPC   O3121807   4.348   4.342   6.761  0.6121  0.2761  0.0185
  189SLPC   C3121808   4.275   4.241   6.813  0.6288 -0.1720  0.5445
  189SLPC   O3221809   4.238   4.143   6.749  0.3919 -0.3596 -0.3725
  189SLPC   C3221810   4.249   4.266   6.965 -0.5263  0.0867 -0.0864
  189SLPC   H2X21811   4.305   4.358   6.992  1.7042 -0.7320 -1.7646
  189SLPC   H2Y21812   4.288   4.180   7.024 -0.7350 -1.2183 -1.7939
  189SLPC   C2321813   4.919   4.291   6.885  0.5954  0.0385 -0.1013
  189SLPC   H3R21814   4.975   4.376   6.841 -1.9020  1.7958 -0.0177
  189SLPC   H3S21815   4.999   4.215   6.897  1.5889  0.8628 -1.3261
  189SLPC   C2421816   4.864   4.339   7.021 -0.0351 -0.0269 -0.2661
  189SLPC   H4R21817   4.803   4.432   7.026 -0.1357 -0.1624  1.2268
  189SLPC   H4S21818   4.949   4.366   7.087  0.8887 -1.3034 -0.9182
  189SLPC   C2521819   4.787   4.236   7.106 -0.6426 -0.2777  0.0113
  189SLPC   H5R21820   4.860   4.162   7.147  0.7401  0.5244 -0.9517
  189SLPC   H5S21821   4.706   4.186   7.048 -1.0373  0.2616  0.1038
  189SLPC   C2621822   4.699   4.309   7.214 -0.2213 -0.2082 -0.4419
  189SLPC   H6R21823   4.649   4.399   7.172 -0.4956  1.2943  2.9172
  189SLPC   H6S21824   4.770   4.335   7.296  0.1875 -1.5369 -0.3663
  189SLPC   C2721825   4.589   4.226   7.284 -0.1887 -0.2980 -0.2450
  189SLPC   H7R21826   4.634   4.140   7.338  0.8465 -0.5139 -1.4523
  189SLPC   H7S21827   4.522   4.187   7.204 -0.2080 -0.6799 -0.0435
  189SLPC   C2821828   4.515   4.305   7.392 -0.1353 -0.4014  0.7308
  189SLPC   H8R21829   4.509   4.403   7.340  1.0427  0.4194  2.1187
  189SLPC   H8S21830   4.576   4.300   7.485  1.3563  1.0858 -0.1267
  189SLPC   C2921831   4.383   4.238   7.418 -0.2036  0.4093 -0.5131
  189SLPC   H9R21832   4.355   4.163   7.343 -0.1682 -1.6900  1.5140
  189SLPC  C21021833   4.286   4.286   7.502 -0.9605 -0.0405 -0.2794
  189SLPC  H10R21834   4.198   4.222   7.516 -1.4814  1.0779  1.7010
  189SLPC  C21121835   4.295   4.413   7.586  0.8567  0.4365  0.2637
  189SLPC  H11R21836   4.381   4.474   7.551  0.1303  2.1766  1.4343
  189SLPC  H11S21837   4.326   4.384   7.689  1.9832 -0.1245 -0.2266
  189SLPC  C21221838   4.165   4.489   7.584  1.0295 -0.0250 -0.3431
  189SLPC  H12R21839   4.167   4.563   7.502  0.8551 -0.2642 -0.5635
  189SLPC  C21321840   4.066   4.493   7.674  0.3796 -0.4572  0.2248
  189SLPC  H13R21841   3.983   4.563   7.656  1.3064  0.0854 -2.1741
  189SLPC  C21421842   4.053   4.406   7.794  0.0041 -0.4731 -0.1136
  189SLPC  H14R21843   4.118   4.316   7.784 -1.5941 -1.5671 -1.0363
  189SLPC  H14S21844   3.944   4.383   7.801 -0.2966  0.9220 -0.1222
  189SLPC  C21521845   4.100   4.469   7.927 -0.2571  0.1508  0.3252
  189SLPC  H15R21846   4.027   4.553   7.937 -0.3932 -0.1135  1.5787
  189SLPC  H15S21847   4.202   4.508   7.909 -0.5842  0.6303 -0.5138
  189SLPC  C21621848   4.112   4.370   8.044  0.0014 -0.1218 -0.2732
  189SLPC  H16R21849   4.164   4.276   8.016  1.1846 -0.1960  2.0303
  189SLPC  H16S21850   4.011   4.328   8.065  0.8503 -0.8936  2.4393
  189SLPC  C21721851   4.166   4.426   8.180  0.2235 -0.0893 -0.0122
  189SLPC  H17R21852   4.166   4.344   8.255 -1.3773  0.0102  0.1098
  189SLPC  H17S21853   4.100   4.504   8.223 -1.5084 -1.3259 -0.3736
  189SLPC  C21821854   4.305   4.484   8.184 -0.4819 -0.3124  0.5432
  189SLPC  H18R21855   4.379   4.401   8.175  0.2915  0.5196 -1.0316
  189SLPC  H18S21856   4.336   4.534   8.278 -0.7737  0.9069 -0.0042
  189SLPC  H18T21857   4.332   4.567   8.115  0.5694  0.1817  1.5470
  189SLPC   C3321858   4.102   4.300   7.006 -0.6000 -0.3209  0.7878
  189SLPC   H3X21859   4.031   4.227   6.961  0.4307 -0.1094 -1.2032
  189SLPC   H3Y21860   4.074   4.396   6.960  0.2058 -0.5845 -0.2657
  189SLPC   C3421861   4.074   4.299   7.157 -0.4682  0.3351 -0.3597
  189SLPC   H4X21862   4.153   4.359   7.207 -0.7738 -0.3928  1.0278
  189SLPC   H4Y21863   4.095   4.197   7.195  2.7561  2.1660  3.1339
  189SLPC   C3521864   3.934   4.339   7.193 -0.0319 -0.3578 -0.0175
  189SLPC   H5X21865   3.863   4.278   7.133 -1.4029  1.3307 -0.1720
  189SLPC   H5Y21866   3.913   4.446   7.172 -1.1636 -0.4390  0.6376
  189SLPC   C3621867   3.900   4.306   7.337 -0.3882 -0.1890  0.5926
  189SLPC   H6X21868   3.813   4.370   7.366 -0.0524  0.6475 -0.2027
  189SLPC   H6Y21869   3.978   4.335   7.410 -2.5915  1.4762  2.3417
  189SLPC   C3721870   3.865   4.155   7.352 -0.0436  0.3355 -0.1391
  189SLPC   H7X21871   3.945   4.093   7.305  0.3769  0.3133  0.5963
  189SLPC   H7Y21872   3.773   4.148   7.291 -0.2190 -0.0196  0.1636
  189SLPC   C3821873   3.855   4.111   7.493  0.2734 -0.8735 -0.0572
  189SLPC   H8X21874   3.959   4.107   7.532 -0.1931 -2.0152  1.1110
  189SLPC   H8Y21875   3.813   4.008   7.486 -3.4519  0.6406 -0.7472
  189SLPC   C3921876   3.760   4.194   7.575  0.8162 -0.8900 -0.3610
  189SLPC   H9X21877   3.660   4.207   7.529  2.1140  1.6076 -2.6176
  189SLPC   H9Y21878   3.802   4.297   7.583  1.7655 -1.2210 -0.9497
  189SLPC  C31021879   3.744   4.149   7.717 -0.2069 -1.0308  0.1904
  189SLPC  H10X21880   3.840   4.169   7.769  1.2074 -1.4101 -2.2176
  189SLPC  H10Y21881   3.723   4.040   7.724 -0.0908 -1.1077 -0.6668
  189SLPC  C31121882   3.636   4.219   7.804  0.2983 -0.3178 -0.1848
  189SLPC  H11X21883   3.623   4.328   7.787  1.0906  0.0710  1.5068
  189SLPC  H11Y21884   3.682   4.213   7.905  2.2920 -2.1196 -1.1474
  189SLPC  C31221885   3.499   4.148   7.812 -0.1241  0.0348 -0.3565
  189SLPC  H12X21886   3.511   4.038   7.805 -0.0387 -0.0601  1.1486
  189SLPC  H12Y21887   3.444   4.189   7.725  0.6079 -1.6374 -1.6156
  189SLPC  C31321888   3.425   4.181   7.936 -0.0816  0.0801 -0.1363
  189SLPC  H13X21889   3.318   4.183   7.907  0.9607 -1.9003 -4.5348
  189SLPC  H13Y21890   3.460   4.284   7.961  2.1467 -0.3946 -1.1427
  189SLPC  C31421891   3.459   4.084   8.048  0.5470  0.5039 -0.1775
  189SLPC  H14X21892   3.567   4.060   8.042  0.2323 -1.2287  0.6962
  189SLPC  H14Y21893   3.410   3.990   8.014 -0.7606  1.8892 -2.2152
  189SLPC  C31521894   3.420   4.147   8.184  0.2399 -0.2765 -0.0804
  189SLPC  H15X21895   3.479   4.238   8.205  0.0426 -0.1429 -0.0990
  189SLPC  H15Y21896   3.432   4.085   8.276  0.9225  0.7420  0.5228
  189SLPC  C31621897   3.272   4.200   8.189 -0.3339  0.5040  0.0318
  189SLPC  H16X21898   3.211   4.112   8.160  1.9419 -1.0446 -0.2323
  189SLPC  H16Y21899   3.259   4.281   8.115  2.1975 -0.3667 -1.4634
  189SLPC  C31721900   3.239   4.234   8.335 -0.0551  0.5883  0.2342
  189SLPC  H17X21901   3.172   4.322   8.334  1.6768  1.9522  1.4984
  189SLPC  H17Y21902   3.328   4.273   8.389  0.1609  0.1814  0.1733
  189SLPC  C31821903   3.171   4.135   8.430  0.2501  0.0519  0.8586
  189SLPC  H18X21904   3.214   4.034   8.410  0.5343  0.4043 -0.3607
  189SLPC  H18Y21905   3.061   4.145   8.422  0.4772  2.3740  0.4659
  189SLPC  H18Z21906   3.186   4.157   8.538 -0.5958 -0.4462  1.0855
  190SLPC     N21907   4.933   2.586   6.430 -0.5642  0.0091  0.4218
  190SLPC   C1321908   4.841   2.596   6.313  0.6152  0.9600 -0.3462
  190SLPC  H13A21909   4.887   2.584   6.216 -0.4780  3.3879 -1.2222
  190SLPC  H13B21910   4.765   2.520   6.313  1.0210  0.4563 -4.2008
  190SLPC  H13C21911   4.793   2.693   6.321 -1.3803  0.0212 -0.5956
  190SLPC   C1421912   5.010   2.455   6.427 -0.2469  0.4306 -0.3299
  190SLPC  H14A21913   5.071   2.453   6.515  1.8228  0.1570 -1.7257
  190SLPC  H14B21914   4.944   2.370   6.437  0.9215 -0.3942  0.5947
  190SLPC  H14C21915   5.076   2.450   6.341  0.5623  0.4643  0.2912
  190SLPC   C1521916   4.849   2.593   6.554 -0.1880 -0.2701 -0.2822
  190SLPC  H15A21917   4.813   2.695   6.550  1.9133  0.5056 -0.1064
  190SLPC  H15B21918   4.763   2.529   6.547 -1.4801  1.4708 -0.5428
  190SLPC  H15C21919   4.905   2.575   6.645  1.0033  3.4695 -0.1885
  190SLPC   C1221920   5.036   2.698   6.428  0.5564  0.0251 -0.1684
  190SLPC  H12A21921   5.118   2.670   6.365  0.2939  0.0366 -0.5196
  190SLPC  H12B21922   5.078   2.705   6.527 -1.7251 -1.0419  0.9066
  190SLPC   C1121923   4.992   2.840   6.388 -0.0609 -0.0598  0.2099
  190SLPC  H11A21924   4.971   2.854   6.280  2.8097 -2.0694 -0.6613
  190SLPC  H11B21925   5.081   2.902   6.413 -0.6368 -0.0974  2.5239
  190SLPC     P21926   4.749   2.941   6.395 -0.1546 -0.2016 -0.5979
  190SLPC   O1321927   4.791   3.061   6.321  0.8869  0.2294  0.8867
  190SLPC   O1421928   4.667   2.838   6.329  0.4810 -0.0284  0.2058
  190SLPC   O1221929   4.870   2.876   6.466 -0.1256 -0.0348  0.7552
  190SLPC   O1121930   4.676   2.988   6.526 -0.1748 -0.1864 -0.0030
  190SLPC    C121931   4.592   2.893   6.602 -0.1983  0.0369 -0.1470
  190SLPC    HA21932   4.544   2.821   6.533 -0.4281 -1.1933  1.2624
  190SLPC    HB21933   4.660   2.835   6.668  0.4656  0.5881 -0.3378
  190SLPC    C221934   4.493   2.945   6.704 -0.4490 -0.0143 -0.2304
  190SLPC    HS21935   4.443   2.854   6.743 -1.1949  0.7149  0.5282
  190SLPC   O2121936   4.402   3.036   6.642  0.2272  0.0437  0.3746
  190SLPC   C2121937   4.303   2.967   6.583 -0.0429  0.3203  0.4336
  190SLPC   O2221938   4.292   2.847   6.559  0.7329 -0.2467 -0.4224
  190SLPC   C2221939   4.207   3.071   6.531 -0.0690 -0.2410 -0.0113
  190SLPC   H2R21940   4.264   3.164   6.509 -1.4780  0.7465  0.4253
  190SLPC   H2S21941   4.184   3.046   6.425  1.5825 -1.8141 -0.0326
  190SLPC    C321942   4.560   3.026   6.819 -0.1429 -0.4897 -1.1263
  190SLPC    HX21943   4.597   3.118   6.769 -0.4451 -0.6142 -1.5824
  190SLPC    HY21944   4.654   2.976   6.853 -0.4493 -0.2043  0.1569
  190SLPC   O3121945   4.465   3.065   6.926  0.0316  0.0377 -0.2541
  190SLPC   C3121946   4.427   2.966   7.014  0.1005  0.3532  0.1819
  190SLPC   O3221947   4.445   2.849   7.002  1.0711  0.5238  0.1771
  190SLPC   C3221948   4.357   3.033   7.132  1.0318  0.8003 -0.5640
  190SLPC   H2X21949   4.248   3.039   7.110  0.9382  1.0850 -0.0332
  190SLPC   H2Y21950   4.398   3.135   7.145  2.8209  0.2040 -1.4168
  190SLPC   C2321951   4.072   3.097   6.607 -0.2590 -0.1431  0.3242
  190SLPC   H3R21952   4.035   3.004   6.655  1.3880  0.6600  3.2787
  190SLPC   H3S21953   4.003   3.133   6.528  0.5399  0.4509 -0.1210
  190SLPC   C2421954   4.099   3.197   6.716 -0.4332 -0.6850  0.3103
  190SLPC   H4R21955   4.152   3.287   6.679 -1.2090 -0.2117  0.3352
  190SLPC   H4S21956   4.168   3.140   6.780  2.0054  0.1218 -1.5361
  190SLPC   C2521957   3.972   3.245   6.801 -0.1899  0.6610 -0.0445
  190SLPC   H5R21958   3.949   3.148   6.850  0.4984  1.0861  1.1357
  190SLPC   H5S21959   3.888   3.262   6.730  0.1787 -1.0829 -0.9266
  190SLPC   C2621960   3.982   3.370   6.889  0.4851  0.0398 -0.1634
  190SLPC   H6R21961   3.888   3.388   6.945  1.1064 -1.8893  1.5457
  190SLPC   H6S21962   3.983   3.460   6.823 -1.7344 -0.2464 -0.6149
  190SLPC   C2721963   4.096   3.354   6.988  0.4015 -0.2721  0.0619
  190SLPC   H7R21964   4.129   3.454   7.023  2.2538 -0.7219 -0.3492
  190SLPC   H7S21965   4.181   3.305   6.936  0.9136  0.2869  0.3601
  190SLPC   C2821966   4.062   3.280   7.116 -0.6710 -0.2017 -0.2348
  190SLPC   H8R21967   4.154   3.277   7.177 -0.1718 -0.2692 -0.9931
  190SLPC   H8S21968   4.033   3.176   7.089 -0.9690 -0.0901 -0.3504
  190SLPC   C2921969   3.958   3.364   7.187  0.9525  0.3555 -0.8601
  190SLPC   H9R21970   3.938   3.463   7.143 -2.0925  0.5300  0.7188
  190SLPC  C21021971   3.874   3.323   7.294  0.3835 -0.4422  0.5088
  190SLPC  H10R21972   3.804   3.394   7.341 -1.0008 -1.4439 -0.0158
  190SLPC  C21121973   3.891   3.190   7.365  0.5391  0.7305 -0.3801
  190SLPC  H11R21974   3.925   3.115   7.291  0.6553 -0.3382  0.7461
  190SLPC  H11S21975   3.791   3.163   7.407  0.5040 -0.5603 -1.2686
  190SLPC  C21221976   3.982   3.195   7.485 -0.0798 -0.9095  0.1970
  190SLPC  H12R21977   4.086   3.211   7.454 -0.5535 -0.3600 -1.1548
  190SLPC  C21321978   3.947   3.186   7.617  0.3861 -0.5725 -0.2691
  190SLPC  H13R21979   4.036   3.180   7.681 -1.3440 -0.4352  2.2327
  190SLPC  C21421980   3.807   3.171   7.674  1.0587  0.2734 -0.0046
  190SLPC  H14R21981   3.733   3.120   7.608  1.0432  0.7263 -0.3394
  190SLPC  H14S21982   3.756   3.268   7.694  1.1163  0.1726  0.6699
  190SLPC  C21521983   3.790   3.094   7.802 -0.4906 -0.0816 -0.1920
  190SLPC  H15R21984   3.814   2.985   7.793 -0.1311  0.1231 -1.8824
  190SLPC  H15S21985   3.681   3.091   7.822 -0.7423  1.7517 -1.1816
  190SLPC  C21621986   3.847   3.170   7.930  0.0896  0.3261 -0.3200
  190SLPC  H16R21987   3.822   3.279   7.930  1.7429  0.7238 -1.1296
  190SLPC  H16S21988   3.957   3.164   7.918  0.1456 -1.0495  0.7801
  190SLPC  C21721989   3.801   3.114   8.064 -0.5510  0.0067  0.1606
  190SLPC  H17R21990   3.831   3.007   8.064 -0.3075  0.0657  1.5429
  190SLPC  H17S21991   3.691   3.101   8.073 -0.8531  1.4171 -1.2376
  190SLPC  C21821992   3.863   3.184   8.194  0.4465 -0.1092  0.3601
  190SLPC  H18R21993   3.960   3.220   8.156 -0.4928  1.5316 -0.5722
  190SLPC  H18S21994   3.887   3.105   8.268  0.0416  1.4299  2.1851
  190SLPC  H18T21995   3.794   3.264   8.230  0.1299 -0.4051  0.4090
  190SLPC   C3321996   4.374   2.936   7.258 -0.1546 -0.5277  0.8807
  190SLPC   H3X21997   4.474   2.888   7.260  0.1431  0.1031  1.2454
  190SLPC   H3Y21998   4.311   2.847   7.236  0.3990 -0.3663 -1.4981
  190SLPC   C3421999   4.336   3.008   7.389  0.4515 -0.0596  0.3508
  190SLPC   H4X22000   4.229   3.037   7.380  0.7994  1.2153  0.2873
  190SLPC   H4Y22001   4.404   3.096   7.388  0.1164  0.2002  0.5493
  190SLPC   C3522002   4.347   2.926   7.516 -0.5819  0.2717  0.2333
  190SLPC   H5X22003   4.454   2.901   7.535 -0.7297 -0.1931  0.4694
  190SLPC   H5Y22004   4.282   2.836   7.517  1.7187 -1.4513  0.5861
  190SLPC   C3622005   4.304   3.010   7.634  0.2754 -0.3762 -0.4785
  190SLPC   H6X22006   4.201   3.050   7.624  0.6208  0.7228  0.2365
  190SLPC   H6Y22007   4.381   3.089   7.650 -1.1633  0.9632 -0.1087
  190SLPC   C3722008   4.304   2.929   7.763 -0.2339 -0.4770 -1.0909
  190SLPC   H7X22009   4.405   2.887   7.780 -1.2053 -1.6223  2.1680
  190SLPC   H7Y22010   4.242   2.837   7.757 -0.1314 -0.7958  1.9952
  190SLPC   C3822011   4.269   3.008   7.889  0.3360  0.2739 -0.1391
  190SLPC   H8X22012   4.162   3.040   7.889  0.7944  2.0233  2.4579
  190SLPC   H8Y22013   4.331   3.100   7.900  1.7060 -0.7248  0.4685
  190SLPC   C3922014   4.280   2.922   8.017  0.2703 -0.8589  0.0988
  190SLPC   H9X22015   4.386   2.890   8.031  0.4102  0.4049  2.1030
  190SLPC   H9Y22016   4.215   2.832   8.011 -0.5164 -0.2852 -0.0118
  190SLPC  C31022017   4.244   3.001   8.147 -0.4203  0.2650 -0.4975
  190SLPC  H10X22018   4.134   3.017   8.149 -0.8005 -1.9291 -1.9747
  190SLPC  H10Y22019   4.285   3.104   8.138  0.2963  0.0306  0.0523
  190SLPC  C31122020   4.305   2.936   8.269 -0.1236 -0.7161  0.3393
  190SLPC  H11X22021   4.406   2.908   8.233 -1.5146 -2.3589 -2.4872
  190SLPC  H11Y22022   4.243   2.846   8.285  0.5236 -1.0748  0.8493
  190SLPC  C31222023   4.312   3.032   8.390  0.4137 -0.3265  0.1512
  190SLPC  H12X22024   4.394   3.104   8.364  1.1381 -0.8442  0.9646
  190SLPC  H12Y22025   4.349   2.982   8.482  0.0337 -1.8114 -0.4946
  190SLPC  C31322026   4.182   3.117   8.423  0.4643 -0.1917 -0.6945
  190SLPC  H13X22027   4.101   3.042   8.420  1.9166 -1.7525 -3.6892
  190SLPC  H13Y22028   4.172   3.199   8.348  1.2777  0.7421  0.1957
  190SLPC  C31422029   4.195   3.194   8.558 -0.7618 -0.2079  0.0586
  190SLPC  H14X22030   4.176   3.132   8.648 -1.7037 -2.6566 -1.7617
  190SLPC  H14Y22031   4.118   3.274   8.559  1.0956  1.6144  1.4919
  190SLPC  C31522032   4.327   3.263   8.578 -0.0643 -0.1327  0.1565
  190SLPC  H15X22033   4.362   3.313   8.485  1.1724 -1.1514  0.0517
  190SLPC  H15Y22034   4.406   3.187   8.595  1.7777  2.1095  1.9805
  190SLPC  C31622035   4.320   3.359   8.691  0.4229 -0.1196 -0.1713
  190SLPC  H16X22036   4.310   3.298   8.784  0.5525  1.6065  1.0097
  190SLPC  H16Y22037   4.229   3.420   8.676 -0.0878 -0.8239  0.0495
  190SLPC  C31722038   4.451   3.427   8.725  0.1683  0.6249 -0.1849
  190SLPC  H17X22039   4.486   3.493   8.642 -0.6911  2.1582  0.6450
  190SLPC  H17Y22040   4.513   3.336   8.734 -0.3510  0.4235  1.3600
  190SLPC  C31822041   4.445   3.533   8.840 -0.1262 -0.5155 -0.2236
  190SLPC  H18X22042   4.367   3.608   8.817  0.2008 -0.3436 -0.7953
  190SLPC  H18Y22043   4.540   3.588   8.857  0.5269 -0.7828 -2.7881
  190SLPC  H18Z22044   4.429   3.486   8.939 -0.8622 -0.0553 -0.1223
  191SLPC     N22045   4.664   6.456   5.837  0.0888 -0.5672  0.9863
  191SLPC   C1322046   4.631   6.605   5.822 -0.9532  0.3202  0.7233
  191SLPC  H13A22047   4.529   6.616   5.858 -1.5101 -0.5590 -0.5231
  191SLPC  H13B22048   4.710   6.661   5.869  0.8640 -1.1955 -0.4744
  191SLPC  H13C22049   4.643   6.626   5.717 -0.7022  0.3854  0.7660
  191SLPC   C1422050   4.792   6.425   5.764  0.6074 -0.2305  0.3485
  191SLPC  H14A22051   4.826   6.324   5.779 -1.0587 -0.9199 -0.3167
  191SLPC  H14B22052   4.764   6.433   5.660  0.0791 -3.0541  0.2358
  191SLPC  H14C22053   4.865   6.498   5.797  2.0462 -0.5573 -1.9702
  191SLPC   C1522054   4.555   6.371   5.786 -0.4344  0.1367 -0.4149
  191SLPC  H15A22055   4.581   6.267   5.795 -0.7003  0.1183  0.2512
  191SLPC  H15B22056   4.472   6.381   5.855  1.2762  0.2377  1.6827
  191SLPC  H15C22057   4.516   6.396   5.688 -2.7534 -2.9953 -0.3705
  191SLPC   C1222058   4.702   6.426   5.987  0.3238  0.2201 -0.7151
  191SLPC  H12A22059   4.605   6.442   6.033 -0.1407  0.0136 -1.6114
  191SLPC  H12B22060   4.760   6.506   6.029  1.4333 -0.9751  0.0805
  191SLPC   C1122061   4.768   6.293   6.031  1.0601 -0.8885 -0.3211
  191SLPC  H11A22062   4.761   6.286   6.141 -0.9741  3.8229 -0.0104
  191SLPC  H11B22063   4.879   6.293   6.025  1.1196 -1.8000  0.6714
  191SLPC     P22064   4.770   6.047   5.945 -0.1123 -0.1658 -0.0097
  191SLPC   O1322065   4.664   5.945   5.923 -0.1613 -0.4873 -0.2948
  191SLPC   O1422066   4.879   6.068   5.847  0.0125  0.2559  0.4827
  191SLPC   O1222067   4.700   6.182   5.969 -0.8537 -0.3963 -0.0746
  191SLPC   O1122068   4.825   6.030   6.085  0.3179 -0.3370  0.0187
  191SLPC    C122069   4.788   5.922   6.175  0.1539 -0.1342  0.2515
  191SLPC    HA22070   4.776   5.824   6.124 -1.9309  0.1735  0.1180
  191SLPC    HB22071   4.873   5.920   6.247  0.5872 -0.7281 -0.2688
  191SLPC    C222072   4.655   5.960   6.246  0.2202  0.2150  0.8465
  191SLPC    HS22073   4.571   5.962   6.173 -0.5814 -0.7251  1.7284
  191SLPC   O2122074   4.661   6.092   6.302  0.0769  0.7587  0.4023
  191SLPC   C2122075   4.738   6.117   6.403  0.4302  0.3110 -0.0950
  191SLPC   O2222076   4.843   6.055   6.428  0.2825 -0.3963 -0.2171
  191SLPC   C2222077   4.667   6.223   6.496  0.1147  0.1960 -0.2540
  191SLPC   H2R22078   4.732   6.226   6.586  0.2299 -0.9965 -0.2934
  191SLPC   H2S22079   4.670   6.324   6.448  0.0779  0.7907  0.9746
  191SLPC    C322080   4.641   5.848   6.348 -0.7366  0.3365 -0.1055
  191SLPC    HX22081   4.729   5.835   6.415 -0.5002  0.2511 -0.4276
  191SLPC    HY22082   4.640   5.750   6.294  2.0224  0.1396  0.1291
  191SLPC   O3122083   4.524   5.865   6.427 -0.3511 -0.4135 -0.2269
  191SLPC   C3122084   4.424   5.783   6.418  0.0178 -0.3936 -0.2028
  191SLPC   O3222085   4.421   5.677   6.355  0.2654 -0.2958 -0.2432
  191SLPC   C3222086   4.311   5.822   6.518 -0.0034 -0.2432 -0.8952
  191SLPC   H2X22087   4.231   5.745   6.517 -0.0794 -0.2337  1.0620
  191SLPC   H2Y22088   4.273   5.916   6.473  0.2564 -0.0591 -0.7364
  191SLPC   C2322089   4.524   6.178   6.528  0.1954 -0.2562  0.8183
  191SLPC   H3R22090   4.508   6.080   6.579 -0.1197  0.4137  2.0295
  191SLPC   H3S22091   4.469   6.163   6.433 -0.2891 -0.7406  1.1689
  191SLPC   C2422092   4.455   6.286   6.615  0.0719 -0.9151 -0.5040
  191SLPC   H4R22093   4.345   6.273   6.620 -0.1390  1.1017  0.7958
  191SLPC   H4S22094   4.464   6.380   6.555  1.6065 -0.4970  0.3530
  191SLPC   C2522095   4.508   6.307   6.757  0.3284  0.9977  0.4526
  191SLPC   H5R22096   4.454   6.390   6.808 -0.4933 -1.6528  4.0764
  191SLPC   H5S22097   4.615   6.338   6.760  0.0587  2.2124 -1.5367
  191SLPC   C2622098   4.489   6.184   6.847  0.7081 -0.0026 -0.2090
  191SLPC   H6R22099   4.539   6.097   6.800  1.6695  0.3435  0.1705
  191SLPC   H6S22100   4.383   6.151   6.861  0.8129  0.4757  1.9176
  191SLPC   C2722101   4.551   6.206   6.999  0.5720 -0.2474 -0.0215
  191SLPC   H7R22102   4.499   6.121   7.049 -1.2788 -0.2114 -1.8226
  191SLPC   H7S22103   4.520   6.300   7.050  0.0905  1.0266 -2.5585
  191SLPC   C2822104   4.704   6.185   7.019  0.6226 -0.4682 -0.0019
  191SLPC   H8R22105   4.763   6.234   6.939  1.3586  2.0915  2.0660
  191SLPC   H8S22106   4.726   6.077   7.001 -2.2085 -0.9553 -0.7563
  191SLPC   C2922107   4.732   6.233   7.160  0.0573  0.1076  0.0549
  191SLPC   H9R22108   4.697   6.336   7.175 -0.3313 -0.0960  0.5742
  191SLPC  C21022109   4.806   6.171   7.253  0.2428 -0.2941  0.6103
  191SLPC  H10R22110   4.819   6.224   7.349  0.2061  1.7644 -0.5112
  191SLPC  C21122111   4.874   6.039   7.251  0.3603  0.3784 -0.2089
  191SLPC  H11R22112   4.976   6.046   7.293 -0.2242  2.0892  0.9656
  191SLPC  H11S22113   4.893   6.024   7.142  0.4047 -0.8826 -0.0380
  191SLPC  C21222114   4.804   5.922   7.321  0.0160 -0.0257 -0.0698
  191SLPC  H12R22115   4.767   5.850   7.245 -1.3335  1.1966 -0.6032
  191SLPC  C21322116   4.778   5.907   7.457  0.5064 -0.8947  0.8369
  191SLPC  H13R22117   4.699   5.840   7.493 -0.0437 -0.5523  0.2846
  191SLPC  C21422118   4.831   6.001   7.565 -0.6905 -0.0701 -0.0073
  191SLPC  H14R22119   4.890   6.086   7.526  0.6178 -0.9289  0.0647
  191SLPC  H14S22120   4.907   5.949   7.628 -1.2049 -1.1855 -0.3011
  191SLPC  C21522121   4.734   6.077   7.652 -0.1758 -0.5593 -0.2843
  191SLPC  H15R22122   4.677   6.001   7.710  1.2144 -1.6470 -0.3157
  191SLPC  H15S22123   4.659   6.117   7.581  0.1898 -1.0823 -0.9664
  191SLPC  C21622124   4.801   6.192   7.736 -0.1324 -0.5638 -0.2275
  191SLPC  H16R22125   4.727   6.257   7.787  1.3874  2.5017 -1.7701
  191SLPC  H16S22126   4.860   6.264   7.675 -1.5275 -1.3422 -2.5468
  191SLPC  C21722127   4.887   6.123   7.847 -0.5686 -0.5636 -0.3224
  191SLPC  H17R22128   4.955   6.046   7.806  1.0099  0.1063  0.9801
  191SLPC  H17S22129   4.813   6.080   7.918 -1.8877  1.9695 -0.1016
  191SLPC  C21822130   4.984   6.213   7.913 -0.0077 -0.0744  0.3440
  191SLPC  H18R22131   4.928   6.294   7.965  0.6838  0.4143  0.3288
  191SLPC  H18S22132   5.036   6.270   7.833  0.9130  2.1714  2.4899
  191SLPC  H18T22133   5.058   6.177   7.987 -0.7309  1.2752  1.7314
  191SLPC   C3322134   4.346   5.834   6.669 -0.6740 -0.4087 -0.0100
  191SLPC   H3X22135   4.253   5.858   6.725 -1.4408 -1.1200 -0.9646
  191SLPC   H3Y22136   4.416   5.918   6.682 -0.5932 -0.4495 -0.1789
  191SLPC   C3422137   4.412   5.704   6.729 -0.2668  0.1154 -0.3521
  191SLPC   H4X22138   4.517   5.686   6.697 -0.2428 -1.0867  0.3522
  191SLPC   H4Y22139   4.350   5.613   6.711 -2.1889  1.3902 -0.2985
  191SLPC   C3522140   4.405   5.700   6.882  0.3581  0.0829  0.0143
  191SLPC   H5X22141   4.416   5.600   6.929 -2.5295 -0.5336 -0.4712
  191SLPC   H5Y22142   4.299   5.729   6.898  0.5185 -0.0338  1.3385
  191SLPC   C3622143   4.498   5.798   6.948 -0.0751  0.1673  0.6321
  191SLPC   H6X22144   4.479   5.903   6.916 -0.1755 -0.7872 -2.6326
  191SLPC   H6Y22145   4.599   5.773   6.909 -0.0923  0.3427  0.4734
  191SLPC   C3722146   4.493   5.781   7.097  0.0526 -0.4015 -0.2773
  191SLPC   H7X22147   4.542   5.871   7.139 -1.5313  0.5205 -0.3703
  191SLPC   H7Y22148   4.546   5.687   7.125  1.1213  0.2583 -0.0698
  191SLPC   C3822149   4.347   5.774   7.153 -0.4706 -0.0244 -0.5927
  191SLPC   H8X22150   4.301   5.679   7.117  1.8077 -1.9520  1.3842
  191SLPC   H8Y22151   4.296   5.859   7.103 -0.5673  0.8628  0.9864
  191SLPC   C3922152   4.324   5.781   7.301  0.1255  0.2897  0.3869
  191SLPC   H9X22153   4.394   5.700   7.330  1.0003  1.3693  1.3212
  191SLPC   H9Y22154   4.221   5.745   7.321  0.4608 -1.6356 -1.2030
  191SLPC  C31022155   4.367   5.908   7.385  0.3398 -0.6685  0.6582
  191SLPC  H10X22156   4.476   5.927   7.377  0.1540 -0.1182 -0.5736
  191SLPC  H10Y22157   4.347   5.897   7.494  3.9506  0.0512  1.4482
  191SLPC  C31122158   4.307   6.033   7.332  0.5816 -0.3990  1.1190
  191SLPC  H11X22159   4.197   6.027   7.314  0.6341  1.8551 -0.2067
  191SLPC  H11Y22160   4.342   6.062   7.230 -1.4536 -0.1214  0.4727
  191SLPC  C31222161   4.331   6.155   7.417  0.1010 -0.7914  0.6023
  191SLPC  H12X22162   4.372   6.237   7.355 -2.9221  0.9490  0.8026
  191SLPC  H12Y22163   4.395   6.134   7.506 -1.0925  0.7971  1.8576
  191SLPC  C31322164   4.203   6.217   7.464 -0.2191 -0.3327  0.5895
  191SLPC  H13X22165   4.142   6.250   7.377  1.5492  1.3617 -0.0245
  191SLPC  H13Y22166   4.230   6.315   7.508 -0.1784 -0.9150  1.8675
  191SLPC  C31422167   4.127   6.137   7.570  0.4038  0.2047  0.6344
  191SLPC  H14X22168   4.186   6.084   7.647 -2.1558 -2.5342  0.7808
  191SLPC  H14Y22169   4.077   6.055   7.515  0.9523 -1.4045  2.4948
  191SLPC  C31522170   4.029   6.236   7.641  0.4840  0.1934  0.2185
  191SLPC  H15X22171   3.950   6.168   7.680  2.3225 -0.7053  2.4498
  191SLPC  H15Y22172   3.979   6.314   7.579 -1.5086  0.7148  2.4107
  191SLPC  C31622173   4.088   6.313   7.758 -0.0148  0.4126 -0.2280
  191SLPC  H16X22174   3.994   6.354   7.800 -1.7189 -2.2905 -1.2977
  191SLPC  H16Y22175   4.183   6.366   7.732  2.3008 -3.4381 -0.0208
  191SLPC  C31722176   4.135   6.228   7.872 -0.6635 -0.2186 -0.7529
  191SLPC  H17X22177   4.230   6.173   7.852 -0.8130 -1.6862  2.2740
  191SLPC  H17Y22178   4.053   6.156   7.894 -0.3890  0.1038  1.4484
  191SLPC  C31822179   4.153   6.321   7.996 -0.3093  0.3677  0.4582
  191SLPC  H18X22180   4.226   6.402   7.977  1.2303 -0.9215  0.7223
  191SLPC  H18Y22181   4.192   6.272   8.088  1.6227  1.2063  0.1211
  191SLPC  H18Z22182   4.063   6.379   8.024 -1.5864 -1.4089  0.1000
  192SLPC     N22183   5.183   6.105   6.225  0.3436  0.1570  0.7515
  192SLPC   C1322184   5.183   5.990   6.322 -0.2670 -0.0895  0.1103
  192SLPC  H13A22185   5.255   5.912   6.304 -0.5083  0.2100 -2.3324
  192SLPC  H13B22186   5.195   6.031   6.421  2.1466 -1.0356  0.2370
  192SLPC  H13C22187   5.089   5.938   6.310 -0.1287  0.1501 -2.3549
  192SLPC   C1422188   5.144   6.072   6.089 -0.3246 -0.3068 -0.3672
  192SLPC  H14A22189   5.045   6.029   6.087 -0.3668 -0.1768 -1.9701
  192SLPC  H14B22190   5.153   6.163   6.032 -0.3058  0.6474  1.1363
  192SLPC  H14C22191   5.223   6.019   6.039  0.8443  1.5556 -0.5316
  192SLPC   C1522192   5.323   6.158   6.222  0.0672  0.0511 -0.4088
  192SLPC  H15A22193   5.341   6.212   6.314 -1.1980  2.1750 -1.3797
  192SLPC  H15B22194   5.400   6.082   6.225 -1.7013 -1.8148 -1.6711
  192SLPC  H15C22195   5.353   6.229   6.147  1.1448  0.3847  0.3219
  192SLPC   C1222196   5.096   6.210   6.282  1.4280  0.3466  0.0224
  192SLPC  H12A22197   4.995   6.173   6.277  2.1846 -1.9141  0.8598
  192SLPC  H12B22198   5.091   6.293   6.213  1.0614 -0.0896 -0.4807
  192SLPC   C1122199   5.128   6.262   6.429  0.2150  0.4293  0.1339
  192SLPC  H11A22200   5.119   6.183   6.506 -1.1417  0.7452  0.3109
  192SLPC  H11B22201   5.047   6.333   6.457 -0.9219 -1.3058  1.3051
  192SLPC     P22202   5.249   6.487   6.368  0.2613 -0.0139  0.3480
  192SLPC   O1322203   5.379   6.552   6.369 -0.4689 -0.1109 -0.3222
  192SLPC   O1422204   5.172   6.485   6.239 -0.4664 -0.4057  0.0903
  192SLPC   O1222205   5.253   6.332   6.427  0.3656 -0.3526  0.4995
  192SLPC   O1122206   5.167   6.553   6.488 -0.0298  0.1220  0.5014
  192SLPC    C122207   5.206   6.549   6.622  0.7596  0.6439 -0.4093
  192SLPC    HA22208   5.167   6.464   6.683 -0.1908  0.5716 -1.1090
  192SLPC    HB22209   5.316   6.545   6.633  0.6122  0.5135  1.2071
  192SLPC    C222210   5.157   6.683   6.689  0.0621 -0.0618  0.0334
  192SLPC    HS22211   5.211   6.709   6.782 -1.6233 -0.3045  1.1011
  192SLPC   O2122212   5.023   6.652   6.730  0.3534  0.0369 -0.1560
  192SLPC   C2122213   4.976   6.711   6.846  0.5717  0.2354 -0.0583
  192SLPC   O2222214   5.043   6.781   6.921  0.1916  0.2120  0.0091
  192SLPC   C2222215   4.836   6.669   6.877 -0.2477 -0.1555  0.2243
  192SLPC   H2R22216   4.774   6.760   6.871 -0.1856  0.0274  2.1085
  192SLPC   H2S22217   4.794   6.603   6.797  0.3855 -1.4291  0.9391
  192SLPC    C322218   5.169   6.811   6.600 -0.0509  0.5827  0.4749
  192SLPC    HX22219   5.113   6.786   6.507  0.5211  0.4212  0.1759
  192SLPC    HY22220   5.275   6.830   6.575 -0.7077  2.5257 -1.0136
  192SLPC   O3122221   5.111   6.926   6.667  0.4505 -0.1508 -0.2520
  192SLPC   C3122222   5.193   6.998   6.747 -0.8238  0.1249  0.1929
  192SLPC   O3222223   5.312   6.982   6.764  0.0557  0.2396 -0.6452
  192SLPC   C3222224   5.128   7.134   6.795 -0.5787  0.2394 -0.0589
  192SLPC   H2X22225   5.110   7.195   6.703 -1.0285 -1.6671 -1.2680
  192SLPC   H2Y22226   5.211   7.195   6.836 -0.4594  0.1464 -0.1650
  192SLPC   C2322227   4.809   6.598   7.008  0.6201  0.4453  0.5885
  192SLPC   H3R22228   4.895   6.536   7.040  2.7753  2.2867 -1.4541
  192SLPC   H3S22229   4.732   6.523   6.981  0.2452  0.1921  2.3072
  192SLPC   C2422230   4.770   6.680   7.122 -0.2062 -1.3003  0.0168
  192SLPC   H4R22231   4.691   6.749   7.087 -0.3747 -1.0656  0.8519
  192SLPC   H4S22232   4.849   6.735   7.178 -1.7362  1.9134 -0.8835
  192SLPC   C2522233   4.691   6.594   7.229  0.1376  0.7821 -1.2973
  192SLPC   H5R22234   4.765   6.528   7.280 -0.6145  0.7778 -0.1950
  192SLPC   H5S22235   4.617   6.531   7.175 -0.7782  1.5648 -0.9693
  192SLPC   C2622236   4.631   6.683   7.343  0.3202  0.3027 -0.5672
  192SLPC   H6R22237   4.550   6.747   7.301 -0.8820 -0.9224 -0.1525
  192SLPC   H6S22238   4.703   6.754   7.389  1.2470  0.0336 -1.5810
  192SLPC   C2722239   4.545   6.601   7.444  0.1216  0.2668  0.2181
  192SLPC   H7R22240   4.485   6.530   7.383  1.8112 -0.3492 -0.7666
  192SLPC   H7S22241   4.483   6.657   7.517 -0.5074  1.9844 -1.5874
  192SLPC   C2822242   4.644   6.522   7.539  0.1476 -0.0003  0.6530
  192SLPC   H8R22243   4.711   6.595   7.590 -1.4371  2.4117 -0.6117
  192SLPC   H8S22244   4.712   6.458   7.479 -3.0284 -1.5553 -1.4395
  192SLPC   C2922245   4.559   6.434   7.630 -0.0367 -0.4057 -0.2505
  192SLPC   H9R22246   4.520   6.342   7.584 -3.8875  0.5304  0.9874
  192SLPC  C21022247   4.538   6.467   7.758  0.2870 -0.2243  0.3060
  192SLPC  H10R22248   4.485   6.394   7.821 -0.7402  0.3268  0.0983
  192SLPC  C21122249   4.588   6.590   7.839 -0.2841 -0.0596 -0.4781
  192SLPC  H11R22250   4.595   6.679   7.774 -0.1186  2.0633  2.3414
  192SLPC  H11S22251   4.695   6.564   7.857 -0.1679  2.3966  3.0877
  192SLPC  C21222252   4.537   6.626   7.976 -0.0814  0.1539 -0.0225
  192SLPC  H12R22253   4.460   6.703   7.964  0.2214  0.5216  0.3786
  192SLPC  C21322254   4.549   6.572   8.101 -0.2462  0.1191 -0.2097
  192SLPC  H13R22255   4.514   6.626   8.190  0.3583 -1.7606  1.2026
  192SLPC  C21422256   4.636   6.458   8.144  0.1449  0.3992 -0.4544
  192SLPC  H14R22257   4.702   6.495   8.226 -0.9035 -1.5644  1.3221
  192SLPC  H14S22258   4.699   6.432   8.057  2.1255  0.2762  0.9785
  192SLPC  C21522259   4.569   6.334   8.186  0.3694 -0.3983  0.8165
  192SLPC  H15R22260   4.493   6.309   8.109 -0.0557  0.4504  0.9515
  192SLPC  H15S22261   4.519   6.356   8.283  0.9470  0.9996  0.8078
  192SLPC  C21622262   4.671   6.218   8.188 -0.4145  0.1974  0.1150
  192SLPC  H16R22263   4.757   6.247   8.252  0.0415 -1.8643  0.4582
  192SLPC  H16S22264   4.703   6.212   8.082 -0.8410 -1.2662  0.0683
  192SLPC  C21722265   4.625   6.080   8.228  0.4602  0.9003  0.4682
  192SLPC  H17R22266   4.594   6.090   8.335 -1.8856 -2.9840  0.2336
  192SLPC  H17S22267   4.532   6.038   8.184  0.5080  0.8167  0.4486
  192SLPC  C21822268   4.738   5.980   8.215 -0.0802  0.0412  0.1085
  192SLPC  H18R22269   4.716   5.888   8.274 -2.9247  0.4402 -0.2560
  192SLPC  H18S22270   4.832   6.016   8.262  0.1373  0.5670 -0.7170
  192SLPC  H18T22271   4.749   5.948   8.109  0.6713  0.9987 -0.1023
  192SLPC   C3322272   5.025   7.110   6.897  0.4487  0.8053  0.5074
  192SLPC   H3X22273   4.958   7.025   6.873  0.3193  0.3716  2.3371
  192SLPC   H3Y22274   4.959   7.199   6.904 -1.1730 -0.2413 -1.0996
  192SLPC   C3422275   5.075   7.081   7.038 -0.0283  0.1110  0.0707
  192SLPC   H4X22276   5.115   7.175   7.082  0.0907 -0.0310  0.2661
  192SLPC   H4Y22277   5.163   7.014   7.027  0.0458 -0.2981  2.8483
  192SLPC   C3522278   4.964   7.037   7.131  0.6980 -0.3386 -0.4692
  192SLPC   H5X22279   5.022   6.983   7.210 -0.6618  1.5822  1.9103
  192SLPC   H5Y22280   4.898   6.955   7.097 -0.6552  0.5932 -0.0912
  192SLPC   C3622281   4.871   7.147   7.179  0.0304 -0.6678  0.3135
  192SLPC   H6X22282   4.814   7.187   7.093  2.2851 -0.1502 -0.9812
  192SLPC   H6Y22283   4.940   7.229   7.209  1.5465 -1.7863 -0.0142
  192SLPC   C3722284   4.794   7.104   7.302  0.1889 -0.0585  0.6984
  192SLPC   H7X22285   4.752   7.001   7.291  0.2920 -0.0321  0.0714
  192SLPC   H7Y22286   4.710   7.177   7.307  0.6804  0.7066 -1.8577
  192SLPC   C3822287   4.879   7.125   7.428  0.3932  0.5720 -0.6233
  192SLPC   H8X22288   4.905   7.232   7.446 -0.0006  0.5955 -0.1842
  192SLPC   H8Y22289   4.976   7.073   7.411 -0.3012 -0.5963 -1.0762
  192SLPC   C3922290   4.807   7.071   7.551 -0.3225 -0.3674  0.2056
  192SLPC   H9X22291   4.781   6.965   7.530 -1.4072  0.1514 -1.1578
  192SLPC   H9Y22292   4.713   7.125   7.574  0.7798  2.4011 -1.4801
  192SLPC  C31022293   4.895   7.062   7.675 -0.2350  0.8739 -0.3692
  192SLPC  H10X22294   4.997   7.024   7.651 -1.5733 -1.3976 -2.6835
  192SLPC  H10Y22295   4.846   6.994   7.747  0.2065 -2.1806 -2.8384
  192SLPC  C31122296   4.914   7.196   7.751  0.0355 -0.3452  0.9125
  192SLPC  H11X22297   4.817   7.248   7.766 -0.0468  0.0035 -0.7776
  192SLPC  H11Y22298   4.970   7.264   7.684 -1.5615  0.2583  0.1886
  192SLPC  C31222299   4.997   7.175   7.879  0.4387 -0.0575  0.0328
  192SLPC  H12X22300   5.104   7.172   7.847  0.2500 -0.0351 -0.6071
  192SLPC  H12Y22301   4.969   7.078   7.926 -0.8067  0.7491  1.0026
  192SLPC  C31322302   4.983   7.276   7.990 -0.3729 -1.0050 -0.1313
  192SLPC  H13X22303   4.878   7.288   8.021 -0.8188  1.0976 -2.3154
  192SLPC  H13Y22304   5.005   7.375   7.945  1.4527 -1.5109 -0.4409
  192SLPC  C31422305   5.085   7.251   8.105  0.3004  0.6598  0.6764
  192SLPC  H14X22306   5.187   7.222   8.072  0.0023  0.1498  0.1928
  192SLPC  H14Y22307   5.043   7.167   8.164 -2.2572  1.4006  0.0158
  192SLPC  C31522308   5.100   7.365   8.199 -0.0983 -0.3073  0.0678
  192SLPC  H15X22309   5.136   7.452   8.141 -3.2961  1.0231  0.0206
  192SLPC  H15Y22310   5.188   7.331   8.258  0.0906 -0.0956 -0.0957
  192SLPC  C31622311   4.982   7.398   8.283 -0.2305  0.2966  0.3989
  192SLPC  H16X22312   4.926   7.308   8.317 -0.0385  0.0962  0.1898
  192SLPC  H16Y22313   4.907   7.455   8.224  0.1106  2.3545  1.9457
  192SLPC  C31722314   5.025   7.470   8.416 -0.5966 -0.1938  0.0187
  192SLPC  H17X22315   5.099   7.410   8.473  0.3033  0.8324 -0.0586
  192SLPC  H17Y22316   4.933   7.481   8.478 -0.5929 -0.3691  0.0554
  192SLPC  C31822317   5.072   7.611   8.394 -0.1288 -0.6718  0.2817
  192SLPC  H18X22318   5.166   7.623   8.337  0.9147 -2.4573  1.5456
  192SLPC  H18Y22319   5.092   7.664   8.490 -1.9079  0.6908 -0.0784
  192SLPC  H18Z22320   4.995   7.678   8.350 -0.1649 -0.4118  0.7311
  193SOD    SOD22321   0.721   4.048  16.592  0.4370 -0.3264 -0.4407
  194SOD    SOD22322   1.792   2.387   6.246 -0.5949 -0.0556 -0.0792
  195SOD    SOD22323   0.581   0.515  12.187  0.7547 -0.1507 -0.0403
  196SOD    SOD22324   1.501   1.046  15.821 -0.2255 -0.2150 -0.2818
  197SOD    SOD22325   1.500   2.944  15.657  0.0507 -0.0204 -0.1547
  198SOD    SOD22326   1.255   4.525  13.410  0.1409  0.3446 -0.2527
  199SOD    SOD22327   0.163   1.861   6.521  0.2437 -0.0029 -0.0385
  200SOD    SOD22328   6.508   6.435  15.094 -0.1873  0.4017 -0.1340
  201SOD    SOD22329   2.534   1.062   6.259 -0.0139  0.6205  0.2566
  202SOD    SOD22330   0.181   4.084  12.056 -0.0069 -0.0766  0.8502
  203SOD    SOD22331   3.265   3.183  12.667  0.0113  0.8082 -0.1494
  204SOD    SOD22332   5.123   6.421   1.689 -0.4332 -0.0296  0.1250
  205SOD    SOD22333   6.162   3.268   6.263 -0.2556 -0.0344 -0.1122
  206SOD    SOD22334   1.133   0.272  15.674  0.5388 -0.1755  0.4427
  207SOD    SOD22335   3.829   5.893  17.259  0.0409 -0.1091 -0.3169
  208SOD    SOD22336   6.813   2.279   2.440 -0.2663 -0.1188  0.2772
  209SOD    SOD22337   3.128   1.810   3.758  0.5294  0.3534  0.1320
  210SOD    SOD22338   2.775   0.275  16.261 -0.0794 -0.1061  0.3842
  211SOD    SOD22339   6.300   4.520  12.322 -0.5466  0.2283 -0.8080
  212SOD    SOD22340   3.329   3.405  15.863  0.1735 -0.5098 -0.0382
  213SOD    SOD22341   1.495   2.364  13.430  0.3571  0.1154  0.2694
  214SOD    SOD22342   6.409   3.508   4.514 -0.5582  0.1494  0.1009
  215SOD    SOD22343   4.062   0.798  10.994  0.4129  0.4449  0.0646
  216SOD    SOD22344   0.384   1.034  15.098 -0.6848 -0.0988 -0.3601
  217SOD    SOD22345   4.833   1.195   2.450 -0.1233  0.2420 -0.6506
  218SOD    SOD22346   5.873   1.385  15.443 -0.3239  0.1084 -0.0510
  219SOD    SOD22347   0.108   0.335  15.436  0.1489 -0.1551  0.0966
  220SOD    SOD22348   1.421   3.857  12.419 -0.6282  0.2306 -0.5768
  221SOD    SOD22349   3.494   2.188  12.452 -0.0485 -0.4015  0.6074
  222SOD    SOD22350   1.898   2.506  10.787 -0.0934  0.3623 -0.2701
  223SOD    SOD22351   4.170   5.089   5.269 -0.3273  0.0435 -0.2295
  224SOD    SOD22352   1.281   3.704  11.205  0.4397  0.1432  0.4458
  225SOD    SOD22353   4.959   2.592   5.132  0.2455 -0.2409 -0.2742
  226SOD    SOD22354   4.345   5.386  11.042 -0.0995 -0.0493  0.1000
  227SOD    SOD22355   5.317   1.604   3.792  0.1000  0.8082  0.1903
  228SOD    SOD22356   3.652   1.336   0.495 -0.0682  0.0089  0.4760
  229SOD    SOD22357   0.691   2.678   5.493  0.3271  0.3981 -0.4240
  230SOD    SOD22358   1.410   3.113   4.094 -0.4702 -0.4920 -0.0534
  231SOD    SOD22359   4.657   1.959   6.615  0.3952  0.2330 -0.1840
  232SOD    SOD22360   3.456   3.192   5.026 -0.0459  0.2547 -0.4005
  233SOD    SOD22361   6.375   2.199  14.706 -0.6905 -0.0199 -0.0939
  234SOD    SOD22362   4.536   6.134   2.129  0.0664 -0.7754 -0.3245
  235SOD    SOD22363   1.010   1.392  11.215  0.1453 -0.4133  0.0681
  236SOD    SOD22364   6.687   6.060   3.730  0.0594  0.2616 -0.2846
  237SOD    SOD22365   2.752   5.126   0.420  0.0855  0.2318  0.3705
  238SOD    SOD22366   3.942   5.689  13.552 -0.7908 -0.4545  0.5443
  239SOD    SOD22367   3.841   0.177  15.352  0.1439  0.3090 -0.1262
  240SOD    SOD22368   2.315   4.279   0.740  0.4456  0.0393  0.1941
  241SOD    SOD22369   5.194   5.139   5.459 -0.8908 -0.4145 -0.2469
  242SOD    SOD22370   2.153   6.286   2.123  0.4403 -0.0093  0.4649
  243SOD    SOD22371   3.028   5.538   5.259 -0.2598  0.3229  0.1195
  244SOD    SOD22372   0.221   5.509  16.596  0.2623  0.0375 -0.1136
  245SOD    SOD22373   2.348   6.568  12.477  0.3300  0.5566 -0.0280
  246SOD    SOD22374   6.628   6.155   4.774 -0.1915  0.4041  0.7495
  247SOD    SOD22375   1.408   6.500   5.039  0.0538  0.5691  0.3217
  248SOD    SOD22376   4.265   0.244  11.335 -0.3180  0.2351  0.4063
  249SOD    SOD22377   1.175   3.115   1.540  0.4533 -0.1153 -0.1044
  250SOD    SOD22378   2.238   0.686   5.364 -0.1759  0.0623  0.5079
  251SOD    SOD22379   2.753   4.681  10.988  0.3358  0.0598 -0.2975
  252SOD    SOD22380   0.323   4.448  14.618 -0.3920  0.5320  0.0738
  253SOD    SOD22381   3.901   0.887  15.071  0.2921  0.6829  0.1547
  254SOD    SOD22382   0.446   4.023   3.407  0.0205 -0.2282 -0.1771
  255SOD    SOD22383   3.984   0.511  17.120  0.0452  0.4950 -0.1654
  256SOD    SOD22384   5.475   5.340  13.836 -0.3359  0.2565  0.6606
  257SOD    SOD22385   3.518   2.362   2.789  0.0692 -0.2654 -0.3908
  258SOD    SOD22386   4.479   5.590   1.380 -0.1454 -0.0063  0.2413
  259SOD    SOD22387   0.038   4.376  10.417 -0.2078  0.0287 -0.2712
  260SOD    SOD22388   3.498   3.568   3.848 -0.0186 -0.1176  0.6404
  261SOD    SOD22389   1.450   5.361  11.924 -0.1875  0.4968 -0.0243
  262SOD    SOD22390   5.990   0.600   0.825 -0.2440 -0.0733  0.0497
  263SOD    SOD22391   1.827   4.808   0.364 -0.2164  0.2354 -0.3971
  264SOD    SOD22392   4.328   6.723   5.583 -0.0121 -0.3402 -0.1624
  265SOD    SOD22393   3.843   4.325  12.077  0.6900 -0.0058  0.2353
  266CLA    CLA22394   2.542   5.889   1.063  0.0570  0.1322 -0.4085
  267CLA    CLA22395   0.836   3.363   0.142  0.2119 -0.0910  0.4024
  268CLA    CLA22396   5.573   3.924  13.177  0.5991  0.1630  0.3136
  269CLA    CLA22397   6.108   6.628  15.942  0.4680 -0.1464  0.1567
  270CLA    CLA22398   5.910   5.132  13.945  0.2785 -0.1069 -0.2491
  271CLA    CLA22399   6.669   4.323  14.782 -0.0195  0.4173 -0.4506
  272CLA    CLA22400   4.547   3.028  15.693 -0.2017 -0.0673 -0.4333
  273CLA    CLA22401   3.543   2.528   3.267 -0.3383 -0.0760  0.0678
  274CLA    CLA22402   6.612   1.804  14.408  0.1359 -0.4863 -0.3354
  275CLA    CLA22403   6.779   3.744   1.465 -0.0946 -0.0714  0.0095
  276CLA    CLA22404   5.280   3.968   1.215  0.0112 -0.1361  0.0960
  277CLA    CLA22405   5.924   5.720  14.314 -0.1409  0.0404 -0.2635
  278CLA    CLA22406   3.338   5.008   4.919  0.0735  0.1918 -0.0383
  279CLA    CLA22407   0.617   4.121   3.628  0.4840  0.0519 -0.0498
  280CLA    CLA22408   0.887   1.212  12.454 -0.4820 -0.2196  0.4023
  281CLA    CLA22409   0.122   2.626   5.846  0.1385  0.4275  0.4682
  282CLA    CLA22410   1.732   3.301  13.389 -0.1475 -0.4000 -0.2945
  283CLA    CLA22411   2.375   3.061  13.128  0.2901  0.1229  0.2824
  284CLA    CLA22412   2.180   0.090  13.694 -0.2767  0.0276  0.1734
  285CLA    CLA22413   5.015   1.441  11.955  0.1063  0.2797 -0.0679
  286CLA    CLA22414   5.491   6.129   0.654  0.3245 -0.0769  0.0474
  287CLA    CLA22415   1.141   5.232  12.590  0.0164 -0.1254  0.0204
  288CLA    CLA22416   2.682   2.613  16.317  0.0232  0.5642 -0.5735
  289CLA    CLA22417   0.538   6.699   4.933 -0.0158 -0.0211  0.2653
  290CLA    CLA22418   1.692   3.974   0.832  0.0226  0.3671  0.4074
  291CLA    CLA22419   6.532   3.172   4.272  0.2537  0.1249 -0.1031
  292CLA    CLA22420   6.741   6.648  13.141 -0.2561  0.3716 -0.0388
  293CLA    CLA22421   3.649   5.160  14.294 -0.5181  0.1255  0.0163
  294CLA    CLA22422   2.777   4.474   1.601  0.2345  0.4629 -0.1047
  295CLA    CLA22423   4.653   5.513  11.603  0.1910 -0.0047 -0.3920
  296CLA    CLA22424   5.198   5.462  16.384 -0.2483 -0.0960 -0.0806
  297CLA    CLA22425   1.984   5.057  17.083 -0.4563 -0.0685 -0.1880
  298CLA    CLA22426   0.828   4.756   0.428  0.2211 -0.4423 -0.0457
  299CLA    CLA22427   1.953   0.448  13.462 -0.2929 -0.3489 -0.0322
  300CLA    CLA22428   2.520   0.655  16.468 -0.2909  0.0242 -0.1634
  301CLA    CLA22429   4.189   3.627   3.143  0.1974 -0.0044 -0.2789
  302CLA    CLA22430   1.818   2.065   1.903 -0.1677 -0.0244  0.0880
  303CLA    CLA22431   1.176   0.598   3.220 -0.1748 -0.0364 -0.0055
  304CLA    CLA22432   0.495   1.854   2.391 -0.1754  0.2625  0.0736
  305CLA    CLA22433   2.209   2.158  12.048 -0.2258  0.1364  0.6172
  306CLA    CLA22434   2.695   2.194   5.593  0.1562 -0.0837  0.0091
  307CLA    CLA22435   4.757   0.587  11.268 -0.0382  0.2812  0.2522
  308CLA    CLA22436   3.601   3.193   0.478  0.2876  0.3613  0.2644
  309CLA    CLA22437   1.237   0.848  15.229  0.2275 -0.4394  0.2769
  310CLA    CLA22438   6.556   3.733   4.561  0.0926 -0.4000  0.3623
  311CLA    CLA22439   2.190   1.074   2.961 -0.0406 -0.1888  0.1990
  312CLA    CLA22440   0.101   6.226   2.574 -0.2751 -0.0036  0.1614
  313CLA    CLA22441   1.594   5.128  13.113 -0.1677 -0.0554 -0.1405
  314CLA    CLA22442   1.463   3.240   3.222 -0.1209  0.0175  0.0258
  315CLA    CLA22443   1.904   3.364   5.612 -0.1165  0.0020  0.4050
  316CLA    CLA22444   6.276   0.253   1.260 -0.0382 -0.1795 -0.1268
  317CLA    CLA22445   0.148   1.415  12.282 -0.3193  0.2520 -0.0788
  318CLA    CLA22446   3.090   3.581   3.741  0.0940 -0.0035 -0.3325
  319TIP3   OH222447   1.404   1.133  14.745  0.3311  0.1731  0.2259
  319TIP3    H122448   1.323   1.129  14.694  1.3578  0.8728 -1.5118
  319TIP3    H222449   1.387   1.078  14.821 -0.9843 -1.4741 -1.2153
  320TIP3   OH222450   3.767   2.074   4.685 -0.3742 -0.1273 -0.4405
  320TIP3    H122451   3.712   2.081   4.607 -1.2355  1.2360  0.2690
  320TIP3    H222452   3.744   2.151   4.738 -0.3238 -1.4138  1.4868
  321TIP3   OH222453   5.882   6.709  15.192 -0.7923 -0.2833  0.0946
  321TIP3    H122454   5.863   6.617  15.211  0.7921 -0.6767 -0.1345
  321TIP3    H222455   5.825   6.758  15.251 -1.0357 -1.4228  0.8267
  322TIP3   OH222456   4.848   6.405   0.457 -0.5297 -0.6031 -0.0374
  322TIP3    H122457   4.821   6.316   0.433 -0.0656 -0.7878  0.1233
  322TIP3    H222458   4.811   6.460   0.389 -1.4224 -0.8399  0.2457
  323TIP3   OH222459   1.330   5.368  13.320 -0.5381  0.1637 -0.2584
  323TIP3    H122460   1.318   5.378  13.225  0.4222  0.0017 -0.4013
  323TIP3    H222461   1.314   5.455  13.356 -2.6179 -0.1569 -0.3843
  324TIP3   OH222462   2.923   6.588  17.290 -0.3027 -0.2658 -0.0894
  324TIP3    H122463   2.923   6.505  17.338  0.7932 -1.4994 -2.1407
  324TIP3    H222464   3.009   6.626  17.307 -0.1063 -0.4557 -0.6558
  325TIP3   OH222465   1.140   6.765   4.810  0.5088  0.9495  0.4693
  325TIP3    H122466   1.091   6.711   4.748  2.0178  0.9645 -0.7529
  325TIP3    H222467   1.085   6.767   4.889 -1.0679  0.3140 -0.6014
  326TIP3   OH222468   2.762   3.382   4.026  0.3827  0.4106  0.1715
  326TIP3    H122469   2.857   3.388   4.035  0.4626  0.7180 -0.8367
  326TIP3    H222470   2.734   3.471   4.002 -0.4665  0.9873  3.0128
  327TIP3   OH222471   5.018   4.112   1.527 -0.1733  0.5749 -0.2500
  327TIP3    H122472   4.983   4.196   1.496  1.4262  1.0347 -0.8775
  327TIP3    H222473   5.110   4.131   1.547 -0.0808 -0.7786  0.6222
  328TIP3   OH222474   0.757   4.860   4.655  0.1490  0.3592 -0.3103
  328TIP3    H122475   0.761   4.905   4.571 -0.9578  1.4072  0.2000
  328TIP3    H222476   0.733   4.770   4.632  0.2624  0.5381 -1.1534
  329TIP3   OH222477   1.707   3.931   1.171 -0.3742 -0.0976 -0.9515
  329TIP3    H122478   1.726   3.997   1.104 -0.0676 -1.0448 -1.8190
  329TIP3    H222479   1.777   3.867   1.162 -0.1280 -0.0378  0.5501
  330TIP3   OH222480   6.315   3.195  14.799 -0.4458 -0.2089 -0.0525
  330TIP3    H122481   6.350   3.279  14.769  0.6552 -0.1814  1.2561
  330TIP3    H222482   6.310   3.204  14.894 -0.8231 -1.4371  0.0506
  331TIP3   OH222483   2.640   2.262   0.416 -0.4021  0.3981  0.1396
  331TIP3    H122484   2.591   2.222   0.345 -0.6088 -0.5329  0.7980
  331TIP3    H222485   2.680   2.340   0.377  0.2493 -0.6010 -1.2466
  332TIP3   OH222486   3.985   2.674   3.526  0.4062 -0.2602  0.3602
  332TIP3    H122487   3.980   2.608   3.595 -0.6693 -0.0986  0.4407
  332TIP3    H222488   3.940   2.634   3.451  1.0907 -0.2209 -0.0805
  333TIP3   OH222489   3.567   4.808  16.263  0.0093 -0.2534 -0.1052
  333TIP3    H122490   3.581   4.746  16.335 -3.0852 -0.4559  0.3828
  333TIP3    H222491   3.476   4.795  16.237  0.8796  0.1911 -3.7488
  334TIP3   OH222492   3.805   6.397  15.846  0.2312 -0.0244 -0.1414
  334TIP3    H122493   3.892   6.357  15.845 -0.3441 -1.3972  1.8573
  334TIP3    H222494   3.777   6.391  15.937 -1.3408  1.8071 -0.4645
  335TIP3   OH222495   5.515   3.688   4.875 -0.1244 -0.3736 -0.0319
  335TIP3    H122496   5.583   3.620   4.884  0.5671  0.4936  1.3427
  335TIP3    H222497   5.456   3.673   4.949 -1.5071 -1.1729 -1.2652
  336TIP3   OH222498   3.389   6.681   0.658 -0.0094 -0.0273  0.3729
  336TIP3    H122499   3.453   6.612   0.673  0.3761  0.2139 -0.1362
  336TIP3    H222500   3.441   6.758   0.637 -0.4481  0.3201  0.5500
  337TIP3   OH222501   1.123   4.889  13.781  0.0475  0.2714 -0.0428
  337TIP3    H122502   1.164   4.952  13.841  1.4344  1.4631 -2.1687
  337TIP3    H222503   1.158   4.912  13.695 -0.7750 -2.3240 -1.1175
  338TIP3   OH222504   5.174   5.239  12.136  0.1774 -0.1970  0.1549
  338TIP3    H122505   5.163   5.255  12.043  0.3509 -1.1794 -0.0392
  338TIP3    H222506   5.269   5.245  12.151  0.0200  1.5058  0.5663
  339TIP3   OH222507   3.811   6.256   0.548 -0.8104 -0.0270 -0.4448
  339TIP3    H122508   3.811   6.170   0.506 -0.5064 -0.2360 -0.0222
  339TIP3    H222509   3.719   6.272   0.569 -0.7200 -0.7864  0.5590
  340TIP3   OH222510   1.038   6.209  14.141  0.4005 -0.2927 -0.4026
  340TIP3    H122511   1.100   6.242  14.206  0.6890  4.0125 -2.6896
  340TIP3    H222512   0.952   6.228  14.178  0.5574  1.5816 -0.9916
  341TIP3   OH222513   5.129   1.306   2.747 -0.2228 -0.0691 -0.4448
  341TIP3    H122514   5.160   1.233   2.694  1.4524 -0.4072  0.9351
  341TIP3    H222515   5.071   1.265   2.812  0.7322 -0.2122  0.3416
  342TIP3   OH222516   0.547   1.034  17.036  0.3462  0.1381 -0.3875
  342TIP3    H122517   0.637   1.063  17.023 -0.0720  3.1921  3.1160
  342TIP3    H222518   0.556   0.950  17.081  1.4137  0.2346 -0.3939
  343TIP3   OH222519   3.964   2.608  13.796 -0.4880 -0.7230  0.1451
  343TIP3    H122520   3.977   2.702  13.800 -1.3656 -0.5642 -0.7939
  343TIP3    H222521   3.889   2.595  13.738 -0.3019 -2.0012  0.1587
  344TIP3   OH222522   2.351   0.778  12.607 -0.2514 -0.0859 -0.4817
  344TIP3    H122523   2.329   0.735  12.690  0.7086 -1.3186 -0.8667
  344TIP3    H222524   2.275   0.762  12.551 -0.2134 -0.6428 -0.3764
  345TIP3   OH222525   2.702   1.839   5.868 -0.3242 -0.0671  0.8832
  345TIP3    H122526   2.731   1.880   5.787 -2.2371  0.1078  0.2590
  345TIP3    H222527   2.774   1.780   5.892  0.9936  1.1504 -0.0051
  346TIP3   OH222528   0.854   3.774  14.132  0.2290 -0.6091  0.5857
  346TIP3    H122529   0.879   3.776  14.039  0.8780  0.4431  0.7729
  346TIP3    H222530   0.835   3.682  14.149  0.6644 -0.9086 -0.4523
  347TIP3   OH222531   2.275   1.900  13.583  0.5085  0.0611  0.0038
  347TIP3    H122532   2.263   1.963  13.511  3.4678  0.5188 -0.1280
  347TIP3    H222533   2.308   1.821  13.541  0.5385 -0.2784  0.6626
  348TIP3   OH222534   1.589   0.175   1.405  0.3885  0.1017 -0.2927
  348TIP3    H122535   1.511   0.124   1.383  0.0570  1.4446 -2.4337
  348TIP3    H222536   1.556   0.245   1.461  0.2770 -0.1317 -0.0666
  349TIP3   OH222537   5.690   4.598   2.442 -0.1888  0.0618  0.1532
  349TIP3    H122538   5.684   4.623   2.534  1.2728 -1.6467  0.7420
  349TIP3    H222539   5.612   4.635   2.402 -0.6527  1.1526  1.9984
  350TIP3   OH222540   0.128   2.271  16.202 -0.0035  0.2956  0.7933
  350TIP3    H122541   0.142   2.332  16.129  0.6502  2.4460  2.6706
  350TIP3    H222542   0.044   2.298  16.239 -0.3531 -0.8216  0.8261
  351TIP3   OH222543   1.900   0.665  13.063 -0.0000  0.0776 -0.8124
  351TIP3    H122544   1.859   0.705  13.140  1.3669 -0.1477  0.0554
  351TIP3    H222545   1.883   0.727  12.992  1.0953  1.6457  0.2632
  352TIP3   OH222546   3.552   5.717  15.658  0.5343 -0.6394  0.2482
  352TIP3    H122547   3.524   5.627  15.678 -1.2314  0.3537  2.4916
  352TIP3    H222548   3.470   5.764  15.640  1.4023  0.6595 -0.3729
  353TIP3   OH222549   1.722   5.080   0.818  0.2758  0.4395 -0.2160
  353TIP3    H122550   1.636   5.081   0.777 -0.3126 -0.7622  0.9283
  353TIP3    H222551   1.777   5.133   0.761 -1.1203  0.8813 -1.1793
  354TIP3   OH222552   5.897   1.345   4.724  0.1388  0.0818  0.4192
  354TIP3    H122553   5.855   1.313   4.644 -0.3587 -1.3277  1.2215
  354TIP3    H222554   5.865   1.435   4.733 -0.0226  0.1659 -0.8051
  355TIP3   OH222555   4.317   0.141  16.231  0.1354  0.0366 -0.3955
  355TIP3    H122556   4.278   0.228  16.240  1.7544  0.7939 -0.5672
  355TIP3    H222557   4.282   0.107  16.148 -1.2216  0.1289  0.1252
  356TIP3   OH222558   3.813   0.246   2.875 -0.2668  0.5317  0.2674
  356TIP3    H122559   3.728   0.288   2.858 -0.2981  0.6520  0.7046
  356TIP3    H222560   3.862   0.311   2.925 -0.1250  0.2478  0.5006
  357TIP3   OH222561   1.299   6.410   1.752 -0.0442  0.2312  0.0900
  357TIP3    H122562   1.313   6.502   1.730 -1.7078 -0.0098 -2.1307
  357TIP3    H222563   1.213   6.408   1.795 -0.6824 -0.4557 -1.1785
  358TIP3   OH222564   6.207   5.577  12.369  0.1630 -0.0758 -0.4297
  358TIP3    H122565   6.279   5.587  12.431  0.8271 -3.4895 -0.5431
  358TIP3    H222566   6.142   5.641  12.397  1.5360  0.2335  2.2195
  359TIP3   OH222567   3.791   5.694   1.340  0.0716  0.2161 -0.4199
  359TIP3    H122568   3.866   5.641   1.366  0.4323  0.2326 -1.3760
  359TIP3    H222569   3.792   5.691   1.244 -0.7030  0.8382 -0.4561
  360TIP3   OH222570   2.201   5.287   5.785 -1.0724 -0.1079  0.7686
  360TIP3    H122571   2.264   5.231   5.831 -0.3818 -0.4278 -0.5590
  360TIP3    H222572   2.140   5.315   5.854 -0.6011 -1.3418  1.7160
  361TIP3   OH222573   1.001   0.727   0.547 -0.3515 -0.3054 -0.6329
  361TIP3    H122574   1.023   0.768   0.631  1.7716 -1.0314 -0.7941
  361TIP3    H222575   0.998   0.800   0.485 -1.3410  0.1610 -0.0473
  362TIP3   OH222576   2.477   1.321   4.731  0.1377  0.6385 -0.6002
  362TIP3    H122577   2.486   1.338   4.637 -0.6885  2.4270 -0.3859
  362TIP3    H222578   2.399   1.268   4.739  1.8891 -2.1022 -1.1647
  363TIP3   OH222579   3.303   5.175  17.120  0.0850  0.5948  0.3185
  363TIP3    H122580   3.263   5.202  17.037  0.5232  0.3869  0.0356
  363TIP3    H222581   3.393   5.209  17.115  0.4931 -0.4837  0.1682
  364TIP3   OH222582   4.958   5.178  16.550 -0.1546  0.3849  0.1659
  364TIP3    H122583   4.978   5.256  16.498  0.6507  0.2506  0.2678
  364TIP3    H222584   5.034   5.166  16.606 -0.3831 -0.3318  0.3307
  365TIP3   OH222585   5.427   2.679   4.171  0.0254  1.1887 -0.1389
  365TIP3    H122586   5.447   2.647   4.083  1.5700 -0.1574  0.6706
  365TIP3    H222587   5.498   2.645   4.226 -0.9632  1.9240  1.6514
  366TIP3   OH222588   4.356   3.820  14.191 -0.4984 -0.0345 -0.0019
  366TIP3    H122589   4.441   3.830  14.233 -1.0592 -0.5386  1.2866
  366TIP3    H222590   4.296   3.874  14.243 -1.4253 -1.5509  0.5398
  367TIP3   OH222591   4.944   0.775   3.534 -0.4453 -0.3940 -0.0171
  367TIP3    H122592   4.947   0.869   3.553 -1.0291 -0.6308  1.2992
  367TIP3    H222593   4.852   0.756   3.520 -0.1714 -0.5036 -1.7751
  368TIP3   OH222594   3.935   5.592  12.212  0.0152  0.0883 -0.0655
  368TIP3    H122595   3.847   5.611  12.179  0.7748  0.3345 -1.9838
  368TIP3    H222596   3.965   5.519  12.159  0.2943 -1.1994  1.8011
  369TIP3   OH222597   6.541   0.361   6.905 -0.3718 -0.4396  0.1222
  369TIP3    H122598   6.521   0.287   6.962 -1.6449 -0.9572 -0.9466
  369TIP3    H222599   6.455   0.390   6.873  0.2518  0.3187 -0.9059
  370TIP3   OH222600   0.246   1.268   2.488 -0.6295 -0.2708  0.0390
  370TIP3    H122601   0.258   1.246   2.580  0.2678  1.6272  0.3827
  370TIP3    H222602   0.323   1.231   2.444  0.5111  1.4963  0.5130
  371TIP3   OH222603   0.761   0.015   4.771  0.4014 -0.2989 -0.1044
  371TIP3    H122604   0.679   0.020   4.821  0.5241 -2.4499  0.3221
  371TIP3    H222605   0.769  -0.077   4.747  2.5374 -0.0410 -0.4304
  372TIP3   OH222606   0.588   4.248   6.369 -0.5719 -0.0344 -0.6817
  372TIP3    H122607   0.648   4.233   6.296  0.2787  0.2534 -0.0511
  372TIP3    H222608   0.551   4.334   6.353 -0.2906  0.0822 -0.7137
  373TIP3   OH222609   0.617   2.065   1.957  0.4816  0.8293 -0.0496
  373TIP3    H122610   0.652   2.082   1.870 -0.8845  3.5413 -0.1302
  373TIP3    H222611   0.687   2.090   2.017  0.9297  0.2462 -0.3257
  374TIP3   OH222612   3.069   2.040   4.650 -0.0313 -0.4269  0.5759
  374TIP3    H122613   3.140   2.067   4.709  0.1253 -0.1520  0.2663
  374TIP3    H222614   3.020   2.121   4.634  0.0334 -0.4644  0.1881
  375TIP3   OH222615   1.623   5.293   4.711  0.2373  0.7266 -1.1185
  375TIP3    H122616   1.619   5.228   4.640 -1.3815 -0.3084 -0.1148
  375TIP3    H222617   1.709   5.279   4.751  0.0752 -0.5042 -1.1804
  376TIP3   OH222618   2.296   1.443  14.808 -0.2002  0.1376  0.6037
  376TIP3    H122619   2.355   1.417  14.738 -1.1676  0.5612 -0.3745
  376TIP3    H222620   2.343   1.512  14.855  0.8255 -0.7800  0.9366
  377TIP3   OH222621   2.814   6.501   3.746  0.0930 -0.2851 -0.3667
  377TIP3    H122622   2.886   6.563   3.735 -0.8749  0.5247 -2.3385
  377TIP3    H222623   2.811   6.486   3.840  2.4334  0.1349 -0.1724
  378TIP3   OH222624   1.361   5.373   1.309  0.1437  0.1432  0.0016
  378TIP3    H122625   1.284   5.316   1.311  0.8776 -0.8252  1.1632
  378TIP3    H222626   1.434   5.315   1.330  1.0388  1.3168  0.1536
  379TIP3   OH222627   1.816   0.799   6.248  0.3617 -0.4709 -0.1432
  379TIP3    H122628   1.760   0.830   6.320  0.2801  0.3227 -0.5416
  379TIP3    H222629   1.756   0.787   6.174  0.7140  0.3757 -0.5695
  380TIP3   OH222630   2.872   2.105   0.138 -0.3794 -0.2669 -0.3136
  380TIP3    H122631   2.857   2.059   0.056 -0.5990  1.4383 -1.2580
  380TIP3    H222632   2.783   2.122   0.172 -0.2902 -1.0129  0.3262
  381TIP3   OH222633   4.891   4.045  11.843 -0.0964  0.2524 -0.1572
  381TIP3    H122634   4.865   3.954  11.856 -0.5046  0.5165  0.9538
  381TIP3    H222635   4.985   4.040  11.822 -0.8267 -0.6558 -3.5662
  382TIP3   OH222636   5.296   3.624  13.656  0.0242 -0.2545  0.1989
  382TIP3    H122637   5.306   3.570  13.734  0.6736 -0.1430  0.1914
  382TIP3    H222638   5.240   3.697  13.684 -1.4515 -1.2911  0.0256
  383TIP3   OH222639   0.228   2.401  11.812  0.0833  0.0628 -1.0510
  383TIP3    H122640   0.220   2.314  11.773  0.1457  0.3340 -1.6692
  383TIP3    H222641   0.277   2.386  11.893  1.6185 -0.2501 -2.0049
  384TIP3   OH222642   3.362   2.789  17.009  0.2992  0.3857  0.1391
  384TIP3    H122643   3.455   2.774  16.996  0.4180  1.2490 -0.0535
  384TIP3    H222644   3.346   2.877  16.972 -0.2917  0.8613  1.4924
  385TIP3   OH222645   2.739   5.861  14.600  0.1294 -0.0945 -0.1796
  385TIP3    H122646   2.689   5.786  14.632  0.4558  0.4155  1.5950
  385TIP3    H222647   2.817   5.822  14.559  0.6412 -0.7276  1.3526
  386TIP3   OH222648   4.469   0.377   2.507 -0.5625 -0.0292 -0.4275
  386TIP3    H122649   4.522   0.304   2.474 -0.6128  0.1341 -0.8605
  386TIP3    H222650   4.429   0.415   2.429  1.5675  2.1516 -0.5309
  387TIP3   OH222651   0.640   5.475   4.391 -0.3904 -0.1210  0.5974
  387TIP3    H122652   0.613   5.545   4.451 -0.4847 -1.5645  2.2480
  387TIP3    H222653   0.570   5.472   4.325  0.3526  2.3415 -0.3533
  388TIP3   OH222654   4.836   6.273  12.464  0.1496  0.6293  1.0434
  388TIP3    H122655   4.908   6.251  12.404 -0.5181  0.6305  0.2331
  388TIP3    H222656   4.764   6.217  12.437 -1.6007  3.7711 -1.0895
  389TIP3   OH222657   6.184   4.727  12.341  0.1891 -0.5187 -0.0701
  389TIP3    H122658   6.195   4.742  12.435 -0.1248 -1.2315  0.0769
  389TIP3    H222659   6.089   4.729  12.327  0.1963 -1.3637 -0.2241
  390TIP3   OH222660   0.490   2.948  14.053  0.3030 -0.0402 -0.1731
  390TIP3    H122661   0.547   2.954  13.975  0.5892  1.9385  0.1760
  390TIP3    H222662   0.541   2.988  14.123 -0.2907 -1.0832  0.8702
  391TIP3   OH222663   6.078   5.119   3.988 -1.2009  0.2486 -0.5559
  391TIP3    H122664   6.082   5.105   4.083 -1.5178  1.2800 -0.3799
  391TIP3    H222665   6.054   5.033   3.952  1.0155 -0.6739  0.1090
  392TIP3   OH222666   5.504   6.769  14.088 -0.3228 -0.4579  0.1109
  392TIP3    H122667   5.457   6.846  14.055 -0.0819 -0.1148  0.5469
  392TIP3    H222668   5.586   6.769  14.039  0.1463  0.2017  0.8794
  393TIP3   OH222669   1.313   6.026   3.161 -0.5853  0.2569 -0.6137
  393TIP3    H122670   1.344   5.956   3.219  2.7484  0.2588 -2.2795
  393TIP3    H222671   1.325   6.106   3.212  2.6335  0.2898 -1.3503
  394TIP3   OH222672   6.080   1.432  16.020 -0.5305 -0.6536 -0.1568
  394TIP3    H122673   6.173   1.447  16.035 -0.8620  1.4999 -0.1207
  394TIP3    H222674   6.043   1.416  16.107 -0.4634  0.1261  0.0171
  395TIP3   OH222675   3.457   3.019  12.799 -0.2130  0.2133 -0.4034
  395TIP3    H122676   3.426   2.929  12.806  1.7835 -0.5161 -0.6101
  395TIP3    H222677   3.438   3.059  12.884  1.1558 -1.1559  0.5716
  396TIP3   OH222678   1.709   3.783   4.544 -0.1448  0.5350  0.6757
  396TIP3    H122679   1.662   3.712   4.499  2.0522  0.1261 -1.0403
  396TIP3    H222680   1.792   3.743   4.570  1.3894  2.6380 -0.8665
  397TIP3   OH222681   6.122   2.631   2.944  0.3026  0.6165 -0.3879
  397TIP3    H122682   6.115   2.536   2.960 -0.6609  0.7882  0.2163
  397TIP3    H222683   6.056   2.650   2.878  0.0428  0.9883 -0.0200
  398TIP3   OH222684   3.686   0.001   5.046 -0.0697  0.4193 -0.1210
  398TIP3    H122685   3.759  -0.053   5.075 -1.2143  0.0336  2.1865
  398TIP3    H222686   3.659  -0.038   4.963 -1.2905 -3.0904  1.7841
  399TIP3   OH222687   1.544   4.276   5.716 -0.5028  0.2295  0.4046
  399TIP3    H122688   1.588   4.249   5.797  0.4046  1.3966  0.3136
  399TIP3    H222689   1.548   4.199   5.659 -0.3587 -0.3117  1.1335
  400TIP3   OH222690   4.616   3.160  13.729 -0.0823 -0.0631  0.6594
  400TIP3    H122691   4.652   3.165  13.817 -1.3769  0.2479  1.1815
  400TIP3    H222692   4.685   3.196  13.673  1.2307 -1.4120  1.3914
  401TIP3   OH222693   5.438   2.134   2.096  0.2217 -0.4164  0.5114
  401TIP3    H122694   5.453   2.157   2.188 -1.3058 -2.1315  1.2395
  401TIP3    H222695   5.523   2.103   2.065  0.6501 -0.2570  1.4951
  402TIP3   OH222696   0.400   3.902   6.199  0.0264  0.2824  0.1086
  402TIP3    H122697   0.394   3.814   6.161 -2.6159  0.7580 -0.6735
  402TIP3    H222698   0.349   3.897   6.280 -2.2877  1.6982 -1.1987
  403TIP3   OH222699   2.569   0.496   5.739 -0.4433  0.4197 -0.1842
  403TIP3    H122700   2.600   0.508   5.829 -0.6893 -1.5946  0.1780
  403TIP3    H222701   2.493   0.553   5.732 -0.0352  1.0800  0.6804
  404TIP3   OH222702   2.938   3.128  10.710 -0.1792 -0.0027  0.3167
  404TIP3    H122703   2.896   3.098  10.791  0.4792 -2.9818 -0.3671
  404TIP3    H222704   2.867   3.134  10.647 -0.4815  0.9651  0.7374
  405TIP3   OH222705   1.149   4.605  16.050  0.2988 -0.5110 -0.1911
  405TIP3    H122706   1.176   4.563  15.969  0.4308  1.0193 -0.9515
  405TIP3    H222707   1.088   4.542  16.090  1.1401 -1.7852 -0.8798
  406TIP3   OH222708   3.593   1.117   3.575  0.5818  0.0915  0.2053
  406TIP3    H122709   3.648   1.154   3.506  3.9354 -1.1125  2.0784
  406TIP3    H222710   3.548   1.044   3.532 -0.1550  1.5440 -1.5677
  407TIP3   OH222711   5.095   2.946  12.144  0.2488 -0.3620 -0.5451
  407TIP3    H122712   5.034   3.001  12.095  0.4614 -0.6443 -1.1293
  407TIP3    H222713   5.098   2.864  12.095 -1.2471 -1.4734  1.1631
  408TIP3   OH222714   6.365   6.661   6.545  0.0083 -0.0202 -0.2144
  408TIP3    H122715   6.345   6.740   6.494 -1.0521 -0.6240 -0.7573
  408TIP3    H222716   6.280   6.634   6.580  0.3220 -1.0925 -0.2947
  409TIP3   OH222717   5.237   5.543  12.590  0.7334  0.2304 -0.2931
  409TIP3    H122718   5.264   5.523  12.500  0.3412 -0.6906 -0.2102
  409TIP3    H222719   5.159   5.597  12.580  0.8831  0.4121 -0.5018
  410TIP3   OH222720   1.777   0.692   2.460 -0.2960 -0.3950 -0.0756
  410TIP3    H122721   1.831   0.623   2.498  0.1137 -0.4078 -0.6773
  410TIP3    H222722   1.780   0.764   2.523 -0.4056 -0.7809  0.3667
  411TIP3   OH222723   3.659   3.158   3.635 -0.1871 -0.0376 -0.4561
  411TIP3    H122724   3.610   3.197   3.562  0.3819  0.2765 -0.6785
  411TIP3    H222725   3.694   3.077   3.598 -1.3272 -0.7447 -0.0098
  412TIP3   OH222726   0.533   6.383  12.204 -0.2888 -0.2748  0.1396
  412TIP3    H122727   0.561   6.409  12.292 -1.0228 -0.3078  0.3876
  412TIP3    H222728   0.442   6.354  12.216 -0.6946  0.5750 -0.7785
  413TIP3   OH222729   1.615   5.165   3.227  0.2317 -0.2298 -0.1045
  413TIP3    H122730   1.625   5.157   3.322 -0.4651 -0.8569 -0.0832
  413TIP3    H222731   1.699   5.136   3.192  0.7182  0.6218  0.3459
  414TIP3   OH222732   3.755   6.407   4.604 -0.2388  1.0738  0.4368
  414TIP3    H122733   3.696   6.333   4.620 -0.7071  1.2686 -0.3477
  414TIP3    H222734   3.824   6.397   4.670 -0.7249  0.3946  0.8547
  415TIP3   OH222735   2.141   6.195   4.441 -0.1124 -0.0982  0.0553
  415TIP3    H122736   2.099   6.164   4.521  0.8358  1.2274  1.0877
  415TIP3    H222737   2.232   6.167   4.449  0.3730  1.4899  0.2376
  416TIP3   OH222738   2.371   5.464  12.414 -0.0023 -0.2566 -0.5903
  416TIP3    H122739   2.382   5.387  12.469  1.4739 -0.5093 -1.2217
  416TIP3    H222740   2.436   5.526  12.444 -1.4162  0.9017  0.1405
  417TIP3   OH222741   0.262   2.744  16.875  0.4051 -0.2044 -0.4950
  417TIP3    H122742   0.167   2.755  16.879  0.2097 -1.6500 -0.9705
  417TIP3    H222743   0.287   2.724  16.965  0.2105 -0.1432 -0.4248
  418TIP3   OH222744   1.406   5.416  16.128  0.0973 -0.2112 -0.5192
  418TIP3    H122745   1.412   5.482  16.197 -0.1231 -0.1240 -0.5795
  418TIP3    H222746   1.327   5.365  16.151 -0.6872  0.5994 -1.3767
  419TIP3   OH222747   0.374   4.001  13.883  0.3105 -0.4694 -0.0871
  419TIP3    H122748   0.396   3.961  13.799  0.3648 -0.9504  0.1581
  419TIP3    H222749   0.437   4.072  13.893  0.6773 -0.7821 -0.1758
  420TIP3   OH222750   1.654   6.305  15.875 -0.2193 -0.5586  0.0463
  420TIP3    H122751   1.677   6.299  15.782 -2.8490 -0.2851 -0.6512
  420TIP3    H222752   1.566   6.269  15.881  0.3362 -1.6197  2.6395
  421TIP3   OH222753   6.390   6.187  16.549  0.1137 -0.2201  0.1639
  421TIP3    H122754   6.335   6.260  16.523  1.0274  0.4312  0.0307
  421TIP3    H222755   6.346   6.149  16.626 -0.4029  0.4122  0.1814
  422TIP3   OH222756   3.434   1.872  14.561  0.1838  0.3338  0.1330
  422TIP3    H122757   3.410   1.923  14.484 -0.1909 -1.1035 -0.7160
  422TIP3    H222758   3.487   1.800  14.527  0.3269 -0.1010  1.2588
  423TIP3   OH222759   4.454   3.429  14.513 -0.2195  0.2508  0.0478
  423TIP3    H122760   4.361   3.410  14.520 -0.0250 -1.3173 -1.2182
  423TIP3    H222761   4.467   3.450  14.420  0.7438  0.0720  0.1360
  424TIP3   OH222762   4.713   3.233  15.268  0.4120 -0.2292 -0.2926
  424TIP3    H122763   4.694   3.243  15.361  0.8037  1.6620 -0.4113
  424TIP3    H222764   4.658   3.297  15.225  3.4593  2.0171 -1.0006
  425TIP3   OH222765   5.425   5.034  12.061 -0.0368 -0.3162  0.3754
  425TIP3    H122766   5.512   5.060  12.030  0.3277  1.7394  2.8721
  425TIP3    H222767   5.442   4.977  12.135 -0.8406 -1.0289  0.0155
  426TIP3   OH222768   0.265   4.684  13.990  0.6136  0.3124 -0.1363
  426TIP3    H122769   0.357   4.698  14.014  0.0858  1.9595  1.0072
  426TIP3    H222770   0.256   4.725  13.905  0.0227  3.7357  1.4884
  427TIP3   OH222771   6.798   2.459   5.198 -0.3003  0.6141 -0.4080
  427TIP3    H122772   6.848   2.407   5.135 -0.1766  0.5788 -0.2810
  427TIP3    H222773   6.779   2.398   5.269 -3.3654 -0.2820 -1.9434
  428TIP3   OH222774   4.888   0.105   1.625  0.3600 -0.0072  0.9556
  428TIP3    H122775   4.814   0.161   1.646  0.8856  0.8840  0.4350
  428TIP3    H222776   4.944   0.109   1.702 -0.1286 -0.6802  1.3488
  429TIP3   OH222777   0.060   6.361   2.115 -0.4562  0.2907 -0.8844
  429TIP3    H122778   0.095   6.346   2.028  0.4355 -0.0756 -0.4665
  429TIP3    H222779   0.050   6.274   2.153 -1.1294  0.4292 -0.7258
  430TIP3   OH222780   1.577   6.313   2.746  0.0989  0.9310  0.2410
  430TIP3    H122781   1.572   6.377   2.674 -0.3262  0.1040 -0.4719
  430TIP3    H222782   1.628   6.241   2.710 -1.3635 -0.1396  0.2512
  431TIP3   OH222783   1.222   3.336  10.801 -0.2221  0.2579 -0.3336
  431TIP3    H122784   1.226   3.261  10.741 -1.2120 -0.9980  1.1400
  431TIP3    H222785   1.138   3.378  10.781 -0.5509 -0.1594  0.1506
  432TIP3   OH222786   4.428   6.301   1.974 -0.9522 -0.0630  0.6571
  432TIP3    H122787   4.506   6.355   1.960 -0.6375 -0.8786 -0.6971
  432TIP3    H222788   4.364   6.334   1.911 -1.0614 -0.6761  0.4453
  433TIP3   OH222789   3.000   2.679  13.417  0.1998  0.3693  0.5214
  433TIP3    H122790   3.035   2.765  13.440  1.5418 -0.6588  2.4519
  433TIP3    H222791   2.927   2.665  13.476 -1.4465  1.0947 -1.2901
  434TIP3   OH222792   4.493   3.415  15.730 -0.1630 -0.3704 -0.3164
  434TIP3    H122793   4.578   3.387  15.762 -0.2108 -0.8427 -0.6004
  434TIP3    H222794   4.439   3.423  15.809  0.7296  2.0107  0.0955
  435TIP3   OH222795   0.922   0.750   5.036 -0.3456 -0.0222  0.7306
  435TIP3    H122796   0.890   0.663   5.009 -0.2147 -0.2739  1.3866
  435TIP3    H222797   0.847   0.789   5.081 -1.3372  1.3014 -1.9593
  436TIP3   OH222798   1.606   5.996   0.764  0.1338 -0.0852  0.0962
  436TIP3    H122799   1.602   5.940   0.686  0.8048 -1.0393  0.7327
  436TIP3    H222800   1.693   6.035   0.760  0.2600 -0.3200  0.4805
  437TIP3   OH222801   1.416   1.316  12.530  0.0580  0.3561 -0.1324
  437TIP3    H122802   1.419   1.378  12.603 -1.0067 -1.1193  1.1746
  437TIP3    H222803   1.341   1.345  12.477 -0.2930  0.3126  0.3424
  438TIP3   OH222804   0.250   3.873  11.998 -0.8537  0.1887 -0.4097
  438TIP3    H122805   0.251   3.793  12.052  0.2884 -0.1333 -0.8984
  438TIP3    H222806   0.197   3.850  11.922  0.5372 -0.5040 -1.1619
  439TIP3   OH222807   3.504   0.351  11.257  0.2659  0.3385 -0.1185
  439TIP3    H122808   3.515   0.445  11.271  1.8701  0.2757 -0.8741
  439TIP3    H222809   3.587   0.313  11.284  0.0774 -0.7189 -0.9988
  440TIP3   OH222810   4.100   4.646  12.293 -0.3748 -0.1274 -0.2333
  440TIP3    H122811   4.151   4.727  12.294 -1.5287  0.7332 -3.4913
  440TIP3    H222812   4.028   4.662  12.353 -1.3833  1.8487 -1.9132
  441TIP3   OH222813   4.073   0.800   5.762 -0.3796 -0.1541  0.2704
  441TIP3    H122814   4.095   0.816   5.853  1.0298  1.1226 -0.2777
  441TIP3    H222815   4.076   0.886   5.721  0.6238 -0.9165 -1.3139
  442TIP3   OH222816   1.788   3.151   4.464  0.8066  0.1460 -0.5187
  442TIP3    H122817   1.778   3.235   4.509 -0.5369  0.3442 -1.1714
  442TIP3    H222818   1.880   3.127   4.478  1.0583  1.4520  0.1301
  443TIP3   OH222819   0.036   1.184   2.873  1.0011  0.5599  0.4084
  443TIP3    H122820  -0.008   1.120   2.929  3.3025 -0.4148  1.1697
  443TIP3    H222821   0.043   1.263   2.927  1.0685  0.3950  0.6421
  444TIP3   OH222822   5.177   2.442   4.037  0.0486  0.1987  0.2306
  444TIP3    H122823   5.150   2.513   4.095  0.7942  0.4999  0.2151
  444TIP3    H222824   5.142   2.465   3.952 -3.2704 -1.5078  1.0372
  445TIP3   OH222825   6.532   3.947   2.794  0.5918 -0.0247 -0.1006
  445TIP3    H122826   6.455   3.942   2.737  0.2415 -0.1028  0.3872
  445TIP3    H222827   6.602   3.909   2.741 -0.0200 -1.3386  0.0164
  446TIP3   OH222828   4.466   5.310  12.711 -0.2712  0.0023 -0.6130
  446TIP3    H122829   4.558   5.315  12.737 -0.2636 -1.6899 -0.2837
  446TIP3    H222830   4.439   5.402  12.699  1.6826  0.4708 -1.5417
  447TIP3   OH222831   1.923   5.587   5.548 -0.3876 -0.1852  0.1968
  447TIP3    H122832   1.970   5.670   5.554  1.0584 -0.9542 -0.2514
  447TIP3    H222833   1.931   5.549   5.635 -1.2921  0.2738  0.4802
  448TIP3   OH222834   3.925   0.500   0.884  0.5472  0.2887  0.0233
  448TIP3    H122835   3.882   0.504   0.799  0.1937 -0.9667  0.1364
  448TIP3    H222836   3.900   0.582   0.927 -1.1600 -0.1068 -0.1858
  449TIP3   OH222837   5.623   0.604   6.157  0.2037 -0.1479 -0.2566
  449TIP3    H122838   5.571   0.628   6.234  0.4530 -0.7967  0.1257
  449TIP3    H222839   5.630   0.508   6.162  0.2684 -0.1820 -1.0593
  450TIP3   OH222840   2.604   3.503   6.172  0.4898  0.1940 -0.0798
  450TIP3    H122841   2.530   3.504   6.233  0.2960  0.5401 -0.3205
  450TIP3    H222842   2.617   3.411   6.151  0.1677  0.1277  0.0111
  451TIP3   OH222843   0.923   2.029   1.696 -0.2062  0.8444  0.2612
  451TIP3    H122844   0.974   2.015   1.776 -0.6904  0.9884  0.5970
  451TIP3    H222845   0.978   2.085   1.641  1.5492 -1.8677 -0.8687
  452TIP3   OH222846   5.460   3.486  10.119  0.4574  0.1497 -0.2860
  452TIP3    H122847   5.373   3.522  10.133 -0.3168 -1.9620  0.5315
  452TIP3    H222848   5.520   3.556  10.146 -0.9927  0.8475  1.1792
  453TIP3   OH222849   3.239   1.706  15.686  0.9972 -0.0807 -0.0491
  453TIP3    H122850   3.303   1.640  15.714  0.3405 -0.5216  0.4343
  453TIP3    H222851   3.221   1.756  15.766  1.3468  0.5621 -0.3690
  454TIP3   OH222852   2.183   4.621  14.852  0.4960  0.0495 -0.2475
  454TIP3    H122853   2.231   4.565  14.791  0.2566 -0.1541 -0.2475
  454TIP3    H222854   2.144   4.689  14.796 -0.3635 -0.5805 -0.4155
  455TIP3   OH222855   3.958   5.789  12.422  0.8783 -0.2798  0.0175
  455TIP3    H122856   3.950   5.729  12.348  0.4669 -3.2900  2.4152
  455TIP3    H222857   3.877   5.841  12.419  0.0011 -1.6448 -0.6061
  456TIP3   OH222858   4.097   4.883   5.153 -0.5615 -0.2338  0.5115
  456TIP3    H122859   4.078   4.812   5.215  1.1127 -2.3367 -1.2757
  456TIP3    H222860   4.034   4.871   5.082 -0.8663  0.6253  0.6349
  457TIP3   OH222861   1.917   4.529   1.585 -0.3526  0.2628  0.2468
  457TIP3    H122862   1.893   4.490   1.669 -1.3481 -0.3191 -0.2942
  457TIP3    H222863   1.934   4.621   1.605  0.5245 -0.1113  1.2752
  458TIP3   OH222864   0.742   2.244  10.949 -0.3071 -0.0367 -0.2762
  458TIP3    H122865   0.653   2.276  10.965  0.3629  1.3778  0.7114
  458TIP3    H222866   0.739   2.208  10.860 -1.9417 -0.2855 -0.1304
  459TIP3   OH222867   6.123   3.547  15.974 -0.5121 -0.0967 -0.4843
  459TIP3    H122868   6.103   3.496  16.052 -0.3307 -0.4050 -0.6382
  459TIP3    H222869   6.082   3.499  15.902  1.3262 -1.0817 -0.8849
  460TIP3   OH222870   3.869   3.969  15.786 -0.4307  0.0258  0.0019
  460TIP3    H122871   3.814   3.892  15.799 -1.2394  0.8804  1.6669
  460TIP3    H222872   3.809   4.038  15.760  0.0042  0.6950  0.7813
  461TIP3   OH222873   4.406   6.709  11.599  0.1687 -0.2946  0.9509
  461TIP3    H122874   4.474   6.770  11.570 -1.2702  0.9033  0.1016
  461TIP3    H222875   4.399   6.724  11.693  0.9566 -0.3145  1.0207
  462TIP3   OH222876   2.334   2.463   2.870  1.0469  0.1969 -0.4314
  462TIP3    H122877   2.263   2.488   2.929  1.0384  2.1634 -1.2260
  462TIP3    H222878   2.308   2.497   2.785  2.1495 -0.5618 -1.0913
  463TIP3   OH222879   3.823   0.960   5.977 -0.5371 -0.3437  0.1692
  463TIP3    H122880   3.828   1.025   5.908  2.6084 -0.1462  0.5051
  463TIP3    H222881   3.824   1.011   6.058 -0.1916 -0.7076  0.3985
  464TIP3   OH222882   6.644   5.993  12.543  0.4363  0.2471 -0.2034
  464TIP3    H122883   6.549   5.978  12.543  0.5022 -0.2798  0.9381
  464TIP3    H222884   6.681   5.911  12.509  0.4817  0.4835 -0.7265
  465TIP3   OH222885   2.454   5.627   4.590 -0.6305 -0.4885 -0.1476
  465TIP3    H122886   2.485   5.551   4.542  1.6554  0.8191 -0.8531
  465TIP3    H222887   2.457   5.699   4.526  0.1337  0.7836  1.2666
  466TIP3   OH222888   5.670   4.994  11.567  0.0979 -0.4517 -0.1091
  466TIP3    H122889   5.620   5.072  11.592 -2.3541 -1.6391 -1.0955
  466TIP3    H222890   5.651   4.930  11.636  1.6396 -0.3567  0.4019
  467TIP3   OH222891   0.207   5.728  12.121  0.3345  0.2791  0.1789
  467TIP3    H122892   0.146   5.801  12.114 -2.7859 -2.0656  1.5861
  467TIP3    H222893   0.213   5.693  12.033  0.0627  0.8739 -0.0785
  468TIP3   OH222894   1.156   6.086  16.150  0.7494 -0.0632  0.0269
  468TIP3    H122895   1.120   6.039  16.225 -0.6197 -0.4886 -0.8873
  468TIP3    H222896   1.247   6.057  16.145 -0.2583 -3.2308 -0.9588
  469TIP3   OH222897   6.701   1.035  15.159 -0.1353  0.3770 -0.3037
  469TIP3    H122898   6.719   1.027  15.066 -0.5539  0.1886 -0.3668
  469TIP3    H222899   6.700   1.130  15.175 -0.1073  0.4101 -0.4969
  470TIP3   OH222900   3.504   4.454  15.856 -0.5451  0.1143 -0.4367
  470TIP3    H122901   3.459   4.372  15.835  0.6106 -0.5682 -0.3104
  470TIP3    H222902   3.523   4.448  15.950 -1.1502  0.8847 -0.2558
  471TIP3   OH222903   6.110   4.848   0.385  0.1914 -0.0262  0.0098
  471TIP3    H122904   6.162   4.768   0.378  2.0710  1.2103 -0.4342
  471TIP3    H222905   6.093   4.857   0.479  1.3401 -0.0929  0.2269
  472TIP3   OH222906   3.984   6.353  11.036  0.4402  0.0400  0.0658
  472TIP3    H122907   3.938   6.362  11.119  0.6529  0.6310  0.1197
  472TIP3    H222908   3.931   6.291  10.986 -0.3584  0.6287  0.1685
  473TIP3   OH222909   0.032   6.503   2.465  0.4121 -0.3530 -0.2797
  473TIP3    H122910  -0.054   6.478   2.432 -0.0621  0.4157  0.3621
  473TIP3    H222911   0.069   6.422   2.500 -0.4891 -0.4606  0.4170
  474TIP3   OH222912   4.047   0.995   5.056  0.0872 -0.9178 -0.0444
  474TIP3    H122913   3.953   0.979   5.069 -0.1732  0.9674  0.5367
  474TIP3    H222914   4.052   1.035   4.969  0.1515  0.5838  0.6405
  475TIP3   OH222915   5.559   4.160   0.204  0.2620  0.2151  0.0616
  475TIP3    H122916   5.560   4.210   0.285 -0.2866  1.9725 -0.9798
  475TIP3    H222917   5.616   4.209   0.145  0.2558 -0.7603 -0.7583
  476TIP3   OH222918   2.165   6.320  12.798 -0.3128 -0.4742 -0.0710
  476TIP3    H122919   2.084   6.319  12.850  0.1206  0.6167  0.6418
  476TIP3    H222920   2.231   6.282  12.857 -0.1203 -0.5807 -0.3560
  477TIP3   OH222921   5.412   3.554   3.922 -0.1715  0.6028  0.0213
  477TIP3    H122922   5.318   3.543   3.936  0.2119 -0.1196  2.1415
  477TIP3    H222923   5.430   3.644   3.949 -0.0092  0.2740  1.0221
  478TIP3   OH222924   1.890   4.803  10.665 -0.5199 -0.3223 -0.2621
  478TIP3    H122925   1.946   4.813  10.589  0.4475  2.4028  0.7280
  478TIP3    H222926   1.931   4.733  10.717  0.5077 -0.1119 -0.7878
  479TIP3   OH222927   0.815   3.528  17.180  0.4210 -0.4412 -0.0850
  479TIP3    H122928   0.721   3.547  17.179  0.4026 -0.5440 -0.3495
  479TIP3    H222929   0.833   3.503  17.270  0.0028 -1.3847 -0.2600
  480TIP3   OH222930   2.306   0.110   2.059 -0.1093  0.4232  0.0449
  480TIP3    H122931   2.296   0.015   2.068 -0.3361  0.2154 -2.0171
  480TIP3    H222932   2.218   0.142   2.041  0.1608  0.8453 -0.5632
  481TIP3   OH222933   2.261   0.574  13.932  0.1461  0.0994  0.3417
  481TIP3    H122934   2.197   0.603  13.866 -1.2749  0.3513  1.8135
  481TIP3    H222935   2.276   0.651  13.986  0.9106 -0.2627  0.6517
  482TIP3   OH222936   1.521   2.131   2.652  0.7681 -0.2033  0.2087
  482TIP3    H122937   1.509   2.172   2.738 -0.7348  0.8956 -0.5083
  482TIP3    H222938   1.533   2.205   2.592 -1.3067 -0.8397 -1.0071
  483TIP3   OH222939   1.150   6.149   1.836 -0.3020  0.1639  0.0079
  483TIP3    H122940   1.181   6.121   1.922  0.7929 -0.1458 -0.4782
  483TIP3    H222941   1.230   6.170   1.788 -0.8738 -0.3975 -1.1922
  484TIP3   OH222942   2.726   2.411  14.414  0.8720  0.3366 -0.0360
  484TIP3    H122943   2.686   2.373  14.335  0.1164 -1.2632  1.1000
  484TIP3    H222944   2.804   2.358  14.430  1.7911  1.5227 -0.4667
  485TIP3   OH222945   6.337   2.131   6.059 -0.1226  0.7018 -0.1042
  485TIP3    H122946   6.369   2.161   6.144  2.9488 -0.5177 -0.7376
  485TIP3    H222947   6.316   2.039   6.072 -0.6980  0.7942 -0.3805
  486TIP3   OH222948   2.062   6.043   0.928 -0.1082 -0.2467 -0.0238
  486TIP3    H122949   2.060   5.984   1.002  0.0723 -0.9868 -0.5979
  486TIP3    H222950   2.116   5.998   0.863  0.7905  0.9447 -0.1329
  487TIP3   OH222951   0.879   2.811   3.603 -0.4937 -0.0731 -0.2529
  487TIP3    H122952   0.838   2.897   3.596 -0.3007 -0.1406 -2.9030
  487TIP3    H222953   0.953   2.815   3.542  2.1548 -0.6947  2.7941
  488TIP3   OH222954   3.448   1.081   0.046 -0.2662 -0.7377 -0.5178
  488TIP3    H122955   3.363   1.109   0.012 -1.0600 -2.9969 -0.4869
  488TIP3    H222956   3.429   0.998   0.090  1.7667 -0.6957  0.4650
  489TIP3   OH222957   3.347   1.249  16.997  0.0337  0.2297  0.2629
  489TIP3    H122958   3.355   1.332  16.948 -1.3429 -0.0244 -0.4205
  489TIP3    H222959   3.382   1.269  17.083  0.4547  1.3141 -0.1450
  490TIP3   OH222960   1.574   5.885  13.796 -0.1451  0.3496 -0.1831
  490TIP3    H122961   1.535   5.967  13.763 -1.8109 -0.6658 -0.7923
  490TIP3    H222962   1.527   5.868  13.877  2.0768  1.3996  1.3719
  491TIP3   OH222963   0.571   2.793  15.385  0.1802 -0.3905 -0.4017
  491TIP3    H122964   0.498   2.814  15.326 -0.2674 -1.7273 -0.3300
  491TIP3    H222965   0.562   2.857  15.456 -0.3201  0.0968 -0.8883
  492TIP3   OH222966   5.021   4.303  16.248  0.3930 -0.3270 -0.2290
  492TIP3    H122967   5.072   4.323  16.327  1.2131 -2.1231 -0.2765
  492TIP3    H222968   5.083   4.315  16.176  0.1897 -0.5979 -0.4476
  493TIP3   OH222969   4.628   4.189   0.269  0.5908 -0.1530 -0.3454
  493TIP3    H122970   4.592   4.149   0.189 -0.1789  0.2793 -0.2170
  493TIP3    H222971   4.709   4.231   0.240  2.1807 -3.0034 -0.2259
  494TIP3   OH222972   1.396   5.899   1.027 -0.0512  0.5466 -0.0716
  494TIP3    H122973   1.326   5.939   1.079  0.7867  1.3663  0.4641
  494TIP3    H222974   1.431   5.972   0.975  1.3542  0.4930  0.7493
  495TIP3   OH222975   5.673   0.927  14.238 -0.7400  0.2002  0.4707
  495TIP3    H122976   5.690   1.016  14.206 -1.7021 -0.7514 -2.9204
  495TIP3    H222977   5.582   0.909  14.213  0.7490 -3.2934 -3.0489
  496TIP3   OH222978   0.175   4.137  16.191 -0.0786  0.6475 -0.2272
  496TIP3    H122979   0.227   4.064  16.225  1.7377  1.9142 -0.2512
  496TIP3    H222980   0.088   4.125  16.229  0.3869 -1.1432  0.3040
  497TIP3   OH222981   1.483   0.033  14.047 -0.0769  0.3681 -0.3603
  497TIP3    H122982   1.447   0.029  13.959 -0.3827 -0.2830 -0.2113
  497TIP3    H222983   1.578   0.042  14.034 -0.1223  0.2691 -0.7546
  498TIP3   OH222984   1.188   1.764   0.737  0.1880 -0.2437  0.1414
  498TIP3    H122985   1.275   1.727   0.724  0.0293 -0.5756  0.0053
  498TIP3    H222986   1.129   1.690   0.723 -0.0790 -0.1947  1.0210
  499TIP3   OH222987   2.453   1.981  16.111 -0.0932 -0.4958  0.5006
  499TIP3    H122988   2.380   1.924  16.134  0.0335 -0.7474  0.2911
  499TIP3    H222989   2.412   2.059  16.075 -0.2552 -0.8700 -0.1442
  500TIP3   OH222990   4.947   6.795  14.463  0.1398  0.1275 -0.2762
  500TIP3    H122991   4.855   6.815  14.481  0.6300  2.1017  0.1588
  500TIP3    H222992   4.945   6.740  14.385 -1.4005  0.2812 -0.3565
  501TIP3   OH222993   5.647   1.140   0.643  0.1923  0.3285 -0.1290
  501TIP3    H122994   5.711   1.069   0.643  1.0654  1.1117 -0.6076
  501TIP3    H222995   5.562   1.095   0.643  0.7305 -0.7257 -1.4704
  502TIP3   OH222996   5.865   5.101   4.418 -0.3697 -0.5629  0.0031
  502TIP3    H122997   5.784   5.068   4.458 -0.7301 -0.5974 -0.7530
  502TIP3    H222998   5.836   5.165   4.353  0.3422  1.6491  1.8015
  503TIP3   OH222999   6.362   1.925   5.846 -0.9327 -0.0263 -0.2470
  503TIP3    H123000   6.292   1.943   5.908  0.8486  2.7325  1.0751
  503TIP3    H223001   6.339   1.975   5.768 -0.9095  0.1401 -0.1471
  504TIP3   OH223002   6.404   2.588   2.723 -0.2629  0.8589 -0.3288
  504TIP3    H123003   6.401   2.619   2.813  0.8488 -1.5008  0.5766
  504TIP3    H223004   6.497   2.588   2.700 -0.3344 -0.6074 -0.6949
  505TIP3   OH223005   2.612   3.280  16.751 -0.5510 -0.3190  0.0710
  505TIP3    H123006   2.668   3.342  16.796  0.4265 -0.0993 -1.4106
  505TIP3    H223007   2.562   3.238  16.821  1.2314 -0.3097  1.3982
  506TIP3   OH223008   0.234   1.100  15.666 -0.3448  0.2454  0.2656
  506TIP3    H123009   0.143   1.097  15.698  0.0604 -1.0675  1.3421
  506TIP3    H223010   0.234   1.042  15.590 -0.7979  1.6248 -0.8063
  507TIP3   OH223011   2.646   1.699   0.430 -0.3838  0.3295 -0.3574
  507TIP3    H123012   2.652   1.784   0.386  0.6875 -0.9147 -2.6728
  507TIP3    H223013   2.552   1.686   0.443 -0.4939  2.5729  1.5377
  508TIP3   OH223014   4.647   3.117   4.966  0.5080  0.1343 -0.3096
  508TIP3    H123015   4.646   3.060   4.889 -2.0709 -1.8109  1.0786
  508TIP3    H223016   4.613   3.201   4.934  0.7752 -0.2293 -1.5835
  509TIP3   OH223017   5.181   5.806   2.976  0.1737 -0.0533 -0.0008
  509TIP3    H123018   5.240   5.748   2.928 -0.3655  0.9785 -1.9616
  509TIP3    H223019   5.173   5.883   2.920 -3.2352 -0.2938  0.0506
  510TIP3   OH223020   0.931   0.044  13.651  0.0651 -1.0962 -0.0959
  510TIP3    H123021   1.015   0.061  13.693  0.0428 -0.9868 -0.0962
  510TIP3    H223022   0.907   0.127  13.610 -0.2282 -1.0212  0.2278
  511TIP3   OH223023   2.943   3.773  14.797  0.4739 -0.3071 -0.3002
  511TIP3    H123024   3.035   3.775  14.770  0.5705  0.0713  0.0628
  511TIP3    H223025   2.898   3.822  14.728  0.7511  0.8391  0.3136
  512TIP3   OH223026   4.496   6.224  13.215  0.5181 -0.4774 -0.2951
  512TIP3    H123027   4.456   6.310  13.225  0.3579 -0.6201  0.3046
  512TIP3    H223028   4.574   6.239  13.161  0.7439  0.1126  0.2000
  513TIP3   OH223029   5.713   2.078   3.311  0.0760 -0.4338  0.6080
  513TIP3    H123030   5.754   2.159   3.281 -0.2858  0.4576  2.4289
  513TIP3    H223031   5.764   2.052   3.388 -1.1079 -0.7631  1.3113
  514TIP3   OH223032   4.743   1.056   5.969  0.1616  0.0904  0.0982
  514TIP3    H123033   4.681   1.111   6.017 -0.6805 -0.0145 -0.8660
  514TIP3    H223034   4.824   1.107   5.968  0.3698 -0.1361  2.1049
  515TIP3   OH223035   5.361   6.467  11.554 -0.3297  0.2467 -0.2095
  515TIP3    H123036   5.268   6.487  11.563 -0.9948 -2.6723  0.0837
  515TIP3    H223037   5.363   6.385  11.503  1.9704 -0.7347  1.3772
  516TIP3   OH223038   3.583   4.593  10.767  0.5305  0.2920  0.0044
  516TIP3    H123039   3.556   4.502  10.755 -0.2275  0.3297  1.3125
  516TIP3    H223040   3.502   4.644  10.758  0.9852  0.8608 -0.9357
  517TIP3   OH223041   5.699   2.538  15.523  0.0282  0.0947 -0.8014
  517TIP3    H123042   5.621   2.507  15.570 -0.1975 -2.6505 -2.8724
  517TIP3    H223043   5.666   2.597  15.456  0.0913  1.6837  0.5285
  518TIP3   OH223044   3.938   5.288   4.575  0.5144  0.7259 -0.3175
  518TIP3    H123045   3.999   5.263   4.506 -0.1352  0.9873 -0.9936
  518TIP3    H223046   3.899   5.370   4.544 -0.3944  0.4082 -0.0330
  519TIP3   OH223047   6.791   3.845   4.737 -0.2039  0.3875  0.1475
  519TIP3    H123048   6.717   3.798   4.700  0.0929 -0.2077  0.3121
  519TIP3    H223049   6.849   3.862   4.663 -0.9061  1.5981 -0.1273
  520TIP3   OH223050   6.596   1.134   4.057  0.3146  0.4084 -0.0827
  520TIP3    H123051   6.628   1.189   3.985  1.4093 -1.5281 -1.1098
  520TIP3    H223052   6.663   1.144   4.125  0.5083  0.3583 -0.2643
  521TIP3   OH223053   1.244   4.185  15.033 -0.4722 -0.1118 -0.7742
  521TIP3    H123054   1.338   4.197  15.021 -0.4162  1.9801  1.4221
  521TIP3    H223055   1.204   4.264  14.996 -1.1127  0.4868  1.1171
  522TIP3   OH223056   6.544   4.063  16.944  0.4174 -0.0528 -0.2024
  522TIP3    H123057   6.462   4.112  16.949  1.9401  2.4575  1.1125
  522TIP3    H223058   6.568   4.064  16.851  0.2528  1.4602 -0.2429
  523TIP3   OH223059   3.219   1.865  13.399 -0.2174  0.2090  0.6627
  523TIP3    H123060   3.305   1.832  13.423  0.7980  0.0980 -2.9256
  523TIP3    H223061   3.219   1.956  13.429  0.2236 -0.4313  2.7197
  524TIP3   OH223062   1.714   0.088   4.009  0.4096 -0.0734  0.2815
  524TIP3    H123063   1.638   0.054   4.056  0.5350 -1.0235 -0.2030
  524TIP3    H223064   1.677   0.150   3.946 -0.1169 -1.5723 -0.9210
  525TIP3   OH223065   3.792   3.609  16.091  0.0318  0.0108  0.4835
  525TIP3    H123066   3.749   3.684  16.132 -1.7438 -1.7994  2.0615
  525TIP3    H223067   3.882   3.612  16.124 -0.4496  0.5573  1.7981
  526TIP3   OH223068   3.546   3.755  13.494 -0.6748  0.3703 -0.3763
  526TIP3    H123069   3.632   3.759  13.453 -0.1131  0.6851  0.8015
  526TIP3    H223070   3.521   3.663  13.489  0.6402 -0.0790  1.1059
  527TIP3   OH223071   4.791   0.575  14.063  0.8996  0.1386  0.1046
  527TIP3    H123072   4.727   0.599  14.129  1.7342 -0.1294  1.0299
  527TIP3    H223073   4.874   0.609  14.096  1.3127  0.1074 -0.8637
  528TIP3   OH223074   2.092   4.880   4.352  0.0733 -1.0972  0.4211
  528TIP3    H123075   2.038   4.837   4.418 -0.9034 -1.0955 -0.3629
  528TIP3    H223076   2.101   4.970   4.383 -0.2945 -1.1236  0.6068
  529TIP3   OH223077   0.653   2.543   5.289  0.4037  0.1915 -0.0062
  529TIP3    H123078   0.647   2.600   5.212 -1.3959 -0.5434 -0.4268
  529TIP3    H223079   0.690   2.462   5.255  0.2126  0.0913  0.0242
  530TIP3   OH223080   1.712   6.456  15.161 -0.3648 -0.4956  0.0325
  530TIP3    H123081   1.752   6.503  15.088 -0.2835 -0.2553  0.2344
  530TIP3    H223082   1.664   6.522  15.209  0.4070 -0.4658  0.7754
  531TIP3   OH223083   0.790   0.616  11.447  0.4149 -0.2563 -0.4122
  531TIP3    H123084   0.752   0.692  11.402  2.7306  0.6411 -0.9353
  531TIP3    H223085   0.834   0.652  11.523  0.8151 -1.1780 -0.1995
  532TIP3   OH223086   5.854   4.419   3.014 -0.2439  0.5485  0.2752
  532TIP3    H123087   5.839   4.352   2.947 -1.0458 -2.7827  3.5558
  532TIP3    H223088   5.818   4.499   2.977 -0.2131 -1.0584 -3.4155
  533TIP3   OH223089   1.863   5.266   5.671 -0.0977 -0.0671 -0.3852
  533TIP3    H123090   1.910   5.327   5.728  0.8126 -0.0060 -1.1987
  533TIP3    H223091   1.782   5.247   5.719  0.2970  0.5959  0.5689
  534TIP3   OH223092   2.924   0.142  13.841  0.3296  0.3146 -0.3988
  534TIP3    H123093   2.857   0.074  13.846  1.0028 -0.3515 -0.2458
  534TIP3    H223094   2.945   0.162  13.932  0.9498 -0.1022 -0.4465
  535TIP3   OH223095   2.415   6.455   3.145 -0.2410  0.1858 -0.7024
  535TIP3    H123096   2.510   6.444   3.146 -0.2251  0.3765 -0.2020
  535TIP3    H223097   2.385   6.397   3.074  0.2662  0.2976 -1.0120
  536TIP3   OH223098   0.451   0.961   5.029 -0.0570  0.2932 -0.0336
  536TIP3    H123099   0.463   1.056   5.033  1.0098  0.1755 -0.3056
  536TIP3    H223100   0.431   0.943   4.937  1.7263  0.0456 -0.3978
  537TIP3   OH223101   6.053   0.411   6.215 -0.1912  0.0690 -0.1096
  537TIP3    H123102   6.014   0.433   6.131 -1.2930 -1.1178  0.0783
  537TIP3    H223103   6.085   0.322   6.204 -0.2738 -0.0670  0.7021
  538TIP3   OH223104   5.786   5.368   5.102  0.3358 -0.8030  0.0809
  538TIP3    H123105   5.795   5.289   5.154 -0.4318 -0.2341  1.0884
  538TIP3    H223106   5.752   5.434   5.163  0.1426  0.0702 -0.9508
  539TIP3   OH223107   2.253   0.537  13.323 -0.0207  0.2279  0.0924
  539TIP3    H123108   2.292   0.465  13.373 -0.6189 -1.3099 -1.6141
  539TIP3    H223109   2.164   0.543  13.355  0.4435  1.1846  1.2489
  540TIP3   OH223110   4.631   2.601  15.456 -0.0930  0.2713  0.5510
  540TIP3    H123111   4.705   2.553  15.493 -0.7257  1.1727  3.0722
  540TIP3    H223112   4.606   2.551  15.378  2.4170 -0.6811  0.3054
  541TIP3   OH223113   4.538   0.437  12.701  0.1029 -0.5658  0.0208
  541TIP3    H123114   4.586   0.356  12.718  0.8703 -0.0486  0.3404
  541TIP3    H223115   4.584   0.503  12.752 -0.5665  0.0595 -0.1832
  542TIP3   OH223116   2.438   2.875  14.143 -0.3707  0.4549  0.2457
  542TIP3    H123117   2.422   2.786  14.113  2.2362  0.0473 -0.0006
  542TIP3    H223118   2.444   2.927  14.063  0.3102  0.4734  0.3127
  543TIP3   OH223119   0.823   4.112   3.307 -0.3404 -1.3229  0.3160
  543TIP3    H123120   0.731   4.136   3.300 -0.6134 -2.3604  0.2498
  543TIP3    H223121   0.846   4.131   3.398  0.1568  1.5764 -0.3804
  544TIP3   OH223122   3.147   2.991   2.914  0.3630 -0.0723 -0.1785
  544TIP3    H123123   3.120   3.070   2.867  0.6377  0.3696  0.3920
  544TIP3    H223124   3.242   2.987   2.903  0.5630  0.5778  1.1342
  545TIP3   OH223125   2.880   3.139  15.339  0.1520  0.5013  0.2948
  545TIP3    H123126   2.889   3.153  15.244  2.0369 -0.5757  0.2836
  545TIP3    H223127   2.856   3.225  15.374  0.6451  1.1897 -1.0172
  546TIP3   OH223128   0.524   6.512   0.513  0.1895 -0.3910  0.5762
  546TIP3    H123129   0.480   6.441   0.560 -0.3358  0.0128  0.7018
  546TIP3    H223130   0.473   6.590   0.534  0.1116 -0.1588 -0.4513
  547TIP3   OH223131   5.331   6.054  14.428  0.3385 -1.0521  0.4711
  547TIP3    H123132   5.382   6.124  14.388  0.1084 -1.9947 -1.5007
  547TIP3    H223133   5.312   6.087  14.516  0.8258  1.0596 -0.1698
  548TIP3   OH223134   4.498   4.681   1.100  0.0582 -0.3018 -0.2313
  548TIP3    H123135   4.585   4.719   1.097 -0.5045  1.1358  0.9251
  548TIP3    H223136   4.501   4.620   1.174  0.6751 -1.7946 -1.4762
  549TIP3   OH223137   3.862   3.858   1.464 -0.3418 -0.0057 -0.4463
  549TIP3    H123138   3.806   3.781   1.477 -0.2543  0.1190  0.6969
  549TIP3    H223139   3.907   3.841   1.381 -1.4386 -0.4989 -0.9467
  550TIP3   OH223140   6.243   4.256  14.152 -0.6240 -0.3145  0.4343
  550TIP3    H123141   6.172   4.316  14.128  2.3472  2.9254 -0.5906
  550TIP3    H223142   6.266   4.281  14.242 -0.6682 -1.2632  0.7109
  551TIP3   OH223143   1.177   4.279   3.287 -0.1472  0.3292 -0.2518
  551TIP3    H123144   1.226   4.210   3.332 -0.6277  0.0467 -0.1587
  551TIP3    H223145   1.124   4.233   3.222 -1.1189  0.5115  0.3841
  552TIP3   OH223146   3.645   5.811  12.983 -0.4685  0.4253 -0.2543
  552TIP3    H123147   3.648   5.723  12.944 -1.2023  0.4327 -0.3212
  552TIP3    H223148   3.552   5.832  12.989 -0.3847  0.2219  1.9784
  553TIP3   OH223149   1.035   1.125   2.545 -1.0290  0.2230 -0.0524
  553TIP3    H123150   1.116   1.145   2.498 -2.0594  0.3641 -1.8069
  553TIP3    H223151   1.034   1.029   2.551 -1.1093  0.1875 -0.6780
  554TIP3   OH223152   2.037   0.618  13.728  0.9040 -0.4292 -0.1185
  554TIP3    H123153   2.038   0.676  13.652  3.3621 -0.7859 -0.3872
  554TIP3    H223154   2.015   0.532  13.692  0.1871 -0.2457 -0.1348
  555TIP3   OH223155   3.589   3.573   5.205 -0.6348 -0.2472 -0.1092
  555TIP3    H123156   3.571   3.662   5.174  2.5478  1.2172  2.0421
  555TIP3    H223157   3.561   3.573   5.296  1.2765 -0.7850  0.5000
  556TIP3   OH223158   2.301   3.031   3.780  0.0199 -0.3329 -0.4456
  556TIP3    H123159   2.354   3.111   3.779 -2.8179  1.5846 -1.4359
  556TIP3    H223160   2.311   2.997   3.870 -0.5131  2.3533  0.6662
  557TIP3   OH223161   2.615   0.005  11.334 -0.1720 -0.1171  0.0534
  557TIP3    H123162   2.572  -0.068  11.289  0.3212 -0.4412  0.0987
  557TIP3    H223163   2.707  -0.003  11.309 -0.4941  2.0338 -2.0465
  558TIP3   OH223164   3.694   3.868  11.072  0.1389 -0.1696 -0.1257
  558TIP3    H123165   3.606   3.841  11.101 -0.3933 -0.1198 -1.6884
  558TIP3    H223166   3.717   3.941  11.130 -1.5814  0.9546 -0.8238
  559TIP3   OH223167   2.141   1.771   6.109 -0.0542 -0.0537  0.2015
  559TIP3    H123168   2.216   1.804   6.060  0.8372 -3.1452 -0.6513
  559TIP3    H223169   2.070   1.767   6.045 -0.1572  0.2387  0.2992
  560TIP3   OH223170   4.953   2.720  17.087 -0.1481  0.0904 -0.1089
  560TIP3    H123171   4.981   2.793  17.143 -2.0363  2.2233 -1.8506
  560TIP3    H223172   4.919   2.655  17.149  0.0116  1.3855  1.3840
  561TIP3   OH223173   3.964   3.321   1.770  1.0043 -0.7088  0.2521
  561TIP3    H123174   3.916   3.294   1.692  1.2899  0.3800 -0.3113
  561TIP3    H223175   4.023   3.248   1.788  1.5741 -0.5970 -1.0859
  562TIP3   OH223176   1.126   5.403  12.316  0.0143 -0.2769  0.6962
  562TIP3    H123177   1.042   5.448  12.317 -0.5561 -1.1095 -3.2752
  562TIP3    H223178   1.126   5.349  12.395 -3.0292 -0.0302  0.8968
  563TIP3   OH223179   2.240   5.045   0.773 -0.1315  0.5477 -0.0455
  563TIP3    H123180   2.241   4.965   0.827  0.8796  1.0852  0.7411
  563TIP3    H223181   2.251   5.014   0.684  0.7729 -0.1602  0.3076
  564TIP3   OH223182   6.804   6.137   0.379  0.0760  0.1470 -0.5020
  564TIP3    H123183   6.760   6.117   0.297  0.2631  2.2551 -1.1541
  564TIP3    H223184   6.819   6.231   0.376  2.0283 -0.0745  1.0039
  565TIP3   OH223185   1.832   5.254   2.775 -0.3337 -0.6831 -0.6939
  565TIP3    H123186   1.834   5.346   2.798  2.1430 -1.2180  1.5575
  565TIP3    H223187   1.870   5.250   2.687  0.1152  0.3722 -0.5509
  566TIP3   OH223188   5.344   4.727   4.093 -0.3084 -0.1550 -0.2190
  566TIP3    H123189   5.364   4.634   4.107 -1.8790 -0.6139 -0.9525
  566TIP3    H223190   5.413   4.773   4.141  0.5738 -1.6934  0.0415
  567TIP3   OH223191   2.277   1.807   5.112  0.0176  0.4240 -0.4733
  567TIP3    H123192   2.281   1.869   5.184  1.1107 -0.0040 -0.1482
  567TIP3    H223193   2.250   1.724   5.153  0.9945  0.0922 -0.4845
  568TIP3   OH223194   1.057   1.119  12.191 -0.0118 -0.4612  0.5643
  568TIP3    H123195   1.007   1.153  12.117  0.7875 -0.9482 -0.2119
  568TIP3    H223196   1.008   1.147  12.268 -0.9811 -0.1503 -0.1564
  569TIP3   OH223197   5.333   5.590   1.035  0.7584  0.0132 -0.1004
  569TIP3    H123198   5.410   5.547   0.999  1.6410  1.4715  0.0297
  569TIP3    H223199   5.360   5.680   1.051 -1.2311  0.7951 -0.9009
  570TIP3   OH223200   3.169   2.713   2.947  0.0552 -0.1512  0.1507
  570TIP3    H123201   3.128   2.791   2.910  1.2489  0.4326  0.0523
  570TIP3    H223202   3.207   2.743   3.030 -0.9024 -1.0051  0.9119
  571TIP3   OH223203   0.562   0.851  15.909  0.0307 -0.6560  0.3534
  571TIP3    H123204   0.623   0.783  15.938 -0.2519 -0.7592  0.7099
  571TIP3    H223205   0.617   0.913  15.861  0.2709 -1.2053 -0.0937
  572TIP3   OH223206   2.631   0.369   1.088  0.2139 -0.8356  0.4086
  572TIP3    H123207   2.651   0.462   1.077 -0.4459 -0.5866  1.2844
  572TIP3    H223208   2.700   0.323   1.040 -0.3537  0.1447 -1.3892
  573TIP3   OH223209   4.421   4.341  14.876 -0.3971  0.1254  0.1100
  573TIP3    H123210   4.370   4.350  14.795 -0.2038  0.7385  0.0584
  573TIP3    H223211   4.438   4.430  14.904 -0.1992 -0.0885  0.6656
  574TIP3   OH223212   3.041   5.983  11.628  0.2620  0.5846 -0.1239
  574TIP3    H123213   2.968   6.027  11.584 -0.0677  0.0778 -0.0927
  574TIP3    H223214   3.004   5.900  11.658  0.2429  1.2501  1.8287
  575TIP3   OH223215   3.240   0.705   6.093  0.0080 -0.6387  0.2379
  575TIP3    H123216   3.334   0.708   6.076  0.0645 -0.8460  0.5043
  575TIP3    H223217   3.224   0.616   6.125 -0.2662 -0.5819  0.2629
  576TIP3   OH223218   4.103   4.615  17.256 -0.4134  0.1139 -0.8446
  576TIP3    H123219   4.072   4.550  17.318 -1.4900  1.8883  0.5438
  576TIP3    H223220   4.079   4.699  17.295  2.6386  1.4349 -1.6269
  577TIP3   OH223221   6.552   6.705  13.880 -0.1168 -0.0047 -0.2973
  577TIP3    H123222   6.637   6.661  13.878 -0.7932 -1.4782  2.1601
  577TIP3    H223223   6.492   6.642  13.842 -0.4936  0.2640 -0.1438
  578TIP3   OH223224   5.828   4.358  16.263  0.1491 -0.0457  0.2629
  578TIP3    H123225   5.750   4.412  16.273 -0.5645 -0.7641 -1.1385
  578TIP3    H223226   5.798   4.269  16.282  0.8077 -0.2247  0.4876
  579TIP3   OH223227   6.719   2.250   1.177 -0.1763 -0.2528 -0.1210
  579TIP3    H123228   6.796   2.195   1.162 -0.2555 -0.7721  1.3480
  579TIP3    H223229   6.645   2.190   1.166 -0.2631 -0.4593  1.5130
  580TIP3   OH223230   4.620   2.697  14.403 -0.1715  0.1478 -0.4266
  580TIP3    H123231   4.528   2.693  14.377 -0.3884  0.2643  0.3187
  580TIP3    H223232   4.626   2.642  14.481 -0.0725  1.9291  0.8457
  581TIP3   OH223233   6.493   5.586   0.244 -0.2155  0.2471  0.2584
  581TIP3    H123234   6.513   5.537   0.324  1.2715 -0.3509 -0.4455
  581TIP3    H223235   6.406   5.623   0.259 -0.1716 -0.2811  1.9390
  582TIP3   OH223236   4.992   6.361   3.319 -0.0418 -0.5982  1.1318
  582TIP3    H123237   4.922   6.327   3.262  0.6913 -0.5082  0.1606
  582TIP3    H223238   4.954   6.438   3.361 -1.0430 -1.4378  1.7919
  583TIP3   OH223239   4.813   0.497   3.940  0.3985  0.6035  0.8617
  583TIP3    H123240   4.858   0.412   3.946 -0.6928 -0.0130  0.4490
  583TIP3    H223241   4.876   0.555   3.897  0.2359 -0.6499 -1.1168
  584TIP3   OH223242   5.335   1.769  14.692 -0.1263  0.0430 -0.1751
  584TIP3    H123243   5.412   1.816  14.662  0.9231 -1.3348  0.3266
  584TIP3    H223244   5.282   1.836  14.737  0.8655  0.9470 -0.3397
  585TIP3   OH223245   5.766   2.074  14.257  0.6145 -0.1242  0.1634
  585TIP3    H123246   5.844   2.111  14.215  0.6465  0.4206  0.6868
  585TIP3    H223247   5.696   2.086  14.193  0.8282 -0.0252 -0.0531
  586TIP3   OH223248   2.596   0.083  12.019  0.3036  0.6399  0.4973
  586TIP3    H123249   2.606   0.012  12.083 -1.7674 -0.7805 -0.6841
  586TIP3    H223250   2.676   0.078  11.966 -1.2352 -3.1330 -1.7183
  587TIP3   OH223251   3.595   0.414   5.902 -0.1308 -0.3729 -0.2233
  587TIP3    H123252   3.530   0.383   5.838 -1.5239  1.5397  0.2356
  587TIP3    H223253   3.580   0.359   5.979  1.1486 -2.2766 -1.2970
  588TIP3   OH223254   1.091   5.250  14.531  0.4935 -0.1226 -0.0851
  588TIP3    H123255   1.083   5.336  14.572  0.9273  0.1364 -0.5379
  588TIP3    H223256   1.100   5.269  14.438  3.0325 -0.5272  0.0430
  589TIP3   OH223257   6.202   4.554  12.843 -0.0126 -0.6079  0.1761
  589TIP3    H123258   6.109   4.544  12.827  0.1646  2.2155 -3.1457
  589TIP3    H223259   6.208   4.604  12.925 -1.4384  0.2892 -0.2621
  590TIP3   OH223260   5.973   6.040  14.156  0.1934 -0.0243 -0.0581
  590TIP3    H123261   6.003   6.118  14.204 -0.3532 -0.0051  0.2501
  590TIP3    H223262   5.962   5.973  14.223  0.8601 -0.4294 -0.3495
  591TIP3   OH223263   3.407   0.158  11.780 -0.0507  0.5384  0.7298
  591TIP3    H123264   3.479   0.164  11.717 -0.6053  1.1475  0.1424
  591TIP3    H223265   3.367   0.072  11.763 -0.8444  1.1236 -0.4752
  592TIP3   OH223266   5.478   2.565  12.599 -0.4405  0.4978 -0.1673
  592TIP3    H123267   5.477   2.657  12.623 -0.3228  0.8327 -1.4468
  592TIP3    H223268   5.389   2.546  12.569 -0.3248  0.3267 -0.4089
  593TIP3   OH223269   1.798   1.532   2.774  0.2658 -0.3606 -0.2398
  593TIP3    H123270   1.861   1.468   2.805 -1.2431 -1.4605  0.6070
  593TIP3    H223271   1.770   1.579   2.852 -0.7437 -0.5978 -0.4462
  594TIP3   OH223272   2.553   2.363   3.694 -0.2129 -0.8207 -0.3709
  594TIP3    H123273   2.498   2.379   3.617 -1.0502 -0.1465  0.3559
  594TIP3    H223274   2.493   2.328   3.760  0.2887 -0.3610  0.3376
  595TIP3   OH223275   4.586   0.993  16.545  0.2995 -0.4095  0.2233
  595TIP3    H123276   4.540   0.942  16.612  0.5560  0.2793  0.9314
  595TIP3    H223277   4.601   1.078  16.587  0.5186 -0.0007 -0.6910
  596TIP3   OH223278   6.616   1.141  13.875  0.3280 -0.3532  0.0109
  596TIP3    H123279   6.604   1.054  13.914  0.7503 -0.6322 -0.4778
  596TIP3    H223280   6.550   1.196  13.918 -0.2571 -1.0222 -0.0176
  597TIP3   OH223281   4.561   4.132  15.012 -0.7298 -0.2229 -0.0911
  597TIP3    H123282   4.535   4.051  14.968  1.2206 -0.3084 -1.1384
  597TIP3    H223283   4.523   4.201  14.959 -0.8060 -0.3941 -0.2600
  598TIP3   OH223284   6.020   2.385  17.209  0.6625 -0.3153  0.9477
  598TIP3    H123285   6.029   2.290  17.217  1.3148 -0.1572  2.1083
  598TIP3    H223286   5.930   2.404  17.238 -0.0945 -0.7643 -1.0144
  599TIP3   OH223287   0.097   0.818   4.662 -0.8932  0.3618  0.2479
  599TIP3    H123288   0.109   0.734   4.617  0.1093 -1.0143  2.9211
  599TIP3    H223289   0.183   0.837   4.700 -1.4522  1.9223  0.7694
  600TIP3   OH223290   5.430   4.725  11.979 -0.2545  0.0919 -0.5068
  600TIP3    H123291   5.448   4.738  12.073 -0.2918 -2.0041 -0.1830
  600TIP3    H223292   5.367   4.793  11.957  0.4331  1.1674  0.7835
  601TIP3   OH223293   1.845   1.095   5.882 -0.7212  0.7450  0.2942
  601TIP3    H123294   1.922   1.051   5.919 -1.7937 -2.3622 -1.0248
  601TIP3    H223295   1.785   1.105   5.956 -0.5876 -0.3194  0.5543
  602TIP3   OH223296   0.133   0.717   1.223  0.3476 -0.0156 -0.0257
  602TIP3    H123297   0.079   0.776   1.276  1.4761 -0.9291  2.1875
  602TIP3    H223298   0.085   0.635   1.223  2.3168 -1.2331  3.0766
  603TIP3   OH223299   4.268   6.183   2.908  0.4564  0.3252 -0.3219
  603TIP3    H123300   4.175   6.195   2.923  0.2890  0.5825 -1.5672
  603TIP3    H223301   4.285   6.093   2.936 -0.1278  0.3311  0.0540
  604TIP3   OH223302   4.386   6.374  15.449  0.8909 -0.2764 -0.2747
  604TIP3    H123303   4.335   6.295  15.468  0.7414 -0.0820  0.1389
  604TIP3    H223304   4.322   6.437  15.417  0.8883 -0.0595  0.1627
  605TIP3   OH223305   4.581   2.475  15.757 -0.2840  0.1376  0.6644
  605TIP3    H123306   4.651   2.541  15.751 -1.0981  1.2128  2.6843
  605TIP3    H223307   4.608   2.407  15.696  1.7614  1.2571  0.2637
  606TIP3   OH223308   4.604   0.832   0.141 -0.2144 -0.3246  0.2204
  606TIP3    H123309   4.527   0.779   0.124 -0.7979  0.9661 -1.3338
  606TIP3    H223310   4.677   0.771   0.137 -0.7464 -0.8448 -2.8997
  607TIP3   OH223311   3.168   5.335  11.607  0.3839  0.4670  0.0269
  607TIP3    H123312   3.175   5.251  11.653  0.8555  1.2076  1.3375
  607TIP3    H223313   3.115   5.389  11.665 -0.7140  0.7847 -1.2572
  608TIP3   OH223314   0.889   0.254  14.589  0.1227 -0.4146  0.2429
  608TIP3    H123315   0.798   0.283  14.596 -0.2215 -1.2191 -0.9562
  608TIP3    H223316   0.911   0.263  14.497  1.1287 -0.6625  0.4485
  609TIP3   OH223317   6.495   1.157   3.578 -0.3157  0.7543 -0.3063
  609TIP3    H123318   6.508   1.211   3.499  1.7752  2.7499  1.3258
  609TIP3    H223319   6.580   1.115   3.591 -1.0804 -0.6661  0.1176
  610TIP3   OH223320   4.020   1.917   0.877  0.7224 -0.4801  0.4333
  610TIP3    H123321   4.070   1.889   0.800  0.9798 -0.1339  0.4752
  610TIP3    H223322   3.938   1.950   0.841  0.8884 -0.2133  0.3011
  611TIP3   OH223323   3.303   3.592  12.940  0.2758 -0.3126  0.2128
  611TIP3    H123324   3.361   3.599  13.016 -0.0486 -1.0614  0.5369
  611TIP3    H223325   3.237   3.528  12.967  0.1833 -0.6115 -0.7149
  612TIP3   OH223326   6.527   5.662   2.695  0.0067 -0.0996 -0.0993
  612TIP3    H123327   6.497   5.737   2.748  0.4827 -0.5328  0.7992
  612TIP3    H223328   6.450   5.635   2.646 -0.1191  1.1223 -0.5899
  613TIP3   OH223329   5.842   1.895   0.096  0.5740 -0.2707 -0.5437
  613TIP3    H123330   5.843   1.940   0.011  2.2133 -0.1016 -0.4358
  613TIP3    H223331   5.931   1.863   0.108 -0.1280 -2.0344  0.2066
  614TIP3   OH223332   3.351   6.673   1.906  0.8020  0.3596  0.0617
  614TIP3    H123333   3.347   6.739   1.837  0.6030 -0.0725 -0.3388
  614TIP3    H223334   3.408   6.605   1.871  1.0247  0.3248  0.4864
  615TIP3   OH223335   3.252   5.202  11.969  0.1816 -0.0018  0.1312
  615TIP3    H123336   3.259   5.296  11.986 -0.7084  0.0134  0.4394
  615TIP3    H223337   3.288   5.161  12.048  1.2228  0.0755 -0.2988
  616TIP3   OH223338   3.305   5.651  14.744  0.0928 -0.0124 -0.6420
  616TIP3    H123339   3.343   5.566  14.767  0.3929  0.0579 -0.8615
  616TIP3    H223340   3.211   5.639  14.754  0.2342  0.1350  0.9685
  617TIP3   OH223341   1.207   5.068  16.003  0.2393 -0.6351 -0.3835
  617TIP3    H123342   1.166   4.983  15.984 -1.6709  0.3568 -0.7782
  617TIP3    H223343   1.265   5.083  15.929  0.8481 -1.7515 -0.1498
  618TIP3   OH223344   1.989   5.551   1.802 -0.7923  0.9282  0.2057
  618TIP3    H123345   1.943   5.505   1.732 -0.3131  0.4720  0.1941
  618TIP3    H223346   1.959   5.508   1.882  0.2229  0.1059  0.1468
  619TIP3   OH223347   3.861   5.591  15.005  0.6758 -0.0690  0.1161
  619TIP3    H123348   3.796   5.595  14.935  1.9106  0.2080 -1.0308
  619TIP3    H223349   3.855   5.502  15.040  0.7352 -0.5168 -1.0099
  620TIP3   OH223350   5.215   5.974  11.632 -0.5419 -0.0175  0.2952
  620TIP3    H123351   5.272   5.988  11.707 -1.0438 -0.2553  0.7184
  620TIP3    H223352   5.275   5.960  11.559 -0.0545  0.2109  0.6505
  621TIP3   OH223353   5.995   2.543   0.509 -0.1343 -0.1770  0.4904
  621TIP3    H123354   6.017   2.457   0.543 -0.0207 -0.2376  0.2643
  621TIP3    H223355   6.077   2.577   0.473 -0.1545  0.0685  0.6740
  622TIP3   OH223356   1.451   4.188   0.864 -0.2816 -0.1491  0.7983
  622TIP3    H123357   1.375   4.174   0.807  1.6969  0.7877 -2.2046
  622TIP3    H223358   1.500   4.106   0.858 -0.3421 -0.2571  1.6705
  623TIP3   OH223359   3.597   0.397   2.002 -0.0941  0.0437  0.0816
  623TIP3    H123360   3.689   0.423   2.002 -0.6861  2.3655 -1.3531
  623TIP3    H223361   3.555   0.456   2.063 -0.3905 -2.1504  2.0582
  624TIP3   OH223362   4.878   3.048  10.870 -0.4139  0.7939  0.2025
  624TIP3    H123363   4.942   3.094  10.815 -0.5918 -1.1335 -1.7081
  624TIP3    H223364   4.807   3.111  10.882  0.5988  1.9925  0.0098
  625TIP3   OH223365   1.923   0.777  16.940  0.0608 -0.1765  0.3251
  625TIP3    H123366   1.876   0.759  17.021 -0.2541 -0.6815  0.0351
  625TIP3    H223367   1.992   0.712  16.937  1.8242  1.5736  1.5532
  626TIP3   OH223368   6.789   1.642  11.425  0.0127 -0.4466 -0.4681
  626TIP3    H123369   6.694   1.643  11.411  0.4018  2.3197 -3.5212
  626TIP3    H223370   6.802   1.686  11.509 -1.2026  3.1287 -2.0777
  627TIP3   OH223371   2.313   4.924   1.366  0.3474 -0.2824  0.2817
  627TIP3    H123372   2.285   4.997   1.421 -0.7920 -1.0211  0.6880
  627TIP3    H223373   2.377   4.962   1.306  1.5307  0.5501  2.0434
  628TIP3   OH223374   0.099   0.762   0.866 -0.4224 -0.3581 -0.3046
  628TIP3    H123375   0.093   0.776   0.960 -2.7006 -0.6645 -0.3658
  628TIP3    H223376   0.181   0.713   0.854  0.5360  0.8050  1.3525
  629TIP3   OH223377   5.705   2.913   1.095 -0.2901  0.7448  0.0616
  629TIP3    H123378   5.667   2.983   1.148  0.7013  0.9338  0.5430
  629TIP3    H223379   5.784   2.888   1.143 -1.0441 -1.2279  0.3023
  630TIP3   OH223380   3.821   6.232  13.701  0.0372 -0.1132  0.0660
  630TIP3    H123381   3.846   6.324  13.709 -0.0872  0.1230 -1.9415
  630TIP3    H223382   3.759   6.231  13.628 -0.4399 -1.7066  0.4772
  631TIP3   OH223383   0.313   3.160   2.660  0.3610 -0.3658  0.2533
  631TIP3    H123384   0.379   3.111   2.611 -0.9801 -1.8618 -0.1149
  631TIP3    H223385   0.254   3.195   2.593  2.1631  3.1750  0.3843
  632TIP3   OH223386   3.620   1.367   5.927 -0.5855 -0.1088 -0.0300
  632TIP3    H123387   3.622   1.278   5.964  1.8886  0.2309  0.7331
  632TIP3    H223388   3.681   1.417   5.980 -1.5237  1.9399 -0.8193
  633TIP3   OH223389   5.693   5.635   1.159  0.0621  0.2754 -0.1838
  633TIP3    H123390   5.752   5.629   1.085  0.8847  1.1989  0.3742
  633TIP3    H223391   5.655   5.548   1.168  0.6610 -0.0805 -1.1005
  634TIP3   OH223392   1.776   1.170   0.526 -0.0815 -0.3777 -0.2096
  634TIP3    H123393   1.709   1.187   0.461 -0.1697  0.3160  0.0540
  634TIP3    H223394   1.836   1.244   0.519 -0.1571 -0.2351  0.5705
  635TIP3   OH223395   3.396   5.399  14.827  0.0679  0.2661  0.4610
  635TIP3    H123396   3.345   5.370  14.902 -3.3077 -1.4938 -2.4204
  635TIP3    H223397   3.456   5.327  14.809  0.8993  0.7017  1.4277
  636TIP3   OH223398   5.221   4.870  15.606 -0.2208 -0.4461 -0.4181
  636TIP3    H123399   5.140   4.917  15.588 -0.4508 -1.1780 -1.3142
  636TIP3    H223400   5.193   4.781  15.627 -0.0909  0.5155  4.5946
  637TIP3   OH223401   1.987   0.213  11.459 -0.3891  0.0368  0.0350
  637TIP3    H123402   1.949   0.253  11.538 -1.8495 -0.7470 -0.2490
  637TIP3    H223403   1.997   0.286  11.398 -1.9443  0.2060 -0.0590
  638TIP3   OH223404   4.578   1.366  13.740  0.0092 -0.1707  0.4342
  638TIP3    H123405   4.631   1.316  13.802 -0.8427 -4.2314 -1.9032
  638TIP3    H223406   4.495   1.318  13.735 -0.7793  1.3595 -2.1321
  639TIP3   OH223407   5.256   5.391  14.633 -0.2006 -0.0148  0.2399
  639TIP3    H123408   5.290   5.382  14.544 -0.0421  1.0567  0.1901
  639TIP3    H223409   5.164   5.364  14.627 -0.1087 -0.2324 -0.1828
  640TIP3   OH223410   5.169   6.742  16.970 -0.3803 -0.5450 -0.5718
  640TIP3    H123411   5.170   6.676  16.901 -1.4524  0.8560 -1.9612
  640TIP3    H223412   5.249   6.792  16.957  0.7765 -1.9822  0.9098
  641TIP3   OH223413   4.490   6.214  12.044  1.0798  0.4941  0.2943
  641TIP3    H123414   4.560   6.187  11.984 -0.2018  1.2758 -1.6067
  641TIP3    H223415   4.456   6.131  12.078  0.8979 -0.0551 -1.1626
  642TIP3   OH223416   0.842   3.127   5.936 -0.3261  0.4073  0.3197
  642TIP3    H123417   0.831   3.037   5.965  0.6210 -0.1252 -0.9465
  642TIP3    H223418   0.832   3.179   6.016 -3.8444 -0.5686  0.5818
  643TIP3   OH223419   6.627   5.363   0.106 -0.5461  0.2035 -0.1145
  643TIP3    H123420   6.574   5.284   0.116  0.3520 -0.0686  2.8539
  643TIP3    H223421   6.585   5.427   0.164 -1.0253  1.8316 -2.1714
  644TIP3   OH223422   0.668   6.716   0.973  0.0637  0.1731  0.1254
  644TIP3    H123423   0.631   6.684   1.055 -0.0629  0.7680  0.3027
  644TIP3    H223424   0.760   6.692   0.977  0.5287  2.1062  1.4051
  645TIP3   OH223425   4.554   2.457   4.127 -0.5477 -0.0915 -0.2162
  645TIP3    H123426   4.528   2.477   4.037 -1.3416  0.8325  0.2039
  645TIP3    H223427   4.646   2.484   4.132 -0.1885 -1.1626 -1.0533
  646TIP3   OH223428   3.637   5.463  11.025  0.0333  0.4156 -0.6057
  646TIP3    H123429   3.628   5.458  10.930 -1.3658 -4.4107 -0.3385
  646TIP3    H223430   3.726   5.434  11.043 -0.1931 -0.1475 -0.3762
  647TIP3   OH223431   2.470   2.534  14.561 -0.4238  0.1390 -0.1829
  647TIP3    H123432   2.495   2.493  14.478 -1.6923 -0.6754 -0.1901
  647TIP3    H223433   2.538   2.508  14.623 -1.0236 -1.7683 -0.2757
  648TIP3   OH223434   4.054   5.588   4.805 -0.4851  1.1919 -0.2466
  648TIP3    H123435   3.990   5.612   4.872 -1.0203  0.8306 -0.6195
  648TIP3    H223436   4.007   5.600   4.722 -0.4228 -0.0908 -0.4813
  649TIP3   OH223437   6.280   5.521  14.614  0.2507 -0.1220 -0.2293
  649TIP3    H123438   6.218   5.503  14.684 -0.2250  3.6507  0.4129
  649TIP3    H223439   6.226   5.522  14.534 -0.0214  0.2531 -0.0422
  650TIP3   OH223440   5.108   4.534  11.291  0.7494 -0.4635  0.1007
  650TIP3    H123441   5.085   4.441  11.283  2.3470 -0.7973 -1.0334
  650TIP3    H223442   5.197   4.533  11.326  1.2777  0.6069 -1.1922
  651TIP3   OH223443   3.673   0.542  15.125  0.4492 -0.2144  0.3854
  651TIP3    H123444   3.655   0.617  15.181 -0.0246 -0.0328 -0.0133
  651TIP3    H223445   3.598   0.537  15.065  0.7606 -0.6456  0.0234
  652TIP3   OH223446   3.955   0.308   3.624  0.4048  0.8502 -0.3934
  652TIP3    H123447   4.036   0.277   3.584  0.8103  0.4894  0.6782
  652TIP3    H223448   3.905   0.227   3.641  1.2002  0.8006  1.8545
  653TIP3   OH223449   0.806   0.273   4.757  0.0582  0.1918 -0.0619
  653TIP3    H123450   0.765   0.281   4.843  0.9465  0.4165  0.3485
  653TIP3    H223451   0.822   0.179   4.746  0.6691  0.2428  0.3668
  654TIP3   OH223452   3.120   5.871  11.368 -0.0522 -0.4875  0.4864
  654TIP3    H123453   3.153   5.959  11.385 -2.6153  0.2716  1.6798
  654TIP3    H223454   3.163   5.846  11.286  2.1456  1.1080  1.0955
  655TIP3   OH223455   2.704   3.162  11.618  0.1045 -0.9745 -0.7475
  655TIP3    H123456   2.621   3.169  11.667 -0.4234  0.9811 -1.8765
  655TIP3    H223457   2.772   3.164  11.685 -0.6622  0.4378  0.0095
  656TIP3   OH223458   0.465   4.516   4.554 -0.5725 -0.4441  0.0328
  656TIP3    H123459   0.414   4.571   4.494 -1.0219 -0.5944  0.2752
  656TIP3    H223460   0.519   4.462   4.497 -1.2340 -0.8162 -0.2499
  657TIP3   OH223461   4.203   6.130  10.378 -0.1310  0.0243 -0.7217
  657TIP3    H123462   4.150   6.098  10.451  0.7510 -1.7713 -0.8164
  657TIP3    H223463   4.245   6.051  10.343  0.2030  0.9859 -2.5718
  658TIP3   OH223464   6.808   0.948   3.367  0.0231 -0.1324  0.0138
  658TIP3    H123465   6.766   0.950   3.452 -0.1254  0.1898 -0.0684
  658TIP3    H223466   6.857   0.865   3.367  0.8978  0.3807  0.8226
  659TIP3   OH223467   1.074   1.756   2.521  0.1319 -0.3139 -0.1676
  659TIP3    H123468   1.154   1.799   2.492  0.2683 -0.6826 -0.3466
  659TIP3    H223469   1.034   1.818   2.582  0.3023  0.0809 -0.4534
  660TIP3   OH223470   3.612   4.967   1.306 -0.1030  0.3732 -0.6645
  660TIP3    H123471   3.546   4.902   1.280 -0.3128  0.7316 -1.0244
  660TIP3    H223472   3.573   5.051   1.284  0.2308  0.6161 -0.3278
  661TIP3   OH223473   2.338   2.645  11.716  0.1264 -0.3293 -0.0962
  661TIP3    H123474   2.381   2.716  11.670  0.4691 -0.6665 -0.3038
  661TIP3    H223475   2.327   2.676  11.805 -0.9168  0.4907 -0.4993
  662TIP3   OH223476   1.407   4.128   3.619  0.4550  0.2963 -0.5833
  662TIP3    H123477   1.346   4.150   3.690 -2.1515 -2.7884 -1.7406
  662TIP3    H223478   1.399   4.201   3.557  0.7130  1.6992  1.0254
  663TIP3   OH223479   2.281   2.755  11.965  0.1219 -0.1160 -0.6015
  663TIP3    H123480   2.272   2.843  12.000 -4.3208 -0.6752 -0.0344
  663TIP3    H223481   2.317   2.704  12.037 -0.9929  0.4895  0.4126
  664TIP3   OH223482   4.336   1.707  13.464 -0.1111 -0.2596 -0.3720
  664TIP3    H123483   4.428   1.729  13.480  0.7374 -1.8329 -2.8223
  664TIP3    H223484   4.330   1.694  13.370 -1.4993 -5.9137  0.3186
  665TIP3   OH223485   3.986   0.539   5.259 -0.2271 -0.0984 -0.2840
  665TIP3    H123486   3.909   0.578   5.301  0.2191 -0.2749  0.7155
  665TIP3    H223487   3.992   0.452   5.297 -0.1292 -0.4597 -1.1261
  666TIP3   OH223488   2.476   4.318  12.542  0.1004 -0.0242 -0.9219
  666TIP3    H123489   2.534   4.291  12.471  1.9994 -0.6586  0.8240
  666TIP3    H223490   2.389   4.325  12.501  1.5736  1.9982 -3.8077
  667TIP3   OH223491   6.375   5.518  12.851 -0.4448 -0.1042 -0.1670
  667TIP3    H123492   6.436   5.459  12.895 -1.3139 -1.1445 -0.3352
  667TIP3    H223493   6.423   5.600  12.844  0.1332 -0.2574  1.6726
  668TIP3   OH223494   6.489   6.708  12.679  0.3739  0.0063  0.7592
  668TIP3    H123495   6.541   6.682  12.603  1.0221 -2.5929  2.0320
  668TIP3    H223496   6.549   6.758  12.734  0.7620 -0.6513  0.9410
  669TIP3   OH223497   0.617   6.493  13.279 -0.1663  0.6586  0.2658
  669TIP3    H123498   0.678   6.519  13.210 -0.8406  0.4342 -0.4250
  669TIP3    H223499   0.531   6.514  13.243 -0.4238  2.6963  1.9506
  670TIP3   OH223500   4.544   1.250   0.397  0.0601  0.0228  0.0880
  670TIP3    H123501   4.598   1.325   0.423  0.2712 -0.1821  0.2522
  670TIP3    H223502   4.563   1.184   0.464  1.1871 -0.7892 -1.0006
  671TIP3   OH223503   2.021   4.571  16.574  0.7169 -0.4751 -0.1549
  671TIP3    H123504   2.013   4.477  16.587  0.7992 -0.5388 -0.5711
  671TIP3    H223505   2.051   4.581  16.484  0.5404 -0.0436 -0.1692
  672TIP3   OH223506   1.811   4.296   2.342 -0.3167  0.0960  0.1961
  672TIP3    H123507   1.818   4.202   2.363  0.8950  0.2804  0.6701
  672TIP3    H223508   1.869   4.339   2.404 -1.4068  1.2426  0.4390
  673TIP3   OH223509   5.760   3.487   0.151 -0.6474  0.1564  0.1152
  673TIP3    H123510   5.669   3.504   0.177 -1.0328 -0.0461 -1.0845
  673TIP3    H223511   5.804   3.464   0.233 -1.6907  0.1966  0.6988
  674TIP3   OH223512   0.880   2.065   5.211 -0.1102 -0.3255  0.1719
  674TIP3    H123513   0.887   2.079   5.305 -1.2849  0.1474  0.1941
  674TIP3    H223514   0.857   1.973   5.201  0.2383 -0.4283  0.3412
  675TIP3   OH223515   1.512   4.929   4.709 -0.2216  0.1725 -0.1014
  675TIP3    H123516   1.483   4.981   4.634 -0.5220  0.7625  0.4243
  675TIP3    H223517   1.596   4.966   4.733  0.5746 -0.9707 -1.0701
  676TIP3   OH223518   1.690   5.711  13.611  0.3345  0.0857  0.2401
  676TIP3    H123519   1.621   5.663  13.565  0.1908  0.7130 -0.2042
  676TIP3    H223520   1.646   5.755  13.683 -0.0269  1.8737 -1.0606
  677TIP3   OH223521   5.393   0.052  16.881  0.2058 -0.5517 -0.4805
  677TIP3    H123522   5.344   0.132  16.861 -1.1206 -1.1099  0.4185
  677TIP3    H223523   5.476   0.083  16.917  0.6658  0.4161 -2.3252
  678TIP3   OH223524   5.001   2.789   0.767  0.3199 -0.1333 -0.9903
  678TIP3    H123525   4.927   2.732   0.788 -1.1431  1.6931 -1.0132
  678TIP3    H223526   5.061   2.734   0.717 -1.8436 -1.1862 -2.5053
  679TIP3   OH223527   4.074   1.750   5.228 -0.2813 -0.2105 -0.2426
  679TIP3    H123528   3.983   1.779   5.221  0.7095  3.0157 -0.4245
  679TIP3    H223529   4.085   1.728   5.320 -1.1732 -0.3490 -0.1648
  680TIP3   OH223530   2.237   4.812  11.511 -0.4847  0.2729 -0.2751
  680TIP3    H123531   2.145   4.787  11.516 -0.7754  0.8051 -2.3873
  680TIP3    H223532   2.276   4.746  11.454  0.9271 -1.1765  2.2712
  681TIP3   OH223533   5.718   3.668  12.879 -0.1891 -0.5185 -0.4672
  681TIP3    H123534   5.639   3.717  12.902 -0.1796 -0.2729 -0.9623
  681TIP3    H223535   5.789   3.717  12.918 -0.3839 -1.4463  1.1124
  682TIP3   OH223536   1.125   2.613   3.180  0.0328  0.0265 -0.1510
  682TIP3    H123537   1.031   2.629   3.191  0.2431  0.6701  0.7291
  682TIP3    H223538   1.149   2.665   3.103  0.3451  2.6176  1.6352
  683TIP3   OH223539   3.862   2.554   3.278  0.0969 -0.0962 -0.3048
  683TIP3    H123540   3.768   2.538   3.281 -0.1564  1.4450  0.3610
  683TIP3    H223541   3.900   2.470   3.253 -1.4010 -0.9067  0.1103
  684TIP3   OH223542   2.253   3.788  15.095  0.5874  0.5817 -0.4988
  684TIP3    H123543   2.172   3.751  15.130  1.1956 -0.4264 -0.1282
  684TIP3    H223544   2.237   3.797  15.001 -0.2290  1.1369 -0.3131
  685TIP3   OH223545   4.146   6.656   4.485 -0.2079  0.2251 -0.0081
  685TIP3    H123546   4.184   6.744   4.484 -2.6915  1.3469  0.2545
  685TIP3    H223547   4.195   6.610   4.554  1.7160  1.0895 -0.7497
  686TIP3   OH223548   2.408   5.180  10.820 -0.5331  0.4746  0.2659
  686TIP3    H123549   2.461   5.192  10.742 -0.1038 -2.5083  0.0274
  686TIP3    H223550   2.328   5.138  10.788 -0.0874 -1.3508  1.4645
  687TIP3   OH223551   3.146   2.609   1.198 -0.4558  0.3472  0.7458
  687TIP3    H123552   3.056   2.596   1.227 -0.6027 -0.1940  0.0472
  687TIP3    H223553   3.166   2.532   1.145 -0.0091  1.0664 -0.1518
  688TIP3   OH223554   3.977   0.671  15.106  0.0197 -0.4432  0.1450
  688TIP3    H123555   3.965   0.601  15.042 -0.9733 -0.0707 -0.0806
  688TIP3    H223556   4.062   0.653  15.146  0.5465 -0.8089 -1.1234
  689TIP3   OH223557   2.201   0.658   1.179 -0.2751  0.3619 -0.1449
  689TIP3    H123558   2.200   0.582   1.238  1.4693  0.3490 -0.1156
  689TIP3    H223559   2.131   0.640   1.116 -0.2815 -0.9821  0.2339
  690TIP3   OH223560   3.707   0.075  11.726 -0.5077  0.3002 -0.1764
  690TIP3    H123561   3.738   0.151  11.676 -0.4601  0.5756  0.2650
  690TIP3    H223562   3.734   0.094  11.816 -1.6107  0.3606  0.1498
  691TIP3   OH223563   1.065   0.078  11.781 -0.2528  0.4037  0.0051
  691TIP3    H123564   1.095   0.008  11.723 -0.2152 -0.4861  1.0660
  691TIP3    H223565   0.988   0.114  11.737  0.2357  0.2835 -0.9734
  692TIP3   OH223566   1.265   5.573   5.281  0.4287 -0.7403  0.1948
  692TIP3    H123567   1.315   5.638   5.331  0.7646 -0.8367 -0.0108
  692TIP3    H223568   1.218   5.625   5.215  0.4945 -0.6787  0.1958
  693TIP3   OH223569   2.753   1.588  11.491  0.0069 -0.0706  0.1163
  693TIP3    H123570   2.805   1.627  11.421  1.2951 -0.6631  0.7235
  693TIP3    H223571   2.805   1.603  11.571  0.0886 -2.1684  0.4795
  694TIP3   OH223572   4.591   6.488   3.551  0.0895 -0.4218 -0.1679
  694TIP3    H123573   4.530   6.540   3.603  2.1738  1.0465  0.9034
  694TIP3    H223574   4.576   6.398   3.579 -1.5482 -0.0877  0.0871
  695TIP3   OH223575   4.094   2.020  12.402  0.3963  0.4969 -0.3748
  695TIP3    H123576   4.119   1.936  12.364 -0.2552  1.1277 -2.2901
  695TIP3    H223577   4.013   2.003  12.449  1.1300 -0.2802  0.6052
  696TIP3   OH223578   3.293   1.887   1.423 -0.0546 -0.1090  0.1421
  696TIP3    H123579   3.300   1.982   1.429 -0.7964 -0.0592  0.2662
  696TIP3    H223580   3.268   1.871   1.332 -1.3529 -0.0894  0.4809
  697TIP3   OH223581   4.396   6.085  11.368  0.1830  0.4536  0.0405
  697TIP3    H123582   4.371   6.027  11.439  0.8435 -0.3417 -0.3741
  697TIP3    H223583   4.432   6.163  11.411  0.1699  0.1636  0.5701
  698TIP3   OH223584   5.331   5.792  14.417  0.6473  0.4185  0.6142
  698TIP3    H123585   5.304   5.883  14.430  0.1705  1.0585 -3.9375
  698TIP3    H223586   5.422   5.798  14.389  0.1058 -0.2571 -1.4518
  699TIP3   OH223587   5.277   3.634   5.042 -0.2154 -0.5395 -0.5126
  699TIP3    H123588   5.222   3.713   5.044 -0.4034 -0.6844  0.0538
  699TIP3    H223589   5.244   3.580   5.113  0.1091 -1.0029 -0.7142
  700TIP3   OH223590   0.766   2.509   3.247 -0.1030  0.3503  0.1921
  700TIP3    H123591   0.789   2.587   3.197 -0.9076  0.2481 -0.3346
  700TIP3    H223592   0.685   2.477   3.207  0.9590 -1.5617 -0.4972
  701TIP3   OH223593   0.018   5.644  16.036 -0.1500  0.4690  0.0376
  701TIP3    H123594  -0.027   5.707  16.093 -1.0071 -0.3228  0.2524
  701TIP3    H223595   0.104   5.634  16.076 -0.4560  0.5509  0.7289
  702TIP3   OH223596   2.918   3.564  13.705 -0.4596  0.2901  0.4603
  702TIP3    H123597   2.888   3.630  13.642 -0.7791  0.8887  1.2382
  702TIP3    H223598   2.899   3.602  13.790  1.5319  0.2293  0.9500
  703TIP3   OH223599   6.142   3.098  16.459  0.4092 -0.0088  0.0898
  703TIP3    H123600   6.055   3.131  16.437 -0.3993 -2.2369 -0.1720
  703TIP3    H223601   6.166   3.145  16.539 -1.3617  0.0706  0.5915
  704TIP3   OH223602   1.210   3.934  14.565 -0.4191 -0.0604  0.3510
  704TIP3    H123603   1.148   3.891  14.506  0.4546 -0.8191 -0.0343
  704TIP3    H223604   1.175   3.917  14.653 -0.2285 -1.3504  0.1895
  705TIP3   OH223605   0.620   4.208  14.814  0.1410  0.8084 -0.3464
  705TIP3    H123606   0.673   4.169  14.883 -0.9995 -0.1341  0.0036
  705TIP3    H223607   0.678   4.271  14.772  1.5923 -0.3489 -0.0994
  706TIP3   OH223608   0.486   6.239  13.612 -0.0867 -0.4211 -0.4958
  706TIP3    H123609   0.465   6.333  13.619 -1.4834 -0.7803  0.2728
  706TIP3    H223610   0.418   6.204  13.555 -0.7295 -1.3328  0.8215
  707TIP3   OH223611   5.418   6.230  11.388 -0.0979  0.2138  0.2876
  707TIP3    H123612   5.384   6.141  11.378 -0.2286  0.4654 -1.5820
  707TIP3    H223613   5.392   6.275  11.308  1.1214  1.5664  0.6354
  708TIP3   OH223614   5.748   6.008  13.569  0.1117 -0.8766  0.0280
  708TIP3    H123615   5.769   5.916  13.581  0.8514 -0.9798 -1.9326
  708TIP3    H223616   5.822   6.044  13.520 -1.0992  0.2874 -0.9854
  709TIP3   OH223617   5.550   5.526   3.932  0.1275  0.2640 -0.6591
  709TIP3    H123618   5.467   5.502   3.891  0.0798  0.1745 -0.5098
  709TIP3    H223619   5.525   5.561   4.018  0.2657 -0.0129 -0.5084
  710TIP3   OH223620   6.353   6.011  13.730  0.0216  0.1118  0.8948
  710TIP3    H123621   6.407   5.932  13.723  0.5846  0.2642  3.2108
  710TIP3    H223622   6.289   6.003  13.659  1.0843 -1.6199  0.1041
  711TIP3   OH223623   0.733   2.481  13.689 -0.0434 -1.2204 -0.1493
  711TIP3    H123624   0.727   2.522  13.603  0.7737 -0.1867  0.2768
  711TIP3    H223625   0.761   2.391  13.672  1.1324 -0.7229 -0.8986
  712TIP3   OH223626   5.100   3.801  14.447 -0.2859  0.1040  0.0740
  712TIP3    H123627   5.114   3.893  14.468  0.8879  0.1202 -0.7264
  712TIP3    H223628   5.153   3.754  14.511 -0.4277  0.0065  0.1187
  713TIP3   OH223629   0.978   1.322   3.003 -0.1485  0.1769  0.1835
  713TIP3    H123630   1.006   1.288   3.088 -3.4852 -0.1785  1.2299
  713TIP3    H223631   0.981   1.245   2.945  2.2673  0.4517 -0.0937
  714TIP3   OH223632   3.000   6.657  14.754 -0.8737 -0.1269  0.1060
  714TIP3    H123633   3.060   6.583  14.738 -1.5415 -0.8177  0.7529
  714TIP3    H223634   3.046   6.733  14.718  0.3074 -0.6819  0.4177
  715TIP3   OH223635   5.256   2.109  12.167 -0.1668  0.0448  0.1364
  715TIP3    H123636   5.339   2.065  12.146 -0.0648  0.0559  0.5129
  715TIP3    H223637   5.279   2.201  12.177  0.1030 -0.2171  2.0623
  716TIP3   OH223638   2.035   1.212  12.524 -0.0868 -0.3511 -0.2235
  716TIP3    H123639   2.012   1.126  12.490  0.1004  0.2691 -1.9644
  716TIP3    H223640   2.081   1.194  12.606 -0.7896 -1.8629 -0.1494
  717TIP3   OH223641   4.877   4.261  13.493 -0.3182  0.0547  0.7331
  717TIP3    H123642   4.888   4.337  13.436 -0.4290  0.3446  1.0908
  717TIP3    H223643   4.951   4.204  13.472 -0.8465 -0.2522 -0.3243
  718TIP3   OH223644   6.710   5.519   6.092  0.3334 -0.0786 -0.1360
  718TIP3    H123645   6.789   5.510   6.145 -0.7617 -1.1095  1.3784
  718TIP3    H223646   6.639   5.527   6.156 -0.9923 -1.0619 -1.4436
  719TIP3   OH223647   5.633   4.654   1.942 -0.2688  0.5004  0.1110
  719TIP3    H123648   5.662   4.669   1.852  0.5351 -1.6399 -0.0152
  719TIP3    H223649   5.710   4.619   1.987 -1.1362 -0.0895  1.1791
  720TIP3   OH223650   2.796   1.045  12.102 -0.2329  0.5545  0.2453
  720TIP3    H123651   2.708   1.044  12.063 -1.6191  2.0315  3.2062
  720TIP3    H223652   2.844   1.110  12.051 -1.7723  1.9136  0.5287
  721TIP3   OH223653   4.329   1.986   0.201  0.0533  0.5820  0.1143
  721TIP3    H123654   4.423   1.979   0.217 -0.0882  0.4534  0.8983
  721TIP3    H223655   4.296   2.036   0.276 -0.5105  0.5994 -0.1442
  722TIP3   OH223656   2.223   6.492   1.031  0.4889  0.4657 -0.0520
  722TIP3    H123657   2.161   6.533   1.091 -0.3491  3.0656 -2.6056
  722TIP3    H223658   2.227   6.551   0.956  1.9115 -2.4008 -2.3437
  723TIP3   OH223659   1.656   4.164  14.818 -0.1537 -0.0579 -0.3151
  723TIP3    H123660   1.599   4.216  14.874  0.1743  0.8180 -0.7883
  723TIP3    H223661   1.625   4.074  14.830  0.1971  0.0536  1.5818
  724TIP3   OH223662   1.954   0.723   5.750  0.0583  0.3939  0.0896
  724TIP3    H123663   1.953   0.727   5.845  0.3856  0.5793  0.0844
  724TIP3    H223664   1.993   0.806   5.723 -1.0789  0.8425 -0.2326
  725TIP3   OH223665   6.131   3.221   4.916 -0.3288  0.1133 -0.4622
  725TIP3    H123666   6.087   3.178   4.842 -0.2541  0.9082 -0.9704
  725TIP3    H223667   6.195   3.156   4.946  0.1052  0.0382 -1.5236
  726TIP3   OH223668   4.749   1.456   0.347 -0.1046  0.1899  0.4506
  726TIP3    H123669   4.750   1.515   0.272 -3.6402 -0.1588  0.0501
  726TIP3    H223670   4.813   1.388   0.324 -1.0226  0.1658 -2.2075
  727TIP3   OH223671   0.299   2.851  11.250 -0.6862 -0.1449  0.2021
  727TIP3    H123672   0.289   2.788  11.321 -0.1515 -0.1633  0.2619
  727TIP3    H223673   0.380   2.898  11.270 -0.6027 -0.0583 -0.3215
  728TIP3   OH223674   5.038   6.575  12.927 -0.6103  0.0868 -0.1690
  728TIP3    H123675   4.954   6.580  12.880  0.2453 -0.4088 -1.8024
  728TIP3    H223676   5.091   6.515  12.875  0.3269 -0.6061  1.5620
  729TIP3   OH223677   3.420   0.216   3.905 -0.2964 -0.2376  0.2039
  729TIP3    H123678   3.486   0.258   3.850  0.1140 -1.4659 -0.2584
  729TIP3    H223679   3.405   0.131   3.864 -3.9302  0.9351 -1.1133
  730TIP3   OH223680   1.088   2.188   3.416  0.7484  0.8161 -0.5875
  730TIP3    H123681   0.995   2.209   3.412 -0.0620 -2.7006 -1.4174
  730TIP3    H223682   1.102   2.164   3.508  1.1504  2.5764 -0.1737
  731TIP3   OH223683   1.526   6.763   5.437  1.5070 -0.0167 -0.0289
  731TIP3    H123684   1.467   6.788   5.509  1.5097 -1.3965  0.4589
  731TIP3    H223685   1.589   6.835   5.432  0.5525  0.8490  0.3067
  732TIP3   OH223686   0.107   5.604   0.543  0.6575 -0.0733 -0.1862
  732TIP3    H123687   0.108   5.657   0.623 -4.1234  1.0203 -0.7263
  732TIP3    H223688   0.090   5.514   0.574  0.8620  0.0110  0.1727
  733TIP3   OH223689   6.228   6.238  15.708 -0.1781 -0.6376 -0.5265
  733TIP3    H123690   6.304   6.241  15.766 -1.1346 -0.1515  0.7241
  733TIP3    H223691   6.262   6.264  15.622  0.8692  0.5837  0.2407
  734TIP3   OH223692   4.504   5.748  13.735  0.2219  0.2813 -0.2066
  734TIP3    H123693   4.532   5.656  13.729  1.2594  0.4890  1.2313
  734TIP3    H223694   4.425   5.746  13.788  1.1181  0.3658  1.1607
  735TIP3   OH223695   4.995   0.161   4.386 -0.3652 -0.3485  0.7669
  735TIP3    H123696   4.938   0.237   4.379 -1.3175 -1.0273  0.9231
  735TIP3    H223697   4.981   0.129   4.475 -1.7437 -2.0480 -0.0189
  736TIP3   OH223698   2.491   0.807  15.928  0.1551 -0.5106 -0.8812
  736TIP3    H123699   2.498   0.849  15.843 -0.2343  1.9465  0.2502
  736TIP3    H223700   2.403   0.829  15.959  0.8570 -0.0058  0.8274
  737TIP3   OH223701   2.178   5.713  15.700  0.2953 -0.1243  0.3472
  737TIP3    H123702   2.140   5.695  15.786  0.9464  0.1510  0.6928
  737TIP3    H223703   2.226   5.795  15.712  0.0319  0.1416 -0.3885
  738TIP3   OH223704   4.736   2.572  16.067  0.1744 -0.0466 -0.3769
  738TIP3    H123705   4.648   2.551  16.034  0.1058  3.9120 -3.0594
  738TIP3    H223706   4.723   2.647  16.124  1.6967 -0.2176  0.2109
  739TIP3   OH223707   2.282   6.518   1.397  0.2234 -0.3254 -0.4084
  739TIP3    H123708   2.197   6.562   1.394  0.2230 -0.3999 -2.4951
  739TIP3    H223709   2.339   6.575   1.345  1.3826 -0.4227  0.7462
  740TIP3   OH223710   1.172   2.456  14.567  0.2988 -0.1143  0.2074
  740TIP3    H123711   1.124   2.479  14.647 -0.4357 -0.0720 -0.2445
  740TIP3    H223712   1.238   2.393  14.597 -0.1830 -0.3522  0.7917
  741TIP3   OH223713   2.423   6.100  13.211 -0.3469 -0.1210 -0.4544
  741TIP3    H123714   2.364   6.154  13.157  1.7358  0.4328 -2.2639
  741TIP3    H223715   2.504   6.151  13.215 -0.2567 -0.3988  2.8425
  742TIP3   OH223716   2.874   1.084  13.647 -0.1120 -0.4796  0.1494
  742TIP3    H123717   2.865   0.989  13.660 -2.2357 -0.3242 -0.1324
  742TIP3    H223718   2.895   1.094  13.555 -1.3466 -0.6006 -0.1524
  743TIP3   OH223719   4.760   3.260  14.436  0.0901 -0.1797  0.4552
  743TIP3    H123720   4.835   3.212  14.472  1.6213  0.9827 -1.0973
  743TIP3    H223721   4.713   3.292  14.513  1.3999 -0.5824  1.4481
  744TIP3   OH223722   3.159   0.468  11.600 -0.1110 -0.0191 -0.6609
  744TIP3    H123723   3.092   0.500  11.660  1.0542 -0.1654  0.7193
  744TIP3    H223724   3.138   0.375  11.588  0.0378 -0.1459  0.0394
  745TIP3   OH223725   3.956   4.737   3.253  0.8849 -0.1493 -0.3401
  745TIP3    H123726   3.992   4.791   3.323  1.4179 -1.1343  0.1440
  745TIP3    H223727   3.968   4.790   3.174  0.3328  0.9421  0.2924
  746TIP3   OH223728   0.621   6.025   4.170  0.4259 -0.0688 -0.0188
  746TIP3    H123729   0.620   5.989   4.082  0.2167  0.8397 -0.3995
  746TIP3    H223730   0.589   5.954   4.226  1.7243 -1.0483 -0.5126
  747TIP3   OH223731   4.270   1.321   5.455  0.3629 -0.1042  0.0043
  747TIP3    H123732   4.331   1.258   5.493  0.0556 -0.4143 -0.0114
  747TIP3    H223733   4.202   1.331   5.521 -0.9862 -1.8157 -1.0808
  748TIP3   OH223734   2.312   6.322  10.515 -0.5349  0.3966  0.2319
  748TIP3    H123735   2.257   6.302  10.591  2.2754  1.1804  2.5267
  748TIP3    H223736   2.328   6.416  10.521  0.3188  0.3308 -0.9426
  749TIP3   OH223737   3.392   3.070  16.565  0.3178 -0.0524  0.3352
  749TIP3    H123738   3.487   3.077  16.553  0.1884  0.1071 -0.7200
  749TIP3    H223739   3.367   2.997  16.509 -0.2267  0.1401  0.3268
  750TIP3   OH223740   0.788   3.865   0.106 -1.3426  0.0249  0.2196
  750TIP3    H123741   0.738   3.806   0.163 -0.0826  1.2874  2.7124
  750TIP3    H223742   0.777   3.951   0.145  2.0202  0.4670  0.2928
  751TIP3   OH223743   2.947   1.424  14.023  0.5014 -0.1313 -0.4590
  751TIP3    H123744   2.870   1.406  14.076  0.6890  0.1090 -0.1051
  751TIP3    H223745   2.913   1.435  13.934  0.1098  0.1145 -0.2804
  752TIP3   OH223746   1.623   1.322  17.270  0.5804 -0.5128  0.3608
  752TIP3    H123747   1.529   1.318  17.285  0.1556  0.8814 -1.7843
  752TIP3    H223748   1.645   1.236  17.233 -0.1138 -0.2741 -0.5997
  753TIP3   OH223749   0.496   2.520   3.109  0.1666  0.0644  0.0593
  753TIP3    H123750   0.486   2.430   3.077  0.1545  0.7654 -1.9453
  753TIP3    H223751   0.408   2.556   3.106 -0.1160 -0.3480  2.4467
  754TIP3   OH223752   1.132   4.074   1.676 -0.5314 -0.0286 -0.0346
  754TIP3    H123753   1.188   4.038   1.745 -0.4154  1.6337  0.7722
  754TIP3    H223754   1.169   4.160   1.658 -2.6825  1.0194  0.3872
  755TIP3   OH223755   4.670   1.477   0.610 -0.5874 -0.2174 -0.0680
  755TIP3    H123756   4.706   1.463   0.523 -0.9747 -1.3067 -0.0676
  755TIP3    H223757   4.688   1.568   0.630 -1.1220  0.2287 -1.5803
  756TIP3   OH223758   4.144   0.054   0.585  0.9658  0.2739  0.1769
  756TIP3    H123759   4.057   0.088   0.606  0.2953  0.5201 -2.8805
  756TIP3    H223760   4.138  -0.040   0.602 -0.2923  0.0888 -1.2625
  757TIP3   OH223761   4.410   5.742   0.908  0.1856 -0.4187  0.3072
  757TIP3    H123762   4.340   5.702   0.855 -0.6423  1.9614 -0.4492
  757TIP3    H223763   4.488   5.690   0.887 -0.5863 -0.8602 -1.6207
  758TIP3   OH223764   2.134   2.584  13.364  0.0811 -0.0559  0.4842
  758TIP3    H123765   2.093   2.662  13.328 -0.1096  0.1063  1.0667
  758TIP3    H223766   2.065   2.518  13.364  0.2325 -0.2166  0.0279
  759TIP3   OH223767   1.783   6.691  13.612  0.5949 -0.0944 -0.4961
  759TIP3    H123768   1.817   6.779  13.595 -2.4951  1.0650 -1.0214
  759TIP3    H223769   1.780   6.685  13.707 -0.1355  0.7697 -0.4569
  760TIP3   OH223770   5.320   4.046   1.521  0.2426 -0.0408  0.0351
  760TIP3    H123771   5.300   4.014   1.433 -0.9891 -2.5477  1.1665
  760TIP3    H223772   5.374   4.123   1.507  1.0982 -1.1080 -2.8955
  761TIP3   OH223773   1.712   5.714  12.758  0.6616  0.3889 -0.1858
  761TIP3    H123774   1.623   5.678  12.760  0.9555 -0.2816  1.7038
  761TIP3    H223775   1.765   5.644  12.718  0.3223  0.8716 -1.5101
  762TIP3   OH223776   0.786   0.993   5.416 -0.6634 -0.3455 -0.3334
  762TIP3    H123777   0.753   1.082   5.407  0.0618 -0.1377 -0.9885
  762TIP3    H223778   0.757   0.965   5.503 -0.0173  0.8992  0.2960
  763TIP3   OH223779   6.211   4.423  12.079 -0.0522  0.7110 -0.0193
  763TIP3    H123780   6.222   4.415  11.984 -0.1272  1.5772 -0.1088
  763TIP3    H223781   6.119   4.401  12.094 -0.1510  0.9812 -0.2068
  764TIP3   OH223782   5.258   1.821  15.581 -0.5977  0.1502 -0.1844
  764TIP3    H123783   5.224   1.742  15.622 -0.9812 -0.0464 -0.8769
  764TIP3    H223784   5.251   1.805  15.487 -1.7725  1.4530 -0.3497
  765TIP3   OH223785   4.749   3.542  13.509 -0.3810  0.0056  0.0276
  765TIP3    H123786   4.772   3.526  13.600 -0.6521 -1.3633 -0.1215
  765TIP3    H223787   4.653   3.548  13.509 -0.3973 -0.2262 -0.1914
  766TIP3   OH223788   4.701   5.116  16.225 -0.0308 -0.2058  0.1454
  766TIP3    H123789   4.702   5.179  16.296  0.2953 -0.3677  0.2868
  766TIP3    H223790   4.640   5.048  16.253  0.2203 -0.3514  0.3421
  767TIP3   OH223791   0.873   0.958   4.852  0.2015  0.6142  0.8942
  767TIP3    H123792   0.925   1.038   4.861  0.0919  0.7998 -0.0975
  767TIP3    H223793   0.899   0.905   4.927  2.5109  0.2979 -0.0818
  768TIP3   OH223794   1.922   4.037   4.339  0.4821  0.3658 -0.4939
  768TIP3    H123795   2.014   4.051   4.317  0.7498  1.1682  1.0614
  768TIP3    H223796   1.899   3.955   4.294  1.7346  0.5464 -1.4945
  769TIP3   OH223797   2.345   5.193  12.773 -0.1627  0.0959 -0.6022
  769TIP3    H123798   2.293   5.131  12.824 -1.1127  1.9786  0.7857
  769TIP3    H223799   2.296   5.203  12.692  1.9529 -3.8018 -2.5039
  770TIP3   OH223800   5.964   2.482  15.509  0.1275  0.0045 -0.2386
  770TIP3    H123801   5.987   2.546  15.441  0.6802 -1.4431 -1.4437
  770TIP3    H223802   5.869   2.488  15.516 -0.2838 -1.8148 -3.2182
  771TIP3   OH223803   0.873   3.742  17.000  0.4238  0.1971  0.6434
  771TIP3    H123804   0.910   3.748  17.088  2.0509 -0.1221 -0.0209
  771TIP3    H223805   0.799   3.683  17.009  0.2144  0.6370  1.9173
  772TIP3   OH223806   2.029   4.140   1.048  0.0561 -0.0545  0.6004
  772TIP3    H123807   1.940   4.169   1.031 -0.1119 -1.6313 -1.5311
  772TIP3    H223808   2.043   4.155   1.141 -2.3233  0.4863  0.8895
  773TIP3   OH223809   3.283   3.451   5.837 -0.6668  0.0352  0.1067
  773TIP3    H123810   3.275   3.356   5.832 -0.7512 -0.0038  0.8936
  773TIP3    H223811   3.280   3.470   5.931  2.0497  0.5563  0.1394
  774TIP3   OH223812   0.605   3.684  16.591 -0.2122  0.2041  0.0323
  774TIP3    H123813   0.645   3.743  16.528  0.7814  1.3324  1.6724
  774TIP3    H223814   0.562   3.742  16.654 -2.1703 -0.9273 -0.2215
  775TIP3   OH223815   5.227   5.677  17.195 -0.8068 -0.4532  0.2528
  775TIP3    H123816   5.168   5.737  17.241 -0.2831 -0.3266  0.7744
  775TIP3    H223817   5.313   5.697  17.231 -0.4513 -0.6637 -0.4699
  776TIP3   OH223818   4.864   6.627   1.453 -0.1974  0.2197 -0.0019
  776TIP3    H123819   4.803   6.614   1.381 -0.1088  0.1957 -0.0724
  776TIP3    H223820   4.946   6.654   1.411 -0.1113  0.0864  0.0800
  777TIP3   OH223821   5.089   3.524   4.009  0.1930  0.1162  0.0892
  777TIP3    H123822   5.003   3.493   4.038  0.2960 -0.0868  0.1736
  777TIP3    H223823   5.083   3.620   4.017  0.1985  0.0667  0.7317
  778TIP3   OH223824   3.795   5.018  12.241 -0.3365  0.4713 -0.0808
  778TIP3    H123825   3.735   4.944  12.232  1.3870 -0.9460 -0.2596
  778TIP3    H223826   3.775   5.075  12.166 -1.1190 -0.2153 -0.3957
  779TIP3   OH223827   2.631   0.857  16.669  0.5245 -0.2097  0.4319
  779TIP3    H123828   2.591   0.826  16.588 -0.6362  2.2636  0.0332
  779TIP3    H223829   2.645   0.777  16.720 -1.4077 -1.5236 -1.0014
  780TIP3   OH223830   1.877   2.887  11.435  0.1271  0.1756  0.2888
  780TIP3    H123831   1.885   2.819  11.368 -0.4086 -0.3539  0.7554
  780TIP3    H223832   1.967   2.914  11.453  0.3964 -0.9253  0.6220
  781TIP3   OH223833   4.974   4.276   5.459 -0.4403  0.4373 -0.1773
  781TIP3    H123834   4.937   4.283   5.547  0.8722  2.6422  0.2634
  781TIP3    H223835   4.899   4.275   5.400 -1.2767  0.8057  0.8832
  782TIP3   OH223836   6.803   6.641   4.225 -0.0456  0.3518  0.1542
  782TIP3    H123837   6.892   6.675   4.214  0.5202 -0.5892  1.6594
  782TIP3    H223838   6.746   6.710   4.190  1.2736  0.8614 -1.0297
  783TIP3   OH223839   2.063   2.365   5.619 -0.0680  0.6128 -0.6774
  783TIP3    H123840   2.133   2.428   5.601 -1.2769  2.2662  0.2118
  783TIP3    H223841   2.075   2.296   5.555  1.2877  1.7745 -1.7025
  784TIP3   OH223842   0.899   5.334   3.566  0.2754 -0.5638 -0.3863
  784TIP3    H123843   0.953   5.411   3.584 -0.1338 -0.6276  1.1948
  784TIP3    H223844   0.834   5.364   3.502  1.0843 -0.0217 -0.9586
  785TIP3   OH223845   3.977   2.801  16.575  0.1838  0.2010  0.0982
  785TIP3    H123846   4.069   2.804  16.549 -0.5586  2.0925 -2.5109
  785TIP3    H223847   3.933   2.757  16.502 -1.0369 -0.4998  1.2276
  786TIP3   OH223848   4.959   2.561  12.753  0.7064 -0.1953 -0.4410
  786TIP3    H123849   4.932   2.550  12.662 -0.8076 -0.1480 -0.0081
  786TIP3    H223850   4.968   2.472  12.787 -2.2912 -0.2419  0.3708
  787TIP3   OH223851   2.535   6.151  16.973  0.1766 -0.2967  0.3314
  787TIP3    H123852   2.498   6.224  17.023  0.0869  0.3966 -0.7469
  787TIP3    H223853   2.526   6.076  17.032  1.8111  0.8531  2.1159
  788TIP3   OH223854   0.028   6.724  11.976  0.0703  0.2367  0.3606
  788TIP3    H123855  -0.013   6.756  11.896 -0.9763  0.5447  1.0194
  788TIP3    H223856   0.121   6.745  11.965  0.3029 -1.6151 -1.7044
  789TIP3   OH223857   2.757   6.309   2.367  0.4465 -0.1868 -0.5788
  789TIP3    H123858   2.841   6.281   2.333  1.4954  3.9535 -1.6436
  789TIP3    H223859   2.778   6.375   2.433 -1.9319  1.6624 -1.5727
  790TIP3   OH223860   1.614   2.136  11.681  0.7567  0.6761  0.4467
  790TIP3    H123861   1.660   2.167  11.603  0.4852  0.1412  0.0805
  790TIP3    H223862   1.589   2.217  11.727 -0.4958  1.0343 -0.8218
  791TIP3   OH223863   1.844   2.734  15.354 -0.1138 -0.1906  0.2121
  791TIP3    H123864   1.913   2.681  15.394 -0.6832 -0.2828  1.1025
  791TIP3    H223865   1.837   2.701  15.265 -0.1403 -1.3174  0.6142
  792TIP3   OH223866   5.409   0.410   0.744  0.1006  0.0964  0.1301
  792TIP3    H123867   5.445   0.437   0.828  2.0912  1.1531 -1.0015
  792TIP3    H223868   5.427   0.484   0.686 -0.7356 -0.8331 -1.3408
  793TIP3   OH223869   6.483   3.126  11.427  0.5093 -0.3636  0.1408
  793TIP3    H123870   6.433   3.118  11.345  2.5231 -3.2546 -0.8628
  793TIP3    H223871   6.486   3.037  11.462  3.5020  0.0454  1.0406
  794TIP3   OH223872   6.613   6.013  15.825 -0.0326 -0.6410 -0.1156
  794TIP3    H123873   6.620   5.942  15.889  0.3395 -2.0537 -1.6975
  794TIP3    H223874   6.700   6.019  15.786  0.4276  1.8555  1.1704
  795TIP3   OH223875   4.241   1.335  14.229  0.5065 -0.4359 -0.0050
  795TIP3    H123876   4.162   1.315  14.280  0.6928  2.2282  1.4223
  795TIP3    H223877   4.208   1.354  14.141 -0.1034 -2.2938 -0.2056
  796TIP3   OH223878   6.786   1.786  11.020 -0.1259 -0.4665 -0.5436
  796TIP3    H123879   6.851   1.749  11.080  0.1005  0.4188 -0.2297
  796TIP3    H223880   6.707   1.734  11.035 -0.4265  0.5091  1.4110
  797TIP3   OH223881   1.928   2.600  14.831  0.1270 -0.3478 -0.2617
  797TIP3    H123882   1.993   2.667  14.851  0.1724 -0.7654  1.0266
  797TIP3    H223883   1.979   2.518  14.826  0.2150 -0.1972 -2.7166
  798TIP3   OH223884   5.636   3.221  13.898  0.0628  0.0801  0.1817
  798TIP3    H123885   5.712   3.253  13.849 -0.8245  0.7666 -0.7742
  798TIP3    H223886   5.673   3.166  13.967  1.3908 -0.1868 -0.7291
  799TIP3   OH223887   3.401   5.220  14.046  0.1826  0.7262 -0.3335
  799TIP3    H123888   3.359   5.301  14.017 -0.4459  0.5492  0.0702
  799TIP3    H223889   3.491   5.246  14.067 -0.4671  1.6684  1.3924
  800TIP3   OH223890   2.403   0.172   0.710 -0.1239  0.1326  0.0042
  800TIP3    H123891   2.357   0.116   0.647 -1.8068  0.2690  1.0777
  800TIP3    H223892   2.351   0.166   0.790  1.5131  0.6372  1.1444
  801TIP3   OH223893   4.618   0.891   5.000 -0.4467  0.3954 -0.2847
  801TIP3    H123894   4.591   0.817   5.055 -1.0190 -0.1148 -1.2483
  801TIP3    H223895   4.538   0.942   4.987 -0.0650  1.1836  0.3390
  802TIP3   OH223896   3.844   0.046   3.660  0.9168 -0.0809  0.2709
  802TIP3    H123897   3.769  -0.007   3.633  1.6265 -0.6764 -0.5666
  802TIP3    H223898   3.907  -0.018   3.694  0.7683  0.4846  1.6377
  803TIP3   OH223899   6.809   4.895   5.434 -0.4480  0.5840 -0.5797
  803TIP3    H123900   6.904   4.909   5.436 -0.2946 -0.2766 -1.5810
  803TIP3    H223901   6.781   4.909   5.524  0.9645 -1.3335  0.1980
  804TIP3   OH223902   2.558   6.597  16.566 -0.1831  0.0995 -0.4142
  804TIP3    H123903   2.571   6.584  16.472 -2.8148  1.7353 -1.0627
  804TIP3    H223904   2.647   6.601  16.602  0.8610 -1.9248 -2.5925
  805TIP3   OH223905   2.000   2.827   2.483 -0.5158 -0.2310  0.5032
  805TIP3    H123906   1.959   2.913   2.488 -1.7006 -0.7981  0.6874
  805TIP3    H223907   2.061   2.825   2.556 -0.3080  0.5306  0.3636
  806TIP3   OH223908   4.386   1.847   5.375 -0.4238  0.0290  0.1531
  806TIP3    H123909   4.300   1.889   5.384 -0.0442  2.0269 -4.2493
  806TIP3    H223910   4.448   1.920   5.381  0.8117 -1.0772  0.8713
  807TIP3   OH223911   5.646   1.505   0.290 -0.2691 -0.3174 -0.4624
  807TIP3    H123912   5.624   1.430   0.234 -0.6907  1.4431 -2.7023
  807TIP3    H223913   5.576   1.568   0.274  1.4411  1.6081 -0.5454
  808TIP3   OH223914   4.226   0.371  10.834  0.5849  0.2785  0.0864
  808TIP3    H123915   4.308   0.379  10.883  0.3119 -1.3017  0.8531
  808TIP3    H223916   4.221   0.278  10.810 -1.6043  0.0738  1.1860
  809TIP3   OH223917   1.324   1.453  13.218 -0.6317  0.1618 -0.0867
  809TIP3    H123918   1.277   1.412  13.145  0.7196  1.3573 -1.6596
  809TIP3    H223919   1.257   1.505  13.263 -1.7085 -1.4210  0.2113
  810TIP3   OH223920   5.228   2.441   1.046 -0.3716  0.3881 -0.0255
  810TIP3    H123921   5.254   2.367   1.100 -1.2551  0.4932  0.5411
  810TIP3    H223922   5.161   2.487   1.097 -0.4666  1.0779 -0.7519
  811TIP3   OH223923   6.622   1.072  16.564  0.2156 -0.0180  0.6418
  811TIP3    H123924   6.669   1.150  16.534 -0.1244  0.0911  0.3899
  811TIP3    H223925   6.531   1.089  16.541  0.5023 -1.6481 -1.8283
  812TIP3   OH223926   5.963   5.256   1.386 -0.6374  0.4853 -0.1617
  812TIP3    H123927   6.010   5.243   1.469 -0.4636 -1.4195 -0.5476
  812TIP3    H223928   5.873   5.273   1.412 -0.3052  1.2955  0.4753
  813TIP3   OH223929   4.490   6.264   6.172 -0.4503 -0.4380  0.4617
  813TIP3    H123930   4.412   6.211   6.160 -0.4073  0.2043 -3.0668
  813TIP3    H223931   4.559   6.201   6.193 -0.7949 -1.5761 -1.7580
  814TIP3   OH223932   0.311   4.168   2.033 -0.1127  0.2853  0.5304
  814TIP3    H123933   0.367   4.141   1.960  2.9230 -0.1970  2.9359
  814TIP3    H223934   0.293   4.261   2.015  2.8291  0.8963  0.4861
  815TIP3   OH223935   1.077   2.387   0.977  0.1034 -0.0425  0.0175
  815TIP3    H123936   1.115   2.303   0.952  0.3318  0.0997 -0.1122
  815TIP3    H223937   1.112   2.404   1.065  1.3348  0.6849 -0.5988
  816TIP3   OH223938   3.063   3.258   4.805  0.1062  0.1919  0.4153
  816TIP3    H123939   3.144   3.307   4.794  0.5969 -0.1220  2.4197
  816TIP3    H223940   2.994   3.325   4.800  0.6173  0.7431  0.6470
  817TIP3   OH223941   3.865   5.995   4.144  0.4633 -0.1666  0.0277
  817TIP3    H123942   3.897   5.936   4.213  2.2737 -0.1062 -0.7326
  817TIP3    H223943   3.940   6.052   4.125 -0.8672  1.5713 -0.1313
  818TIP3   OH223944   6.124   4.166   3.066  0.0887  0.5845 -0.1538
  818TIP3    H123945   6.219   4.160   3.076  0.1383  1.7675  0.2353
  818TIP3    H223946   6.106   4.260   3.069 -1.3047  0.2798  1.7307
  819TIP3   OH223947   2.481   5.399  12.155  0.0657 -0.2385  0.5892
  819TIP3    H123948   2.465   5.401  12.249 -0.4739 -2.1873  0.5550
  819TIP3    H223949   2.546   5.330  12.142 -2.2058 -2.1797 -0.7792
  820TIP3   OH223950   5.418   4.074   2.581 -0.1453  0.2697 -0.4262
  820TIP3    H123951   5.467   4.038   2.507  0.1945  0.5455 -0.3343
  820TIP3    H223952   5.436   4.168   2.579  1.1309  0.0758  0.9353
  821TIP3   OH223953   3.103   1.441   0.426  0.0669 -0.1787 -0.1949
  821TIP3    H123954   3.114   1.492   0.506 -0.4808  0.9379 -0.8181
  821TIP3    H223955   3.042   1.371   0.451  1.3632 -0.9600  0.8441
  822TIP3   OH223956   3.458   4.393   5.684  0.1956  0.4850  0.0881
  822TIP3    H123957   3.466   4.419   5.592  0.0227 -0.2399 -0.1354
  822TIP3    H223958   3.434   4.474   5.730  1.2201  1.0572 -0.3582
  823TIP3   OH223959   3.137   2.835  11.879 -0.6350 -0.1127  0.0903
  823TIP3    H123960   3.162   2.743  11.872 -1.1624 -0.3435  1.1695
  823TIP3    H223961   3.127   2.851  11.973  1.5342  1.6048  0.0749
  824TIP3   OH223962   5.024   3.319   1.153 -0.2735 -0.0360 -0.0170
  824TIP3    H123963   5.018   3.292   1.061 -0.1984 -0.9901  0.2525
  824TIP3    H223964   4.957   3.387   1.162 -0.3823 -0.0367 -0.7419
  825TIP3   OH223965   0.202   2.477  13.185  0.0609  0.2535 -0.1154
  825TIP3    H123966   0.270   2.454  13.248  0.6329  0.5142 -0.6395
  825TIP3    H223967   0.127   2.504  13.239  0.6793  0.8490  0.4495
  826TIP3   OH223968   3.090   5.719   0.602 -0.3506  0.2273  0.1400
  826TIP3    H123969   3.116   5.655   0.536 -0.4620 -0.5516  0.8425
  826TIP3    H223970   3.047   5.667   0.670  0.8190  0.8691  1.3898
  827TIP3   OH223971   4.841   5.751  11.634  0.0893  0.4417  0.3277
  827TIP3    H123972   4.768   5.693  11.612 -1.8076  2.2388  1.6517
  827TIP3    H223973   4.896   5.700  11.693  0.0251 -0.9927 -0.8192
  828TIP3   OH223974   4.753   3.190  14.168 -0.7085 -0.0388 -0.7757
  828TIP3    H123975   4.662   3.189  14.138 -1.3506  0.1943  1.0552
  828TIP3    H223976   4.746   3.208  14.262  1.2114 -0.5762 -0.5202
  829TIP3   OH223977   1.349   0.049  12.576 -0.2450 -0.3616  0.3106
  829TIP3    H123978   1.292   0.108  12.526  0.4456  1.2713  1.4089
  829TIP3    H223979   1.312   0.050  12.665  2.0247  1.4713  1.2725
  830TIP3   OH223980   4.990   6.764  15.224 -0.0877 -0.6457 -0.1929
  830TIP3    H123981   5.035   6.722  15.150  1.2569  1.2409 -0.4992
  830TIP3    H223982   5.040   6.737  15.301 -1.3147 -2.3774  0.0208
  831TIP3   OH223983   6.696   2.622   2.705  0.0056 -0.5479  0.3604
  831TIP3    H123984   6.753   2.606   2.780 -1.7525 -1.1271  1.6235
  831TIP3    H223985   6.685   2.717   2.703  0.0435 -0.5296  0.8602
  832TIP3   OH223986   2.238   4.264  14.354  0.2412  0.0385 -0.2774
  832TIP3    H123987   2.319   4.314  14.364  1.0254 -1.5713  1.8670
  832TIP3    H223988   2.195   4.302  14.277  2.1947  2.0465 -0.4188
  833TIP3   OH223989   6.499   4.019  12.673 -0.1866 -0.1856  0.0877
  833TIP3    H123990   6.559   4.032  12.599 -0.6809 -0.9135 -0.4509
  833TIP3    H223991   6.549   4.045  12.750 -0.0134  1.6183 -0.6039
  834TIP3   OH223992   0.761   0.987  16.212  0.7636  0.2970 -0.4046
  834TIP3    H123993   0.796   1.069  16.247  0.1412  0.6125 -0.5201
  834TIP3    H223994   0.667   1.002  16.207  0.7721 -0.0154 -1.5044
  835TIP3   OH223995   2.039   3.868   0.098  0.0990  0.2468 -0.4663
  835TIP3    H123996   2.088   3.941   0.059 -1.0163  0.7203 -0.9794
  835TIP3    H223997   1.971   3.848   0.035  1.3119 -2.2737 -1.0285
  836TIP3   OH223998   2.176   1.664  13.282  0.1059  0.2158 -0.7009
  836TIP3    H123999   2.215   1.584  13.319  0.2721  0.3788 -0.5226
  836TIP3    H224000   2.251   1.713  13.248  0.1777  1.0654  0.6695
  837TIP3   OH224001   1.049   0.445   4.874 -0.1274  0.2124  0.4684
  837TIP3    H124002   1.062   0.377   4.941 -1.5150 -0.0090  0.5240
  837TIP3    H224003   0.986   0.407   4.813  0.0376  0.9784 -0.1924
  838TIP3   OH224004   0.359   6.082   3.017  0.2238 -0.6975  0.6352
  838TIP3    H124005   0.327   6.056   2.931  0.5474  0.9328 -0.0091
  838TIP3    H224006   0.291   6.140   3.051  1.8570  1.8676 -0.2635
  839TIP3   OH224007   2.398   6.815   4.739 -0.1423  0.2781  0.0055
  839TIP3    H124008   2.333   6.746   4.726 -2.6563  2.8249 -1.4173
  839TIP3    H224009   2.397   6.866   4.658 -1.2336  4.3089  2.4004
  840TIP3   OH224010   5.138   4.406  16.463  0.4766 -0.5904 -0.6127
  840TIP3    H124011   5.199   4.473  16.435  0.6299 -0.0603  0.9620
  840TIP3    H224012   5.174   4.373  16.545  0.1904 -2.3222 -1.1485
  841TIP3   OH224013   5.803   1.710  11.510 -0.4474  0.1854  0.4731
  841TIP3    H124014   5.786   1.661  11.590  1.2627 -0.0121  0.7224
  841TIP3    H224015   5.736   1.679  11.449 -0.0925 -1.6550  0.9863
  842TIP3   OH224016   1.717   5.014   2.833 -0.2651 -0.4990 -0.3732
  842TIP3    H124017   1.760   5.094   2.863 -0.9783  0.2313 -1.2437
  842TIP3    H224018   1.784   4.969   2.781  0.4206 -0.9199  0.8603
  843TIP3   OH224019   3.393   0.490  16.149  0.4044 -0.3935 -0.0988
  843TIP3    H124020   3.440   0.564  16.110  0.4679 -1.1152 -1.4454
  843TIP3    H224021   3.329   0.466  16.082 -1.3718  0.0749  1.3860
  844TIP3   OH224022   0.811   3.470  11.830 -0.3690  0.3438 -0.5313
  844TIP3    H124023   0.876   3.477  11.900 -0.5800 -0.7440 -0.2307
  844TIP3    H224024   0.841   3.532  11.763  0.3245  0.7158  0.1234
  845TIP3   OH224025   5.705   5.787  11.826 -0.1966 -0.1440 -0.4131
  845TIP3    H124026   5.724   5.869  11.780 -2.0207 -0.2231 -1.3722
  845TIP3    H224027   5.773   5.781  11.893  1.4550  0.8822 -1.9420
  846TIP3   OH224028   6.805   3.863  11.357  0.1757 -0.1853  0.5783
  846TIP3    H124029   6.855   3.858  11.275  0.9586  0.3730  1.0187
  846TIP3    H224030   6.830   3.784  11.405  0.8671  0.2317  0.9191
  847TIP3   OH224031   2.523   3.592   2.770  0.6012  0.5315 -0.3296
  847TIP3    H124032   2.488   3.525   2.712 -1.2741  0.8074  0.4452
  847TIP3    H224033   2.595   3.549   2.816 -0.4539 -0.8824  0.0148
  848TIP3   OH224034   0.709   5.945   4.719 -0.0441  0.3218  0.6169
  848TIP3    H124035   0.762   6.011   4.675 -0.7844  0.2535 -0.4067
  848TIP3    H224036   0.674   5.891   4.648  2.5210 -2.7159  1.5683
  849TIP3   OH224037   5.117   3.843   3.084 -0.2028  0.1481  0.0520
  849TIP3    H124038   5.097   3.769   3.142 -3.9562  0.6414 -0.4603
  849TIP3    H224039   5.066   3.825   3.005  2.6708  0.8794 -2.0669
  850TIP3   OH224040   5.305   4.726  15.194  0.3219  0.2122  0.0290
  850TIP3    H124041   5.229   4.760  15.241  0.8420 -1.9583  2.5412
  850TIP3    H224042   5.269   4.690  15.113 -1.1295  0.3299  0.6078
  851TIP3   OH224043   5.809   5.209  14.961 -0.1834 -0.7743  0.0694
  851TIP3    H124044   5.871   5.231  15.031 -0.5844  2.5943 -0.5524
  851TIP3    H224045   5.757   5.138  14.997 -0.2409  0.7343  3.1314
  852TIP3   OH224046   0.395   0.257  13.576  0.1934  0.0745 -0.1394
  852TIP3    H124047   0.301   0.246  13.565 -0.0938  3.2386 -1.1674
  852TIP3    H224048   0.405   0.278  13.669  0.0653 -1.6668  0.2894
  853TIP3   OH224049   2.211   2.913  11.509  0.5121  0.2214 -0.3230
  853TIP3    H124050   2.165   2.987  11.469 -0.7456 -0.3146  0.1398
  853TIP3    H224051   2.184   2.914  11.600  0.7588 -0.6095 -0.2387
  854TIP3   OH224052   4.412   5.259  12.065  0.1546 -0.4076  0.1956
  854TIP3    H124053   4.332   5.206  12.075  0.7855 -1.6425 -1.0552
  854TIP3    H224054   4.403   5.297  11.977 -0.5428  2.0306  1.2890
  855TIP3   OH224055   4.621   3.362   2.989  0.1924  0.2081 -0.0453
  855TIP3    H124056   4.558   3.429   3.014  0.6741  0.6804 -0.0878
  855TIP3    H224057   4.585   3.281   3.024 -1.0033  0.2936 -1.0136
  856TIP3   OH224058   1.132   4.661   0.331  0.7684  0.6813  0.1499
  856TIP3    H124059   1.055   4.700   0.372 -0.2851 -0.3825 -0.7886
  856TIP3    H224060   1.191   4.642   0.404 -1.4808 -2.0687  1.3342
  857TIP3   OH224061   4.756   3.035  13.119  0.3595 -0.5121  0.2474
  857TIP3    H124062   4.700   3.036  13.197 -1.1045 -1.8203 -0.7544
  857TIP3    H224063   4.788   3.124  13.111 -1.5421  0.2524  0.8836
  858TIP3   OH224064   2.938   6.697  14.254  0.5761  0.3272  0.8014
  858TIP3    H124065   2.847   6.725  14.258  0.5423  0.5023 -0.9154
  858TIP3    H224066   2.976   6.729  14.336 -0.3178  2.3528  0.4610
  859TIP3   OH224067   2.296   4.904  16.541  0.6924  0.4910  0.0344
  859TIP3    H124068   2.331   4.994  16.538  4.0314 -0.6717  1.9135
  859TIP3    H224069   2.353   4.858  16.602 -1.2992 -2.8281 -0.4942
  860TIP3   OH224070   6.095   6.325   0.682 -0.2115  0.4611 -0.3652
  860TIP3    H124071   6.079   6.418   0.699 -1.4669  0.2122 -0.1293
  860TIP3    H224072   6.007   6.287   0.671  0.2033 -0.9425  0.9100
  861TIP3   OH224073   0.933   4.752  13.959 -0.5585  0.2860  0.4488
  861TIP3    H124074   0.999   4.790  13.900 -0.1166  0.8735  1.3129
  861TIP3    H224075   0.887   4.688  13.905  1.7420 -1.2489  0.2282
  862TIP3   OH224076   5.398   2.080  16.403  0.6063 -0.4756  0.0017
  862TIP3    H124077   5.421   2.130  16.481  1.9830 -0.9368 -0.0911
  862TIP3    H224078   5.422   2.138  16.330 -0.6412 -0.0600 -0.1001
  863TIP3   OH224079   3.325   3.694  12.221  0.2539 -0.7073 -0.2392
  863TIP3    H124080   3.254   3.629  12.227 -0.0585 -0.4215 -0.7976
  863TIP3    H224081   3.329   3.716  12.128  2.4669 -2.2552 -0.5488
  864TIP3   OH224082   2.093   6.638  16.630  0.7316 -0.0340 -0.0118
  864TIP3    H124083   2.153   6.638  16.704  0.7829 -0.0977 -0.0524
  864TIP3    H224084   2.143   6.599  16.559  1.2672  1.5806 -0.5513
  865TIP3   OH224085   3.858   6.075   1.999  0.2485  0.2067  0.5631
  865TIP3    H124086   3.862   6.057   1.905 -0.3236  0.3901  0.5021
  865TIP3    H224087   3.869   6.170   2.005  3.5140 -0.1293  0.8958
  866TIP3   OH224088   0.438   3.124   0.389 -0.8090 -0.2954 -0.4202
  866TIP3    H124089   0.410   3.036   0.413  1.1410 -0.6853  0.5878
  866TIP3    H224090   0.531   3.126   0.413 -0.6770  1.8179 -1.0440
  867TIP3   OH224091   0.113   1.472   6.056 -0.2364  0.7091 -0.0035
  867TIP3    H124092   0.164   1.451   6.134  0.0599 -0.3782 -0.4811
  867TIP3    H224093   0.083   1.562   6.071 -1.3136  0.0522  1.9743
  868TIP3   OH224094   4.887   4.583  16.984 -0.1236 -0.0997  0.4525
  868TIP3    H124095   4.799   4.554  16.958 -0.8833  1.7449  0.8528
  868TIP3    H224096   4.910   4.526  17.057 -0.5494 -1.2849 -0.3204
  869TIP3   OH224097   2.332   3.263   0.102 -0.0091  0.1817  0.1721
  869TIP3    H124098   2.367   3.215   0.177  0.4961  1.2194  0.6180
  869TIP3    H224099   2.404   3.320   0.074 -0.5628  0.6186 -0.3908
  870TIP3   OH224100   4.851   3.175  17.280  0.1508  0.7935  0.7881
  870TIP3    H124101   4.904   3.234  17.226 -0.6443  1.7125  1.0111
  870TIP3    H224102   4.804   3.232  17.340  0.0929 -0.1409  1.6472
  871TIP3   OH224103   6.717   5.775   3.316 -0.4837  0.6129 -0.5839
  871TIP3    H124104   6.807   5.790   3.288  0.4035  0.5805  2.1089
  871TIP3    H224105   6.697   5.686   3.287  0.7635  0.1790 -0.1249
  872TIP3   OH224106   5.733   4.100  16.304 -0.0249 -0.4663  0.6271
  872TIP3    H124107   5.779   4.027  16.346 -2.0768 -1.5969  0.9602
  872TIP3    H224108   5.723   4.072  16.213  1.5115  0.5661  0.1190
  873TIP3   OH224109   0.924   2.808  15.911 -0.0388  0.6681 -0.1927
  873TIP3    H124110   0.983   2.883  15.912  0.7216  0.0720  0.5604
  873TIP3    H224111   0.861   2.828  15.841 -0.8713  2.7737  1.1130
  874TIP3   OH224112   5.164   3.724   2.111  0.6835  0.0493  0.2258
  874TIP3    H124113   5.183   3.635   2.081 -0.2492 -0.5442  1.3425
  874TIP3    H224114   5.158   3.717   2.206 -2.5972  0.6390  0.1491
  875TIP3   OH224115   1.966   6.741  12.178  0.2779  0.1293 -0.8189
  875TIP3    H124116   1.874   6.732  12.202  0.3531 -0.6080 -0.8034
  875TIP3    H224117   1.977   6.835  12.161 -0.4822  0.2144 -0.8629
  876TIP3   OH224118   4.166   1.988   2.662 -0.4291  0.7107  0.0819
  876TIP3    H124119   4.130   1.933   2.593 -4.4865  2.3370  0.8060
  876TIP3    H224120   4.150   1.939   2.743 -3.0718  2.3349  0.6162
  877TIP3   OH224121   1.835   5.973  13.990  0.1277  0.3049  0.2991
  877TIP3    H124122   1.822   5.976  14.085  1.0871 -0.0505  0.4501
  877TIP3    H224123   1.768   6.032  13.954 -0.8805 -0.3157  1.1223
  878TIP3   OH224124   4.047   6.730  13.950  0.3275 -0.6389  0.1793
  878TIP3    H124125   4.102   6.708  14.026 -2.5282 -4.2729  1.3573
  878TIP3    H224126   3.958   6.735  13.986 -0.4726  2.7399 -2.0859
  879TIP3   OH224127   4.678   1.240   3.945  0.6402 -0.3335  0.3847
  879TIP3    H124128   4.656   1.321   3.990 -0.4698 -0.9306  0.9432
  879TIP3    H224129   4.727   1.189   4.009  0.4358 -0.5332  0.3829
  880TIP3   OH224130   0.981   3.725   2.762 -0.7196 -0.4587 -0.4915
  880TIP3    H124131   0.998   3.640   2.803 -0.4152  1.3980  3.4334
  880TIP3    H224132   1.060   3.742   2.710 -0.8724 -2.6213 -1.4842
  881TIP3   OH224133   4.159   0.407  17.201 -0.2788 -0.0464 -0.9684
  881TIP3    H124134   4.200   0.355  17.270 -1.2928 -0.0852 -0.3859
  881TIP3    H224135   4.229   0.422  17.138  1.0470  1.1888  0.7532
  882TIP3   OH224136   3.084   5.987   0.649  0.1885 -0.0443  0.7811
  882TIP3    H124137   2.999   6.005   0.690 -2.1149 -1.8923 -2.9241
  882TIP3    H224138   3.082   5.893   0.631  2.8421 -0.0163  0.2132
  883TIP3   OH224139   6.199   5.520   4.714 -0.0428 -0.2427  0.0925
  883TIP3    H124140   6.287   5.507   4.680 -0.0852 -0.3809  0.0332
  883TIP3    H224141   6.159   5.582   4.653  0.4668  0.8995  0.9111
  884TIP3   OH224142   3.013   5.257  15.638 -0.4739  0.0796 -0.4434
  884TIP3    H124143   3.035   5.172  15.599  0.4942  0.2044 -0.1710
  884TIP3    H224144   3.058   5.256  15.722  3.0295  2.5970 -2.1922
  885TIP3   OH224145   6.459   2.593   6.734  0.3452  0.2395  0.0798
  885TIP3    H124146   6.383   2.534   6.742  0.8577 -0.4928 -0.3949
  885TIP3    H224147   6.534   2.537   6.753  0.9848  0.2730 -2.2831
  886TIP3   OH224148   2.094   3.924   3.155 -0.2141 -0.6664 -0.1918
  886TIP3    H124149   2.095   3.924   3.251  1.2886 -0.1517 -0.1886
  886TIP3    H224150   2.050   3.843   3.131  0.1573 -1.2130  0.9361
  887TIP3   OH224151   6.031   6.621   2.750  0.5714  0.1051  0.2792
  887TIP3    H124152   6.088   6.667   2.688 -0.1376 -0.2057 -0.6071
  887TIP3    H224153   6.065   6.645   2.836  2.4244 -0.5824 -0.2504
  888TIP3   OH224154   5.160   4.227  11.637  0.0462 -0.4302  0.0609
  888TIP3    H124155   5.177   4.134  11.654  0.4289 -0.3246  0.2676
  888TIP3    H224156   5.190   4.240  11.547  3.4693  0.3251  1.2459
  889TIP3   OH224157   4.630   2.507   2.786 -0.1855  0.2437  0.8280
  889TIP3    H124158   4.683   2.581   2.755 -0.1195 -1.1281 -2.5268
  889TIP3    H224159   4.559   2.500   2.722 -1.1983 -1.4879  2.1054
  890TIP3   OH224160   1.943   4.324   1.779 -0.6383  0.0638  0.0657
  890TIP3    H124161   2.036   4.324   1.756 -0.9012 -2.6587 -1.1498
  890TIP3    H224162   1.901   4.270   1.713 -2.4772 -2.0987  2.8615
  891TIP3   OH224163   4.220   5.559  13.216 -0.2128 -0.3400  0.4041
  891TIP3    H124164   4.288   5.620  13.188  0.9382 -1.4291  0.7888
  891TIP3    H224165   4.157   5.559  13.143 -0.8295  2.1469  0.8931
  892TIP3   OH224166   4.043   0.700   5.056  0.0579  0.6745 -0.0737
  892TIP3    H124167   4.075   0.779   5.099  0.1789  0.5832  0.0036
  892TIP3    H224168   4.019   0.642   5.127  1.6910 -0.0682 -0.1115
  893TIP3   OH224169   1.528   5.037  14.608  0.7165  0.2096 -0.5942
  893TIP3    H124170   1.484   5.023  14.692  3.8920  2.7795  1.6759
  893TIP3    H224171   1.470   5.096  14.560 -0.1713  0.4340  0.7098
  894TIP3   OH224172   1.089   5.565   0.218  0.0955 -0.0453  0.2949
  894TIP3    H124173   0.994   5.564   0.232  0.2998  1.1807  1.9623
  894TIP3    H224174   1.126   5.557   0.305  1.5182  0.9535 -0.1962
  895TIP3   OH224175   3.896   3.437  15.265  0.0011 -0.1457 -0.0783
  895TIP3    H124176   3.973   3.454  15.319  1.6591  0.2152 -2.4654
  895TIP3    H224177   3.875   3.345  15.282 -0.6049  0.4557  2.4996
  896TIP3   OH224178   5.159   1.249  17.023  0.0416 -0.1730  0.4837
  896TIP3    H124179   5.182   1.171  16.973 -1.4152 -0.8070  0.7574
  896TIP3    H224180   5.240   1.300  17.028  0.2636 -0.1624 -2.3642
  897TIP3   OH224181   4.007   3.622  16.760 -0.6391  0.0779  0.0529
  897TIP3    H124182   3.994   3.530  16.785  0.1958  0.5903  2.5107
  897TIP3    H224183   4.100   3.627  16.735 -0.5368  0.3898  0.5037
  898TIP3   OH224184   0.246   5.698   4.230 -0.0747 -0.0212 -0.8928
  898TIP3    H124185   0.327   5.680   4.277 -1.0875 -0.4392  0.7117
  898TIP3    H224186   0.274   5.711   4.139  2.1363  2.9056  0.1294
  899TIP3   OH224187   0.434   3.732  13.981 -0.7367 -0.2827  0.5242
  899TIP3    H124188   0.492   3.658  13.999 -0.2765  0.0408  0.3633
  899TIP3    H224189   0.486   3.791  13.927 -0.7711  0.6127  1.4474
  900TIP3   OH224190   4.896   0.913  10.633  0.4052 -0.1401  0.5885
  900TIP3    H124191   4.912   0.819  10.637  0.2595 -0.1331  1.2272
  900TIP3    H224192   4.961   0.945  10.569  1.6463 -0.4103  1.6912
  901TIP3   OH224193   5.234   1.657  13.634  0.6404 -0.5576 -0.1748
  901TIP3    H124194   5.240   1.749  13.607  0.6996 -0.4545  0.2008
  901TIP3    H224195   5.151   1.627  13.595  0.8421 -0.4718 -0.6754
  902TIP3   OH224196   3.452   0.945  12.153  0.4962  0.0382 -0.1682
  902TIP3    H124197   3.415   0.953  12.241  1.2218  1.0794  0.0533
  902TIP3    H224198   3.518   0.877  12.161 -0.3809 -0.8295 -0.2310
  903TIP3   OH224199   3.034   4.557   3.917 -0.2698  0.0924  0.5904
  903TIP3    H124200   2.972   4.485   3.922  2.1538 -2.2210 -1.3241
  903TIP3    H224201   3.005   4.619   3.984 -2.5925 -2.4816  2.0370
  904TIP3   OH224202   5.061   3.203   2.585 -0.0438  0.1171 -0.2367
  904TIP3    H124203   5.152   3.225   2.602 -0.0353 -0.0770 -0.0286
  904TIP3    H224204   5.059   3.107   2.584 -0.3412  0.1186  0.2795
  905TIP3   OH224205   4.795   2.626   3.794  0.0354  0.5655  0.1385
  905TIP3    H124206   4.861   2.597   3.731 -0.7455 -0.7729 -0.0809
  905TIP3    H224207   4.845   2.664   3.866  1.1525 -2.0963  0.8245
  906TIP3   OH224208   2.489   5.267  15.622 -0.2040 -0.5628 -0.5329
  906TIP3    H124209   2.414   5.254  15.565  0.1264 -1.2565 -0.8184
  906TIP3    H224210   2.553   5.315  15.568 -0.6541  0.5447 -0.1094
  907TIP3   OH224211   2.326   4.408   2.490 -0.2494  0.6734 -0.6100
  907TIP3    H124212   2.328   4.470   2.563 -0.7110 -1.3434  1.1733
  907TIP3    H224213   2.243   4.361   2.500  0.4494 -0.7842 -1.4346
  908TIP3   OH224214   6.092   4.435  13.646  0.1176 -0.1697  0.0106
  908TIP3    H124215   6.086   4.447  13.741 -1.7461  1.0828 -0.2296
  908TIP3    H224216   6.135   4.514  13.614 -2.0550  0.8604 -0.4678
  909TIP3   OH224217   2.504   1.042   1.544 -0.2687 -0.0626  0.0084
  909TIP3    H124218   2.558   0.974   1.584 -1.1367 -0.1704  1.0199
  909TIP3    H224219   2.469   1.001   1.464 -0.0119 -0.4838  0.1111
  910TIP3   OH224220   6.713   6.103   0.651  0.0712  0.6122  0.2946
  910TIP3    H124221   6.753   6.135   0.570 -0.0372 -1.6959 -0.7362
  910TIP3    H224222   6.640   6.048   0.621  0.1493 -0.4203  1.9312
  911TIP3   OH224223   3.549   5.366  10.458  0.0763 -0.3483  0.8307
  911TIP3    H124224   3.552   5.288  10.402 -1.4398  0.1007  0.0867
  911TIP3    H224225   3.589   5.435  10.406 -0.6922 -0.0957  0.5668
  912TIP3   OH224226   3.890   6.053  14.606  0.0052  0.5786 -0.6964
  912TIP3    H124227   3.840   6.004  14.540 -0.3083  0.5884 -0.4682
  912TIP3    H224228   3.977   6.012  14.605 -0.2843 -0.0427 -0.4375
  913TIP3   OH224229   6.046   4.066  13.330 -0.0585  0.2058  0.0674
  913TIP3    H124230   5.974   4.068  13.267  0.0005 -0.7784 -0.0254
  913TIP3    H224231   6.020   4.130  13.397 -0.4668  0.7127 -0.5591
  914TIP3   OH224232   6.072   0.299  14.482  0.2751 -0.4679  0.3752
  914TIP3    H124233   6.136   0.250  14.533  0.1223  1.5116  2.5653
  914TIP3    H224234   5.991   0.293  14.533  0.0744  1.3900  0.3065
  915TIP3   OH224235   0.675   4.400  13.607  0.1330 -0.4640  0.1974
  915TIP3    H124236   0.618   4.477  13.616 -0.3543 -0.9675  1.4672
  915TIP3    H224237   0.659   4.370  13.517 -1.4192 -0.4324  0.4368
  916TIP3   OH224238   1.529   4.429   0.578 -0.1434  0.1198 -0.7400
  916TIP3    H124239   1.532   4.458   0.487  0.6529 -0.2819 -0.8446
  916TIP3    H224240   1.536   4.334   0.573 -1.7617 -0.0453 -0.3487
  917TIP3   OH224241   6.558   2.723  16.426  0.6494  0.0416  0.0380
  917TIP3    H124242   6.488   2.771  16.468  0.0577 -0.0151 -0.8677
  917TIP3    H224243   6.630   2.724  16.489  0.5862  1.9599  0.0823
  918TIP3   OH224244   3.730   5.410  16.461  1.0034  0.5177 -0.2383
  918TIP3    H124245   3.784   5.471  16.411  0.4708 -0.6372 -2.2655
  918TIP3    H224246   3.685   5.357  16.395 -1.1843  0.2076  1.4418
  919TIP3   OH224247   2.215   6.295   4.921  0.0509 -0.6915  0.6843
  919TIP3    H124248   2.278   6.304   4.993  1.0127 -0.0265 -0.2083
  919TIP3    H224249   2.131   6.318   4.960  0.6675  0.3793  1.4443
  920TIP3   OH224250   5.356   0.219  13.976 -0.3147  0.3703  0.2957
  920TIP3    H124251   5.300   0.262  14.041  0.7874  0.5333  1.1386
  920TIP3    H224252   5.399   0.291  13.930  0.3091  0.2078  0.6245
  921TIP3   OH224253   5.525   3.953  13.741  0.2925 -0.0570  0.4960
  921TIP3    H124254   5.561   3.925  13.825 -0.7446 -0.4615  0.8187
  921TIP3    H224255   5.601   3.970  13.686  0.9721 -0.0312  1.4438
  922TIP3   OH224256   4.362   2.880   3.326 -0.2246  0.4045  0.4410
  922TIP3    H124257   4.380   2.915   3.414  1.0459 -0.8190  0.6870
  922TIP3    H224258   4.445   2.889   3.280 -0.5165 -0.1960 -0.2019
  923TIP3   OH224259   1.297   6.558  13.971 -0.0644  0.4215  0.0370
  923TIP3    H124260   1.332   6.469  13.980  1.4653  0.9880 -0.2384
  923TIP3    H224261   1.372   6.611  13.946 -0.9231  1.8500  0.4453
  924TIP3   OH224262   6.341   4.706  16.479  0.0742 -0.1594 -0.0253
  924TIP3    H124263   6.393   4.629  16.459  0.4031 -0.9386  3.4121
  924TIP3    H224264   6.284   4.678  16.551 -0.5909  2.4526  0.5238
  925TIP3   OH224265   1.135   4.070   5.450 -0.3347 -0.2751  0.2697
  925TIP3    H124266   1.060   4.071   5.391 -0.7965  1.6118  0.8496
  925TIP3    H224267   1.199   4.128   5.408  0.1775 -0.6289  0.5566
  926TIP3   OH224268   2.513   5.756   5.692  0.2372  0.4352 -0.3458
  926TIP3    H124269   2.559   5.786   5.613 -0.4083  0.0405 -0.8737
  926TIP3    H224270   2.453   5.689   5.660  1.0281 -0.7844  0.6865
  927TIP3   OH224271   5.276   4.604   5.512 -0.2361 -0.4180  0.5150
  927TIP3    H124272   5.194   4.650   5.529  1.3302  1.8277  2.3554
  927TIP3    H224273   5.309   4.580   5.598  2.1789  0.8397 -0.0136
  928TIP3   OH224274   1.556   2.797  15.052 -0.0372  0.1323 -0.3781
  928TIP3    H124275   1.524   2.814  15.141  2.6811  0.4075  0.5809
  928TIP3    H224276   1.553   2.702  15.043 -0.0136  0.0813  0.1365
  929TIP3   OH224277   5.127   2.062  17.119 -0.4933 -0.1802 -0.0656
  929TIP3    H124278   5.125   1.979  17.166 -2.4686  0.6414  1.3748
  929TIP3    H224279   5.136   2.129  17.187  0.2373  0.8510 -1.1367
  930TIP3   OH224280   4.996   0.409   1.945 -0.3458 -0.4958 -0.2207
  930TIP3    H124281   5.047   0.328   1.938 -1.1980 -1.1388  0.8626
  930TIP3    H224282   5.001   0.449   1.858  0.7568 -1.3030 -0.5299
  931TIP3   OH224283   3.768   0.123   0.031  0.1599  0.2621  0.1662
  931TIP3    H124284   3.710   0.197   0.052  0.1953 -0.0160  1.2908
  931TIP3    H224285   3.718   0.045   0.054  1.1311  0.0322  1.5876
  932TIP3   OH224286   4.900   6.467  12.643 -0.4332 -0.6192 -0.0265
  932TIP3    H124287   4.847   6.541  12.672 -0.5744  0.2547 -2.4215
  932TIP3    H224288   4.846   6.420  12.580  0.7607 -1.0546 -0.7576
  933TIP3   OH224289   3.305   6.584  10.816  0.0702  0.1722 -0.7788
  933TIP3    H124290   3.386   6.561  10.771  0.8861  1.6562 -0.1089
  933TIP3    H224291   3.255   6.634  10.752  0.7356  1.2945 -0.4501
  934TIP3   OH224292   6.114   3.945  12.014 -0.1125  0.0719  0.0002
  934TIP3    H124293   6.196   3.920  11.973  0.4027  0.9858  0.4539
  934TIP3    H224294   6.080   3.863  12.051 -1.2524 -1.0381 -3.3217
  935TIP3   OH224295   0.806   5.378   5.730 -0.5089  0.3837  0.5007
  935TIP3    H124296   0.856   5.383   5.812  0.0696 -0.8549  0.2499
  935TIP3    H224297   0.812   5.285   5.705 -3.1698  0.1391  0.6023
  936TIP3   OH224298   5.777   3.257  12.269  0.5194  0.0086 -0.1670
  936TIP3    H124299   5.756   3.215  12.353  1.4460  0.0357  0.0847
  936TIP3    H224300   5.871   3.243  12.258  0.2547 -0.7480 -1.6230
  937TIP3   OH224301   6.779   6.740  12.264  0.2672 -0.7709  0.1192
  937TIP3    H124302   6.790   6.718  12.171 -0.1964 -2.0762  0.3680
  937TIP3    H224303   6.736   6.826  12.263  2.2227  0.2333 -0.8607
  938TIP3   OH224304   0.907   2.020  11.098  0.1140 -0.2708 -0.1035
  938TIP3    H124305   0.885   1.998  11.008 -0.4843 -0.8594  0.1805
  938TIP3    H224306   0.827   2.001  11.148  0.4137  0.1202  0.5359
  939TIP3   OH224307   1.583   6.155  16.407 -0.2363  0.1258 -0.2088
  939TIP3    H124308   1.558   6.234  16.360  0.7581  0.9742  0.6539
  939TIP3    H224309   1.618   6.187  16.490  0.6829 -1.1886 -0.0766
  940TIP3   OH224310   3.855   5.194  13.398  0.2048 -0.2321 -0.1495
  940TIP3    H124311   3.910   5.158  13.328  2.1195  1.2291  0.5400
  940TIP3    H224312   3.877   5.141  13.475 -1.6543 -1.6230 -0.5416
  941TIP3   OH224313   2.068   6.146  15.924  0.1825 -0.3684 -0.6917
  941TIP3    H124314   2.056   6.186  16.011 -2.3633  2.2166 -2.1284
  941TIP3    H224315   2.121   6.209  15.876  1.8365 -1.9369 -0.9543
  942TIP3   OH224316   0.838   0.275   2.650  0.2541 -0.0433 -0.0555
  942TIP3    H124317   0.810   0.214   2.718 -0.8464 -0.8921 -1.2349
  942TIP3    H224318   0.808   0.361   2.679 -1.2416 -0.5733 -0.0359
  943TIP3   OH224319   1.667   4.761  10.891  0.2796 -0.4978  0.0936
  943TIP3    H124320   1.716   4.693  10.845 -1.3348 -2.1881  0.8069
  943TIP3    H224321   1.718   4.778  10.969 -0.6700 -2.9238  1.3044
  944TIP3   OH224322   3.734   4.671  11.394 -0.3996 -0.4361  0.7063
  944TIP3    H124323   3.736   4.676  11.298 -0.1349  3.2788  0.8633
  944TIP3    H224324   3.817   4.629  11.417  0.9362  1.4117 -0.6004
  945TIP3   OH224325   1.853   3.813  14.938 -0.4839  1.3270  0.0653
  945TIP3    H124326   1.906   3.770  15.006  0.6684  1.7738 -0.5288
  945TIP3    H224327   1.772   3.837  14.982 -0.1634  0.6969  1.0215
  946TIP3   OH224328   6.620   1.625  17.010  0.2680 -0.0224  0.1313
  946TIP3    H124329   6.537   1.664  17.037 -0.9061 -0.7290 -2.2548
  946TIP3    H224330   6.645   1.568  17.082 -0.5199  1.3529  1.5230
  947TIP3   OH224331   2.902   6.773   2.594 -0.0011 -0.0323 -0.2886
  947TIP3    H124332   2.944   6.837   2.537 -1.5736 -0.0339 -1.4637
  947TIP3    H224333   2.809   6.797   2.593 -0.0537  0.0279  2.3463
  948TIP3   OH224334   3.070   1.844   0.717 -0.0369 -0.2522  0.2338
  948TIP3    H124335   3.004   1.812   0.779  0.1012 -0.1444  0.4377
  948TIP3    H224336   3.068   1.939   0.728 -0.3059 -0.2001 -0.2259
  949TIP3   OH224337   3.032   4.134   1.226 -0.1793 -0.0077 -0.5288
  949TIP3    H124338   3.062   4.112   1.314 -4.3204  1.8450  1.4846
  949TIP3    H224339   3.044   4.228   1.220 -1.7470  0.1690 -1.1507
  950TIP3   OH224340   5.258   5.233  17.270 -0.6535  0.2128  0.3264
  950TIP3    H124341   5.176   5.203  17.308 -0.3944 -0.7400  0.1428
  950TIP3    H224342   5.232   5.298  17.205 -1.3395 -0.9403 -0.5606
  951TIP3   OH224343   4.047   6.691   3.461  0.7683  0.1552 -0.5134
  951TIP3    H124344   3.958   6.680   3.428  0.8448 -0.5892 -0.4782
  951TIP3    H224345   4.043   6.663   3.552  1.0193  0.2071 -0.4853
  952TIP3   OH224346   3.992   6.086  12.262  0.3573 -0.6014 -0.0404
  952TIP3    H124347   3.937   6.032  12.206 -1.3034 -1.1783  2.0624
  952TIP3    H224348   4.065   6.029  12.287 -0.4760 -1.3354  0.7680
  953TIP3   OH224349   5.417   5.873  13.022  0.3913 -0.1816  0.0118
  953TIP3    H124350   5.511   5.884  13.026  0.5221 -1.2303 -0.0213
  953TIP3    H224351   5.397   5.869  12.929  0.4916 -1.2995  0.0252
  954TIP3   OH224352   0.134   3.000  13.581  0.5989 -0.1127 -0.1196
  954TIP3    H124353   0.116   3.000  13.487 -1.4258  1.3886  0.2120
  954TIP3    H224354   0.187   2.922  13.596  1.2155 -0.1895 -2.5545
  955TIP3   OH224355   1.683   1.920  14.423  0.1981  0.1167  0.3142
  955TIP3    H124356   1.661   1.989  14.486 -1.3766  1.6811 -1.8359
  955TIP3    H224357   1.672   1.963  14.338  1.8859 -2.0470 -1.0149
  956TIP3   OH224358   0.085   0.646  12.584 -0.6600 -0.5138  0.6013
  956TIP3    H124359   0.135   0.721  12.617  2.3900 -0.7996 -3.0133
  956TIP3    H224360   0.003   0.684  12.553  1.4144  1.7030 -2.4859
  957TIP3   OH224361   4.898   1.422   4.911  0.2940 -0.0584 -0.0365
  957TIP3    H124362   4.847   1.496   4.944  0.0315  0.5876 -1.8249
  957TIP3    H224363   4.849   1.392   4.834  1.3091 -0.9997 -0.3288
  958TIP3   OH224364   2.934   1.961  14.202  0.3161 -0.0536 -0.3377
  958TIP3    H124365   3.026   1.965  14.226  0.5892  3.1363 -1.5944
  958TIP3    H224366   2.933   1.928  14.113  0.2725 -0.0077 -0.3550
  959TIP3   OH224367   6.083   5.046  17.278 -0.3818 -0.1607 -0.7506
  959TIP3    H124368   6.061   4.980  17.344 -0.8948  0.9061  0.1397
  959TIP3    H224369   6.085   4.997  17.196 -1.0314 -1.2396 -0.1270
  960TIP3   OH224370   6.775   3.349  13.518  0.4991 -0.1016  0.0471
  960TIP3    H124371   6.845   3.293  13.552  1.3142  0.8616 -0.0119
  960TIP3    H224372   6.790   3.434  13.561 -0.2006  0.3072 -0.5178
  961TIP3   OH224373   1.424   5.822  15.371  0.0953  0.2579 -0.4972
  961TIP3    H124374   1.425   5.900  15.316  0.4332 -2.3289 -4.3661
  961TIP3    H224375   1.517   5.797  15.378 -0.0586 -0.1255  0.2146
  962TIP3   OH224376   1.884   0.818   1.052  0.2348 -0.0259  0.2813
  962TIP3    H124377   1.892   0.906   1.015  1.3446 -0.2168  0.0405
  962TIP3    H224378   1.908   0.829   1.144  0.8147 -0.1448  0.1494
  963TIP3   OH224379   5.441   1.838  14.186  0.2933  0.0992  0.0794
  963TIP3    H124380   5.485   1.919  14.210  1.5857 -1.3775  3.0090
  963TIP3    H224381   5.375   1.825  14.254  0.4730 -1.5733 -0.0344
  964TIP3   OH224382   0.208   2.184  13.085  0.4458 -0.3538  0.1168
  964TIP3    H124383   0.271   2.148  13.023  0.8615  0.4912  0.0348
  964TIP3    H224384   0.227   2.278  13.087 -2.6856  0.4465 -2.1523
  965TIP3   OH224385   0.192   3.291  13.641 -0.0625  0.9445 -0.2797
  965TIP3    H124386   0.233   3.341  13.569  1.0271 -0.2232 -0.4983
  965TIP3    H224387   0.213   3.200  13.621 -0.6176  0.5306  0.9983
  966TIP3   OH224388   5.128   6.648  11.313 -0.0071 -0.0355  0.1045
  966TIP3    H124389   5.211   6.653  11.266  1.1532 -1.5781  1.9177
  966TIP3    H224390   5.076   6.721  11.279  0.1830 -1.9318 -4.6560
  967TIP3   OH224391   6.616   0.458  12.952  0.1747 -0.4447 -0.3003
  967TIP3    H124392   6.709   0.462  12.930  0.6201 -0.8505  1.4516
  967TIP3    H224393   6.603   0.369  12.984 -0.7900 -0.3268 -0.3530
  968TIP3   OH224394   5.362   2.199   6.350 -0.1197  0.1156 -0.3241
  968TIP3    H124395   5.443   2.230   6.390  0.4866 -1.4161 -0.3174
  968TIP3    H224396   5.317   2.278   6.321  0.7100  1.0665  0.9505
  969TIP3   OH224397   4.534   0.019   4.976 -0.2560 -0.3007 -0.4740
  969TIP3    H124398   4.628   0.003   4.990 -0.3198 -1.3898 -1.2096
  969TIP3    H224399   4.523   0.112   4.993  0.9260 -0.2047 -0.1602
  970TIP3   OH224400   5.064   5.785  10.957 -0.2399 -0.4295 -0.4247
  970TIP3    H124401   4.984   5.762  11.004 -0.1465 -0.3276 -0.2181
  970TIP3    H224402   5.072   5.880  10.968 -1.1637 -0.1126 -2.1101
  971TIP3   OH224403   6.473   5.395  16.118  0.1339 -0.8276  0.0592
  971TIP3    H124404   6.533   5.446  16.063  0.3983 -2.3508 -1.0695
  971TIP3    H224405   6.524   5.320  16.147 -0.9301 -1.6542 -0.1474
  972TIP3   OH224406   0.152   0.104  15.427 -0.1220 -0.2790  0.2337
  972TIP3    H124407   0.116   0.058  15.502  2.3879 -1.1431  0.9568
  972TIP3    H224408   0.172   0.034  15.364  1.1405  0.0905  0.2256
  973TIP3   OH224409   5.731   5.753  15.605 -0.0976  0.3141 -0.2100
  973TIP3    H124410   5.775   5.833  15.631 -1.2099  1.1291 -0.7839
  973TIP3    H224411   5.639   5.778  15.597 -0.7324 -1.4342  1.3188
  974TIP3   OH224412   4.726   2.868   2.347  0.6722  0.1698  0.4362
  974TIP3    H124413   4.650   2.838   2.397  0.7919  0.0328  0.5375
  974TIP3    H224414   4.692   2.934   2.287  0.5942  0.6526  1.0020
  975TIP3   OH224415   2.090   3.843  13.544  0.4393 -0.2985  0.7644
  975TIP3    H124416   2.036   3.773  13.510 -1.0021  0.4120  1.5543
  975TIP3    H224417   2.092   3.909  13.474 -0.6486  0.1651  1.1629
  976TIP3   OH224418   5.463   4.048  15.321  0.2868  0.2807  0.4228
  976TIP3    H124419   5.550   4.027  15.286  1.7256  0.6449  3.6190
  976TIP3    H224420   5.429   4.115  15.262  3.3859  2.2279  0.7717
  977TIP3   OH224421   2.075   4.513   1.929 -0.0988  0.4254 -0.1782
  977TIP3    H124422   2.085   4.454   2.004 -0.9413  1.5604  0.8515
  977TIP3    H224423   2.011   4.469   1.873  1.2329 -0.8752 -0.7129
  978TIP3   OH224424   6.750   1.123   2.474  0.4222  0.3129 -0.4903
  978TIP3    H124425   6.784   1.164   2.394  1.6182 -1.0344 -0.6779
  978TIP3    H224426   6.828   1.098   2.523 -0.2369 -2.6153 -0.8270
  979TIP3   OH224427   2.209   5.663  16.841  0.0201 -0.6195 -0.1972
  979TIP3    H124428   2.303   5.655  16.825  0.0752 -0.7947  0.2284
  979TIP3    H224429   2.180   5.573  16.860 -0.0143 -0.3868  0.8902
  980TIP3   OH224430   0.470   6.243  14.624  0.4990  0.2512  0.1521
  980TIP3    H124431   0.503   6.330  14.645 -0.9398  0.3811  2.0026
  980TIP3    H224432   0.379   6.256  14.601 -0.2553 -0.9422  2.2649
  981TIP3   OH224433   2.529   2.891  13.721 -0.2505 -0.1414  1.2621
  981TIP3    H124434   2.528   2.948  13.644  0.2633 -1.7395  0.0350
  981TIP3    H224435   2.517   2.950  13.795 -1.1472  1.3948 -0.0655
  982TIP3   OH224436   6.349   6.113   5.768 -0.3749  0.0691  0.6417
  982TIP3    H124437   6.311   6.027   5.749 -3.0778  1.2281  0.5553
  982TIP3    H224438   6.409   6.129   5.695 -1.1490 -0.9863 -0.2472
  983TIP3   OH224439   0.588   6.028  11.510 -0.2991  0.2265 -0.1594
  983TIP3    H124440   0.551   6.014  11.423 -0.2770  1.2847 -0.3516
  983TIP3    H224441   0.675   6.065  11.494 -0.8164  1.6910  0.3008
  984TIP3   OH224442   3.937   6.661  16.824  0.7123 -0.3000  0.6064
  984TIP3    H124443   3.964   6.570  16.841  0.6842 -0.7862 -1.7602
  984TIP3    H224444   3.956   6.674  16.732 -0.3356  1.7665  0.6680
  985TIP3   OH224445   3.691   6.337  14.081  0.2694  0.0625 -0.1580
  985TIP3    H124446   3.776   6.381  14.078  0.8366 -1.0172 -0.0746
  985TIP3    H224447   3.654   6.363  14.166  0.7137  0.1811  0.0050
  986TIP3   OH224448   5.811   6.642   1.302  0.5692 -0.1209  0.8617
  986TIP3    H124449   5.762   6.720   1.274  0.4458 -0.2228  0.7928
  986TIP3    H224450   5.785   6.629   1.393  0.4913 -0.1552  0.8351
  987TIP3   OH224451   2.742   2.818   0.166  0.5404  0.3276 -0.1002
  987TIP3    H124452   2.756   2.905   0.128  0.7037  0.3070 -0.0890
  987TIP3    H224453   2.649   2.800   0.152  0.5463  0.4253 -0.2687
  988TIP3   OH224454   5.256   1.031   6.471 -0.6347  0.1046 -0.8181
  988TIP3    H124455   5.224   1.120   6.479 -0.0814  0.1333  1.4637
  988TIP3    H224456   5.347   1.041   6.441 -0.4891  0.3197 -0.3093
  989TIP3   OH224457   0.409   0.944   5.377  0.1637  0.2244 -0.7733
  989TIP3    H124458   0.453   1.020   5.339  0.0651  0.2462 -0.8430
  989TIP3    H224459   0.415   0.877   5.309  2.6956 -0.7201  0.3157
  990TIP3   OH224460   1.515   5.581   2.205  0.1232  0.2385  0.0774
  990TIP3    H124461   1.484   5.665   2.238  1.0485  0.9205 -0.7374
  990TIP3    H224462   1.547   5.534   2.282  0.1048  0.8602  0.4586
  991TIP3   OH224463   4.435   1.585  13.894 -0.1193  0.4244 -0.3011
  991TIP3    H124464   4.467   1.504  13.855 -1.9015 -0.7672  0.6676
  991TIP3    H224465   4.464   1.653  13.834  1.8234 -0.8671 -0.8742
  992TIP3   OH224466   4.584   3.536  11.303  0.0041  0.8047 -0.0101
  992TIP3    H124467   4.607   3.521  11.395 -0.7538  1.6822  0.3334
  992TIP3    H224468   4.576   3.448  11.266  1.5323  0.4669  0.4485
  993TIP3   OH224469   1.659   0.792   1.876  0.4001 -0.0443 -0.0977
  993TIP3    H124470   1.586   0.802   1.938  1.3570  0.2765  0.9891
  993TIP3    H224471   1.737   0.794   1.931  1.1565 -2.3184 -1.0700
  994TIP3   OH224472   3.424   3.411   3.041 -0.0713 -0.0636  0.0018
  994TIP3    H124473   3.349   3.440   3.092 -0.0243  0.8100 -0.4034
  994TIP3    H224474   3.442   3.484   2.981  0.1210 -0.8985 -0.9780
  995TIP3   OH224475   5.787   2.538  16.658  0.0051  0.2399  0.1858
  995TIP3    H124476   5.742   2.454  16.664 -1.0507  0.9628  3.0025
  995TIP3    H224477   5.719   2.604  16.674  0.9640  1.6205 -1.2253
  996TIP3   OH224478   4.256   2.412   3.202  0.2567  0.2748  0.5919
  996TIP3    H124479   4.334   2.416   3.146 -0.0745 -0.3580  0.0784
  996TIP3    H224480   4.255   2.496   3.247  0.3800  0.9115 -0.5666
  997TIP3   OH224481   6.738   0.834  16.680  0.0329  0.1611 -0.1213
  997TIP3    H124482   6.791   0.794  16.611  0.9412 -0.2220  0.7831
  997TIP3    H224483   6.695   0.908  16.638  0.5403 -0.1003 -1.1067
  998TIP3   OH224484   1.629   0.672   1.627 -0.3143 -0.4632  0.0238
  998TIP3    H124485   1.562   0.605   1.640 -0.5944  0.0271  1.2213
  998TIP3    H224486   1.639   0.712   1.714 -0.0993  0.9728 -0.6507
  999TIP3   OH224487   5.300   4.386  14.573 -0.6141  0.4372  0.2186
  999TIP3    H124488   5.305   4.482  14.572 -3.0180  0.6151  0.7518
  999TIP3    H224489   5.256   4.364  14.491  1.8990 -0.4045 -0.9517
 1000TIP3   OH224490   4.005   2.616  11.819 -0.0521 -1.1428 -0.4190
 1000TIP3    H124491   3.986   2.699  11.863  0.7945 -1.5075  0.6480
 1000TIP3    H224492   3.984   2.632  11.727 -0.7450 -0.0192 -0.0678
 1001TIP3   OH224493   3.532   6.432  13.286 -0.3435 -0.1765 -0.3353
 1001TIP3    H124494   3.578   6.351  13.261  0.3477  0.5648 -1.5627
 1001TIP3    H224495   3.602   6.496  13.298 -0.8373  0.0194  1.4962
 1002TIP3   OH224496   1.016   6.365  16.942  0.1018  0.1118 -0.0058
 1002TIP3    H124497   1.110   6.364  16.957  0.2327 -0.1388 -0.8368
 1002TIP3    H224498   0.985   6.443  16.989  0.9126  0.9776 -0.8988
 1003TIP3   OH224499   4.415   1.028  12.246  0.1422  0.3828  0.2630
 1003TIP3    H124500   4.390   0.936  12.237 -2.1081  0.9973 -0.1538
 1003TIP3    H224501   4.455   1.051  12.162  2.2059 -0.6375  0.9485
 1004TIP3   OH224502   4.384   0.830   5.922 -0.5490 -0.0434  0.2606
 1004TIP3    H124503   4.402   0.844   5.830 -0.3810  0.7867  0.4168
 1004TIP3    H224504   4.319   0.897   5.945 -1.0470 -0.6306  0.5998
 1005TIP3   OH224505   0.305   5.604   4.732  0.0926  0.1266 -0.8633
 1005TIP3    H124506   0.286   5.555   4.812 -2.7743  1.4809 -0.6275
 1005TIP3    H224507   0.317   5.538   4.664 -1.2222 -0.9725 -0.0463
 1006TIP3   OH224508   6.188   0.069   2.771 -0.2352  0.8829 -0.0103
 1006TIP3    H124509   6.109   0.114   2.742 -0.0203  0.8603 -0.6438
 1006TIP3    H224510   6.213   0.114   2.852  0.2185  2.1851 -0.8530
 1007TIP3   OH224511   3.115   2.246   2.121  0.2144  0.0096  0.1412
 1007TIP3    H124512   3.148   2.305   2.053 -0.4837  1.6697  1.1996
 1007TIP3    H224513   3.038   2.206   2.082  1.0486 -0.6946 -0.8161
 1008TIP3   OH224514   6.435   1.723  11.696 -0.2394  0.0941  0.1099
 1008TIP3    H124515   6.448   1.765  11.781 -0.5394 -0.1172  0.2616
 1008TIP3    H224516   6.454   1.631  11.711 -1.1762 -0.0998  0.1636
 1009TIP3   OH224517   4.019   4.051  13.591 -0.9858  0.1797 -0.4526
 1009TIP3    H124518   4.032   3.971  13.540 -1.3365  0.5383 -1.0991
 1009TIP3    H224519   3.928   4.048  13.619 -0.9905  0.3469 -0.4519
 1010TIP3   OH224520   2.140   3.066   3.550 -0.4509 -0.1765 -0.2046
 1010TIP3    H124521   2.170   3.024   3.630 -0.6180  0.2683  0.0868
 1010TIP3    H224522   2.143   2.996   3.484  0.9050 -0.2205 -0.1123
 1011TIP3   OH224523   1.384   0.772   4.497  0.3618  0.3707 -0.0747
 1011TIP3    H124524   1.353   0.698   4.548  1.8251 -0.8131 -0.8483
 1011TIP3    H224525   1.405   0.839   4.563 -2.2248  0.6196  0.5349
 1012TIP3   OH224526   1.754   6.398  17.164  0.4229 -0.0783 -0.2527
 1012TIP3    H124527   1.709   6.436  17.089 -1.9405  1.9877  2.1099
 1012TIP3    H224528   1.826   6.458  17.183  1.1903 -0.7463 -0.9894
 1013TIP3   OH224529   5.254   1.209   3.321  0.1130  0.3135 -1.0244
 1013TIP3    H124530   5.263   1.146   3.249  1.2457  0.1972 -0.7976
 1013TIP3    H224531   5.322   1.183   3.383 -1.9880 -0.6838  0.9152
 1014TIP3   OH224532   2.859   1.549   1.295 -0.1492 -0.1230  0.1554
 1014TIP3    H124533   2.853   1.454   1.284 -3.6124 -0.3757  3.4685
 1014TIP3    H224534   2.773   1.581   1.269 -0.0418  1.7826  2.0578
 1015TIP3   OH224535   2.028   4.340   2.167 -0.4207 -0.2385  0.0379
 1015TIP3    H124536   2.085   4.370   2.238 -0.3028 -3.4573  1.4026
 1015TIP3    H224537   1.946   4.315   2.210 -1.3471  0.3674 -1.3332
 1016TIP3   OH224538   4.435   5.335  14.028 -0.2800  0.1905  0.3827
 1016TIP3    H124539   4.414   5.399  14.095 -0.1246 -0.4649  1.0634
 1016TIP3    H224540   4.350   5.310  13.991 -0.4052  0.1971  0.6676
 1017TIP3   OH224541   2.205   2.878   2.310 -0.2552  0.1189 -0.4255
 1017TIP3    H124542   2.135   2.849   2.368  0.1295  0.6937  0.3292
 1017TIP3    H224543   2.269   2.807   2.312 -1.9412 -1.5740 -3.0975
 1018TIP3   OH224544   6.109   0.221   0.275  0.3938 -0.0546 -0.0848
 1018TIP3    H124545   6.179   0.168   0.312 -1.3953 -1.7443  0.9739
 1018TIP3    H224546   6.109   0.301   0.329 -0.4825 -1.3723  1.9402
 1019TIP3   OH224547   3.215   3.174  13.527 -0.3652  0.0504 -0.1212
 1019TIP3    H124548   3.308   3.151  13.525 -0.4662 -0.3966  0.2334
 1019TIP3    H224549   3.209   3.244  13.592 -0.1690  0.5805 -0.6690
 1020TIP3   OH224550   6.072   5.703  15.651 -0.5520  0.5937 -0.2260
 1020TIP3    H124551   6.053   5.691  15.744 -0.8866  1.3184 -0.1999
 1020TIP3    H224552   6.078   5.614  15.617  0.3250  0.3082  0.6409
 1021TIP3   OH224553   2.600   3.509  16.606 -0.1865  0.2977  0.3719
 1021TIP3    H124554   2.579   3.415  16.611 -1.6337  0.5569 -0.5832
 1021TIP3    H224555   2.687   3.512  16.567  0.9742 -0.7319  2.7692
 1022TIP3   OH224556   2.325   1.023  17.102 -0.0906 -0.3170  0.4544
 1022TIP3    H124557   2.245   1.038  17.051 -0.7435 -1.9782  0.9791
 1022TIP3    H224558   2.369   0.952  17.056  0.2174 -0.5956  1.1885
 1023TIP3   OH224559   1.293   0.008  15.177  0.1226 -0.3512  0.4407
 1023TIP3    H124560   1.311   0.012  15.270 -0.0152 -0.3405  0.4675
 1023TIP3    H224561   1.278   0.099  15.151  2.1890 -0.1221 -0.0014
 1024TIP3   OH224562   2.737   2.654   4.093  0.2450 -0.2001  0.3691
 1024TIP3    H124563   2.702   2.712   4.026  0.3468 -0.2034  0.3119
 1024TIP3    H224564   2.752   2.571   4.047  0.8281 -0.0398  0.2646
 1025TIP3   OH224565   4.192   3.518  13.764 -0.1914  0.0632  0.2454
 1025TIP3    H124566   4.160   3.548  13.679 -0.4960  1.7590  0.9400
 1025TIP3    H224567   4.283   3.493  13.749  0.5458  2.8474 -0.0296
 1026TIP3   OH224568   4.537   1.427   2.666  0.0925 -0.1595  0.1854
 1026TIP3    H124569   4.518   1.479   2.588 -0.7314 -0.3604  0.2461
 1026TIP3    H224570   4.579   1.488   2.726 -0.8551  0.4384  0.2502
 1027TIP3   OH224571   4.875   1.452  13.808  0.2464  0.5115  0.2130
 1027TIP3    H124572   4.833   1.400  13.877  0.6209 -2.1351 -1.4711
 1027TIP3    H224573   4.954   1.487  13.849 -0.3703  0.3280  1.5908
 1028TIP3   OH224574   2.590   5.434  16.935  0.3522  0.2007 -0.1387
 1028TIP3    H124575   2.530   5.509  16.941  1.5726  1.2138 -0.5427
 1028TIP3    H224576   2.585   5.406  16.844  0.4671  0.2530 -0.1622
 1029TIP3   OH224577   3.391   3.778   4.507 -0.2038  0.0817  0.1480
 1029TIP3    H124578   3.457   3.709   4.507 -1.5086 -1.2113  1.1055
 1029TIP3    H224579   3.378   3.798   4.600  0.1356  1.6152 -0.1186
 1030TIP3   OH224580   2.621   4.738   6.595  0.2430 -0.3783 -0.2370
 1030TIP3    H124581   2.579   4.676   6.535  0.3911 -1.4360  0.7446
 1030TIP3    H224582   2.563   4.815   6.594  0.4721 -0.2059 -2.0607
 1031TIP3   OH224583   1.324   0.103   5.153  0.3530  0.1067  0.1412
 1031TIP3    H124584   1.410   0.072   5.126  1.0551  1.2832  1.0301
 1031TIP3    H224585   1.289   0.031   5.206 -0.5481 -1.7265 -2.8003
 1032TIP3   OH224586   3.620   5.189  16.891  0.2752 -0.6168 -0.5069
 1032TIP3    H124587   3.662   5.260  16.843 -0.0876  0.0876  0.2228
 1032TIP3    H224588   3.546   5.163  16.835  1.2959 -1.4576 -1.4995
 1033TIP3   OH224589   2.499   0.467   6.563  0.4214  0.3270 -0.0961
 1033TIP3    H124590   2.432   0.468   6.495 -1.3329  1.1580  1.5884
 1033TIP3    H224591   2.485   0.548   6.611  3.3295  1.0311 -0.3203
 1034TIP3   OH224592   6.403   1.838  13.449  0.0189  0.3229 -0.2154
 1034TIP3    H124593   6.491   1.877  13.450 -0.1472  0.6915 -0.0838
 1034TIP3    H224594   6.414   1.754  13.494  0.5697 -0.2104 -1.2952
 1035TIP3   OH224595   0.085   6.642   2.223  0.2556 -0.3987 -0.1354
 1035TIP3    H124596   0.115   6.570   2.168  0.5198 -0.0585 -0.4347
 1035TIP3    H224597   0.091   6.608   2.313  0.0728 -0.8581 -0.2979
 1036TIP3   OH224598   4.612   6.359   2.192 -0.2592  0.1685 -0.1605
 1036TIP3    H124599   4.614   6.335   2.284  0.4690 -1.9598 -0.7008
 1036TIP3    H224600   4.542   6.424   2.185 -0.1159  0.5863  1.9238
 1037TIP3   OH224601   5.706   4.333  13.161  0.1853  0.2209 -0.6445
 1037TIP3    H124602   5.617   4.320  13.130 -1.1762  3.9486  1.3253
 1037TIP3    H224603   5.745   4.392  13.096  0.5311  0.2104 -0.4464
 1038TIP3   OH224604   6.650   4.717  12.341 -0.4041  0.2066 -0.1048
 1038TIP3    H124605   6.739   4.681  12.338  0.1494  1.2472  2.5682
 1038TIP3    H224606   6.661   4.806  12.374 -2.5424 -0.0076  1.2315
 1039TIP3   OH224607   3.692   5.660   3.267  0.1701 -0.3721  0.2424
 1039TIP3    H124608   3.652   5.665   3.180 -1.0141  0.3048  0.8038
 1039TIP3    H224609   3.785   5.648   3.251  0.0012  0.0917 -1.1249
 1040TIP3   OH224610   5.328   2.705  10.902 -0.4974 -0.1325 -0.4123
 1040TIP3    H124611   5.237   2.691  10.875  0.3022 -1.7151 -2.4380
 1040TIP3    H224612   5.369   2.746  10.825  0.8263 -0.7002 -0.0165
 1041TIP3   OH224613   0.702   0.327   0.163  0.2901 -0.6415 -0.6958
 1041TIP3    H124614   0.725   0.341   0.254  2.2895 -0.0302 -1.2662
 1041TIP3    H224615   0.736   0.240   0.142 -1.5193 -1.4307 -0.4614
 1042TIP3   OH224616   6.584   4.964   5.088  0.1184  0.2400 -0.1199
 1042TIP3    H124617   6.532   5.016   5.149 -0.8093 -0.4850 -0.2786
 1042TIP3    H224618   6.538   4.973   5.004 -0.1635 -0.9835 -0.1050
 1043TIP3   OH224619   4.293   0.053   3.284 -0.1764  0.2039 -0.0020
 1043TIP3    H124620   4.294  -0.029   3.234  2.3523  1.6438 -2.4615
 1043TIP3    H224621   4.202   0.082   3.282 -0.3667 -0.4860 -2.6676
 1044TIP3   OH224622   6.395   6.210  10.501 -0.3757  0.4888  0.0063
 1044TIP3    H124623   6.409   6.293  10.456 -0.4813  0.1103 -0.7421
 1044TIP3    H224624   6.410   6.229  10.593 -0.0475  1.2561 -0.2046
 1045TIP3   OH224625   0.576   3.830   3.406  0.0536  0.1456 -0.1380
 1045TIP3    H124626   0.607   3.789   3.487 -2.0691  2.3883  1.9228
 1045TIP3    H224627   0.526   3.761   3.362  0.1001 -0.7406  1.1633
 1046TIP3   OH224628   2.065   1.753   5.676  0.0228 -0.3107  0.3854
 1046TIP3    H124629   2.107   1.837   5.661 -1.0984 -0.0112 -1.1665
 1046TIP3    H224630   2.094   1.697   5.604 -0.5445 -0.7467  0.4820
 1047TIP3   OH224631   4.277   2.860   0.321  0.2473  0.3429 -0.2378
 1047TIP3    H124632   4.298   2.773   0.355 -0.4903  0.9677  1.9292
 1047TIP3    H224633   4.356   2.912   0.339  0.6088  0.1751 -1.3366
 1048TIP3   OH224634   4.493   0.485  14.245 -0.1275 -0.2521 -0.0814
 1048TIP3    H124635   4.468   0.515  14.332  0.8772  1.1691 -0.2623
 1048TIP3    H224636   4.492   0.564  14.191 -0.9733 -1.1541 -1.4333
 1049TIP3   OH224637   2.134   0.692  12.474 -0.3733 -0.5800  0.2205
 1049TIP3    H124638   2.109   0.631  12.544  1.9242 -2.8116 -0.8166
 1049TIP3    H224639   2.100   0.651  12.394 -0.9696  0.8001 -0.2489
 1050TIP3   OH224640   3.744   2.197   3.726  0.1728  0.2604 -0.0848
 1050TIP3    H124641   3.721   2.262   3.792  1.5229  0.7242 -0.0626
 1050TIP3    H224642   3.686   2.123   3.745  1.3746 -0.0910  2.4075
 1051TIP3   OH224643   3.921   3.380  10.842 -0.2962  0.1052 -0.2839
 1051TIP3    H124644   3.892   3.470  10.859 -1.7196 -0.4532  0.3218
 1051TIP3    H224645   3.855   3.344  10.783  0.0878 -0.6501 -0.2644
 1052TIP3   OH224646   1.153   0.843  11.735  0.0507 -0.1043 -0.0190
 1052TIP3    H124647   1.224   0.794  11.693 -1.0968 -1.9498  0.1182
 1052TIP3    H224648   1.113   0.893  11.664  1.4467  0.9008 -0.1048
 1053TIP3   OH224649   5.946   3.042  13.854  0.3286 -0.2353 -0.1129
 1053TIP3    H124650   5.911   3.097  13.784  3.2168 -0.1009 -1.5382
 1053TIP3    H224651   5.941   3.098  13.932  1.3794  1.4059 -1.1615
 1054TIP3   OH224652   6.487   1.925  13.106 -0.0765 -0.1506  0.0039
 1054TIP3    H124653   6.505   1.949  13.197 -1.8994 -0.5676  0.5009
 1054TIP3    H224654   6.462   2.008  13.065 -0.2929 -0.1450  0.1468
 1055TIP3   OH224655   5.863   3.343  12.582 -0.0885  0.0157  0.5753
 1055TIP3    H124656   5.877   3.250  12.564  2.0407  0.8247 -2.2395
 1055TIP3    H224657   5.951   3.381  12.582 -0.9726  2.1565  1.1073
 1056TIP3   OH224658   4.145   4.225   6.306  0.3482 -0.6025  0.4063
 1056TIP3    H124659   4.107   4.191   6.387 -0.7494 -0.4003 -0.0079
 1056TIP3    H224660   4.130   4.156   6.242 -0.1808 -0.1318  0.0136
 1057TIP3   OH224661   4.320   5.219  13.305 -0.2658  0.8108 -0.3997
 1057TIP3    H124662   4.282   5.239  13.219  1.3083 -1.7523 -1.7512
 1057TIP3    H224663   4.261   5.154  13.343  0.0706  0.5108 -0.3847
 1058TIP3   OH224664   2.446   6.797   2.936  0.5949  0.0315 -0.4945
 1058TIP3    H124665   2.447   6.772   3.029  0.0372 -1.1565 -0.7875
 1058TIP3    H224666   2.382   6.737   2.897  0.9599  0.4094 -1.6782
 1059TIP3   OH224667   0.453   6.386  11.605  0.1613  0.3365 -0.1905
 1059TIP3    H124668   0.478   6.476  11.585  0.0005  0.4435  0.0895
 1059TIP3    H224669   0.477   6.336  11.526 -2.9838  1.1869 -1.7416
 1060TIP3   OH224670   0.821   5.441  15.198 -0.1281  0.3662  0.1915
 1060TIP3    H124671   0.842   5.529  15.168  2.2747 -0.2584 -0.0656
 1060TIP3    H224672   0.900   5.412  15.245 -0.3923 -2.0773 -0.7694
 1061TIP3   OH224673   1.838   2.559  15.091 -0.3064 -0.0854 -0.1072
 1061TIP3    H124674   1.880   2.474  15.076 -2.9539 -1.3632 -0.4451
 1061TIP3    H224675   1.827   2.595  15.003 -0.9319 -0.2515 -0.0958
 1062TIP3   OH224676   3.624   3.918   1.706  0.5017  0.8746  0.1094
 1062TIP3    H124677   3.672   3.880   1.780 -0.3117 -2.8593 -1.1287
 1062TIP3    H224678   3.613   3.844   1.646 -2.8546  2.7047 -1.6506
 1063TIP3   OH224679   3.457   3.762   4.223 -0.3725  0.1444  0.1530
 1063TIP3    H124680   3.369   3.782   4.191  0.8170  2.2875 -1.8633
 1063TIP3    H224681   3.452   3.777   4.317 -2.6946 -1.7915  0.4036
 1064TIP3   OH224682   3.831   5.504   2.914  0.4532 -0.0248 -0.2422
 1064TIP3    H124683   3.791   5.458   2.988 -0.2848 -0.0547 -0.6586
 1064TIP3    H224684   3.810   5.450   2.838  3.0756 -1.1888 -0.2222
 1065TIP3   OH224685   3.460   1.801  13.481 -0.7452 -0.0422  0.3358
 1065TIP3    H124686   3.453   1.808  13.576  1.8964 -0.1185  0.5771
 1065TIP3    H224687   3.551   1.775  13.465 -1.1795 -0.1677 -2.2077
 1066TIP3   OH224688   4.896   6.322   1.269 -0.5616  0.1243 -0.0300
 1066TIP3    H124689   4.852   6.407   1.273  0.1966  0.5647 -0.7963
 1066TIP3    H224690   4.832   6.264   1.228 -0.6002  0.6481 -0.7242
 1067TIP3   OH224691   4.501   1.521   1.643 -0.0011 -0.5599  0.5304
 1067TIP3    H124692   4.496   1.615   1.659 -0.7873 -0.6921  1.0812
 1067TIP3    H224693   4.460   1.481   1.720 -0.9988 -1.3041 -0.3766
 1068TIP3   OH224694   3.021   0.918   2.649  0.1456 -0.4955 -0.4859
 1068TIP3    H124695   2.992   0.855   2.584  1.2104 -1.6496  0.1272
 1068TIP3    H224696   2.954   0.987   2.649 -0.1897 -0.8173 -2.3043
 1069TIP3   OH224697   2.830   0.765   3.768  0.1758 -0.0649 -0.1902
 1069TIP3    H124698   2.921   0.739   3.784 -0.1461 -0.9824  0.1804
 1069TIP3    H224699   2.790   0.689   3.726 -0.7234 -0.1029  0.7125
 1070TIP3   OH224700   6.340   2.114   1.339  0.2148  0.3777  0.2988
 1070TIP3    H124701   6.301   2.162   1.412 -0.6835 -1.0424  0.7844
 1070TIP3    H224702   6.384   2.040   1.381 -0.0373 -0.2754 -0.5702
 1071TIP3   OH224703   2.401   1.030  16.690  0.1208 -0.2001  0.1522
 1071TIP3    H124704   2.458   0.954  16.702 -0.1056 -0.2489  0.9525
 1071TIP3    H224705   2.448   1.102  16.731  0.1855  0.0306 -0.3197
 1072TIP3   OH224706   3.657   6.554   3.154  0.4759 -0.0889 -0.1499
 1072TIP3    H124707   3.624   6.472   3.190  0.8644 -0.0175  0.3872
 1072TIP3    H224708   3.590   6.583   3.093 -0.8804  0.5237  1.5729
 1073TIP3   OH224709   3.448   0.245   2.432 -0.9155  0.0542 -0.2636
 1073TIP3    H124710   3.419   0.315   2.373 -1.5102 -0.1457 -0.2044
 1073TIP3    H224711   3.530   0.214   2.392 -0.4855  0.9852 -0.1221
 1074TIP3   OH224712   5.139   0.256  15.091  0.2432  0.5224 -0.5050
 1074TIP3    H124713   5.102   0.252  15.179  1.3591 -0.6768 -0.0742
 1074TIP3    H224714   5.134   0.165  15.060  1.2902  0.6625 -1.0811
 1075TIP3   OH224715   1.209   2.779  12.430  0.1998  0.6187 -0.2988
 1075TIP3    H124716   1.184   2.832  12.354  0.2705  3.4152  1.5859
 1075TIP3    H224717   1.303   2.795  12.440  0.5448 -1.0747 -0.5815
 1076TIP3   OH224718   1.885   0.084  12.512 -0.4237  0.0796  0.2461
 1076TIP3    H124719   1.815   0.031  12.550 -0.3288 -0.1255  0.1326
 1076TIP3    H224720   1.839   0.162  12.478 -0.3529  0.8154  1.8098
 1077TIP3   OH224721   4.763   0.685   0.715 -0.1336  0.1167  0.4731
 1077TIP3    H124722   4.786   0.746   0.645  1.7906  1.6310  2.3579
 1077TIP3    H224723   4.702   0.734   0.771 -0.0577 -0.3559  0.9767
 1078TIP3   OH224724   2.868   2.933  13.591  0.3857 -0.2829 -0.7448
 1078TIP3    H124725   2.849   2.981  13.511 -2.0094  0.7353  0.3782
 1078TIP3    H224726   2.947   2.974  13.626 -1.0591  2.2228 -0.3158
 1079TIP3   OH224727   5.104   6.091  13.926  0.2822  0.7336 -0.1716
 1079TIP3    H124728   5.175   6.029  13.943  1.1071  0.8182 -3.0952
 1079TIP3    H224729   5.148   6.176  13.916 -0.7532  1.7326  2.9009
 1080TIP3   OH224730   2.973   1.101  14.687 -0.5098  0.5316  0.5743
 1080TIP3    H124731   2.958   1.020  14.638 -0.6686 -0.2290  1.8516
 1080TIP3    H224732   2.930   1.169  14.636 -0.5856 -0.2312 -0.3885
 1081TIP3   OH224733   2.353   4.973  14.466 -0.0527  0.3603 -0.5007
 1081TIP3    H124734   2.384   5.064  14.466 -0.1967  0.4098 -0.0230
 1081TIP3    H224735   2.276   4.974  14.523  0.5605 -0.2672  0.3527
 1082TIP3   OH224736   2.646   0.851   3.938 -0.2506  0.0477 -0.3202
 1082TIP3    H124737   2.569   0.867   3.884  0.0543  0.2680 -0.6954
 1082TIP3    H224738   2.710   0.813   3.878  0.9422  2.5207 -0.6972
 1083TIP3   OH224739   4.975   4.806   1.645  0.2299 -0.1187 -0.3593
 1083TIP3    H124740   5.067   4.832   1.649  0.0512  0.2954  1.4922
 1083TIP3    H224741   4.927   4.888   1.656 -0.3363 -0.6981  1.8153
 1084TIP3   OH224742   4.716   3.161  11.802 -0.2122 -0.3989 -0.5434
 1084TIP3    H124743   4.682   3.182  11.889  1.2080  0.6676 -0.2145
 1084TIP3    H224744   4.641   3.125  11.755 -1.2190 -0.1775  0.8418
 1085TIP3   OH224745   6.493   2.723  16.843  0.0756 -0.2449 -0.0386
 1085TIP3    H124746   6.527   2.649  16.793 -1.7608 -0.8796 -0.3818
 1085TIP3    H224747   6.531   2.801  16.801  1.5846 -0.9461 -0.0049
 1086TIP3   OH224748   3.938   6.361   2.180  0.1666  0.3419 -1.2616
 1086TIP3    H124749   4.027   6.380   2.211 -0.4169  0.5773  0.3240
 1086TIP3    H224750   3.887   6.350   2.260 -1.4215  1.0727 -2.1551
 1087TIP3   OH224751   0.403   2.385  13.355  0.2807  0.8998 -0.1889
 1087TIP3    H124752   0.436   2.357  13.270 -1.7368  0.2705 -0.7841
 1087TIP3    H224753   0.380   2.304  13.401 -1.3738  1.3449 -0.1920
 1088TIP3   OH224754   4.747   1.672  15.849 -0.6220  0.4694  0.0335
 1088TIP3    H124755   4.716   1.618  15.776 -1.4501  1.1242 -0.0958
 1088TIP3    H224756   4.668   1.710  15.887 -0.1212  0.8201  0.7361
 1089TIP3   OH224757   5.614   3.801   6.599 -0.1246 -0.2585 -0.2045
 1089TIP3    H124758   5.708   3.808   6.583 -0.1809 -0.6682 -0.7057
 1089TIP3    H224759   5.593   3.877   6.654  0.6471 -0.6184  0.5803
 1090TIP3   OH224760   5.819   0.998  12.434  0.0796  0.0362 -0.3649
 1090TIP3    H124761   5.838   0.931  12.500 -0.6028  1.1595  0.9959
 1090TIP3    H224762   5.877   1.071  12.456  0.8431 -0.1014 -1.8640
 1091TIP3   OH224763   2.303   5.319   3.661 -0.6495 -0.5767  0.0352
 1091TIP3    H124764   2.335   5.358   3.742 -0.5427 -1.0784  0.2355
 1091TIP3    H224765   2.283   5.228   3.684  0.1748 -0.9492 -0.7009
 1092TIP3   OH224766   3.032   2.631   6.118 -0.1780  0.6380  0.3530
 1092TIP3    H124767   2.958   2.626   6.179 -0.6127  0.3608 -0.1936
 1092TIP3    H224768   2.997   2.600   6.035  0.2848  1.4814 -0.1595
 1093TIP3   OH224769   6.358   2.353   4.636  0.1611  0.1133 -0.5454
 1093TIP3    H124770   6.417   2.400   4.695 -1.5558  0.6920  0.7600
 1093TIP3    H224771   6.271   2.388   4.656 -1.0401 -2.8313 -0.2744
 1094TIP3   OH224772   5.330   5.097  15.302 -0.2204  0.0303 -0.2786
 1094TIP3    H124773   5.249   5.088  15.353  1.0538 -1.3125  1.6045
 1094TIP3    H224774   5.357   5.188  15.316  0.9472 -0.7374  2.8365
 1095TIP3   OH224775   2.596   1.015  11.930 -0.1228 -0.6931  0.4605
 1095TIP3    H124776   2.561   1.091  11.884 -1.7462 -0.9760  1.1926
 1095TIP3    H224777   2.581   0.941  11.871  1.6874 -0.4393 -0.3623
 1096TIP3   OH224778   4.662   5.094   5.355 -0.1851 -0.3775  0.0639
 1096TIP3    H124779   4.705   5.011   5.375 -0.9251 -0.2381  2.3246
 1096TIP3    H224780   4.588   5.098   5.416 -1.5408  0.8565 -1.6063
 1097TIP3   OH224781   6.177   0.878   4.077 -0.4614 -0.4351 -0.3856
 1097TIP3    H124782   6.210   0.964   4.050 -1.6280  0.4571  0.9234
 1097TIP3    H224783   6.242   0.846   4.139 -1.7227  1.1042  1.8145
 1098TIP3   OH224784   5.240   6.130   3.375 -0.0899 -0.3732 -0.2572
 1098TIP3    H124785   5.169   6.175   3.328  0.3370  0.2516 -0.3100
 1098TIP3    H224786   5.296   6.200   3.407  0.1774 -0.8427  0.3164
 1099TIP3   OH224787   0.154   5.781   5.989  0.3778 -0.5353  0.3535
 1099TIP3    H124788   0.208   5.763   6.066  0.3848 -0.0419  0.4655
 1099TIP3    H224789   0.196   5.857   5.948 -0.1790 -0.2113  0.3868
 1100TIP3   OH224790   6.752   2.241  12.872  0.2456  0.3842 -0.6297
 1100TIP3    H124791   6.690   2.169  12.881  0.0352  0.2660 -2.8581
 1100TIP3    H224792   6.698   2.320  12.865  0.4885  1.0096  3.2551
 1101TIP3   OH224793   6.710   6.150   0.903 -0.0793  0.1623 -0.0345
 1101TIP3    H124794   6.789   6.187   0.940 -0.3111  1.4617 -0.8099
 1101TIP3    H224795   6.737   6.118   0.816 -0.3622  0.4885 -0.2458
 1102TIP3   OH224796   3.512   0.646   3.736 -0.3163  0.2042 -0.7500
 1102TIP3    H124797   3.543   0.703   3.806  0.1555 -0.8131 -0.1284
 1102TIP3    H224798   3.576   0.575   3.732 -0.6622 -0.0642 -1.8123
 1103TIP3   OH224799   2.160   2.761  14.252  0.3118 -0.0830  0.3753
 1103TIP3    H124800   2.220   2.835  14.249 -0.8969  0.8940 -0.7073
 1103TIP3    H224801   2.129   2.759  14.343 -0.8185  1.7379  0.0664
 1104TIP3   OH224802   4.359   4.728   2.963 -0.4406 -0.4884  0.4033
 1104TIP3    H124803   4.277   4.712   2.917  1.4290 -3.0804 -2.1870
 1104TIP3    H224804   4.379   4.645   3.007 -0.0400  0.6576  2.4990
 1105TIP3   OH224805   0.313   5.416  11.994  0.7236 -0.3611  0.2459
 1105TIP3    H124806   0.242   5.353  11.980  0.3181 -0.1191  1.1481
 1105TIP3    H224807   0.301   5.482  11.925  0.0633 -0.3245  0.3885
 1106TIP3   OH224808   0.288   4.772   4.028 -0.3243 -0.0092 -0.0228
 1106TIP3    H124809   0.340   4.768   3.947  0.6439  0.8873  0.5371
 1106TIP3    H224810   0.197   4.775   3.998  0.0409  0.8247 -1.1067
 1107TIP3   OH224811   5.875   5.902   4.551 -0.2705  0.2530  0.3158
 1107TIP3    H124812   5.877   5.957   4.629  0.8259 -0.1780  0.6056
 1107TIP3    H224813   5.783   5.882   4.537 -0.6156  1.6113  0.5910
 1108TIP3   OH224814   2.240   6.293  15.791  0.0683  0.0779  0.1517
 1108TIP3    H124815   2.288   6.370  15.822 -0.2810  0.5307 -0.4181
 1108TIP3    H224816   2.303   6.244  15.739  0.9091 -1.1354  2.2842
 1109TIP3   OH224817   5.120   3.895  13.504  0.0198 -0.6697 -1.1161
 1109TIP3    H124818   5.143   3.988  13.509  0.9566 -0.9577  0.1533
 1109TIP3    H224819   5.192   3.855  13.455  0.5783 -1.0214 -0.0305
 1110TIP3   OH224820   5.123   0.402  10.315  0.2959 -0.1220 -0.1127
 1110TIP3    H124821   5.083   0.450  10.387 -0.8926  0.5935 -1.2251
 1110TIP3    H224822   5.049   0.360  10.270  1.1053 -1.2648 -0.3983
 1111TIP3   OH224823   4.676   1.063   2.873  0.0184  0.3890  0.5783
 1111TIP3    H124824   4.633   1.114   2.941 -0.7749  0.2448  0.1926
 1111TIP3    H224825   4.632   1.089   2.792  0.5503  0.1224  0.1992
 1112TIP3   OH224826   3.355   2.351   6.008 -0.2515  0.2319 -0.6124
 1112TIP3    H124827   3.270   2.309   5.997  0.6985 -1.9208 -0.0076
 1112TIP3    H224828   3.335   2.433   6.053 -1.9937 -0.2743 -0.4134
 1113TIP3   OH224829   2.438   0.214  13.153 -0.0955  0.1672  0.6950
 1113TIP3    H124830   2.356   0.223  13.201 -0.1834  0.2938  0.5220
 1113TIP3    H224831   2.500   0.178  13.216 -0.9077 -2.2203  0.1700
 1114TIP3   OH224832   3.312   1.119   2.475 -0.6792  0.0673 -0.1334
 1114TIP3    H124833   3.382   1.184   2.468 -0.2301 -0.2635  1.1615
 1114TIP3    H224834   3.239   1.157   2.426  0.2439  0.6134 -1.1287
 1115TIP3   OH224835   4.701   6.531  10.744 -0.0227  0.1489  0.3858
 1115TIP3    H124836   4.744   6.558  10.826 -0.1706  2.9275 -0.3947
 1115TIP3    H224837   4.753   6.572  10.675 -1.2650 -0.2418 -0.8121
 1116TIP3   OH224838   5.760   1.177   3.533  0.1049  0.6557 -0.1296
 1116TIP3    H124839   5.763   1.082   3.521 -0.1279  0.5882  0.3339
 1116TIP3    H224840   5.849   1.200   3.560 -0.4091  0.2640  1.9503
 1117TIP3   OH224841   2.575   0.342   5.309  0.1711 -0.1991 -0.3726
 1117TIP3    H124842   2.547   0.251   5.318 -1.0061  0.2226  0.4176
 1117TIP3    H224843   2.669   0.341   5.328  0.4332 -1.4473 -1.6979
 1118TIP3   OH224844   1.319   4.219  11.184  0.2989  0.1209  0.1791
 1118TIP3    H124845   1.381   4.206  11.113  1.9906  2.4418  1.1792
 1118TIP3    H224846   1.372   4.214  11.264 -1.3298 -1.0158  1.2244
 1119TIP3   OH224847   4.504   3.028  11.435 -0.5096  0.2023 -0.2410
 1119TIP3    H124848   4.480   2.987  11.517  2.3953  0.5435  0.8571
 1119TIP3    H224849   4.486   3.121  11.447 -0.2695  0.2251 -0.0619
 1120TIP3   OH224850   2.734   2.059  14.370  0.0929  0.5758 -0.4199
 1120TIP3    H124851   2.699   2.145  14.344  0.3385  0.9195  0.3666
 1120TIP3    H224852   2.812   2.049  14.316 -1.3049 -0.2972 -2.3452
 1121TIP3   OH224853   5.710   0.428   0.896 -0.0508 -0.4012  0.1372
 1121TIP3    H124854   5.741   0.483   0.968  0.0490 -0.8470  0.4406
 1121TIP3    H224855   5.692   0.343   0.937  0.3066 -0.7540 -0.4159
 1122TIP3   OH224856   2.045   4.818   5.057  0.2365  0.3580  0.5175
 1122TIP3    H124857   2.114   4.783   5.112 -1.0801 -0.9764  1.3652
 1122TIP3    H224858   1.989   4.868   5.117 -0.2717  0.3078  0.0975
 1123TIP3   OH224859   6.252   4.839   2.377  0.0958  0.0390 -0.2754
 1123TIP3    H124860   6.342   4.849   2.408 -0.2833  2.1355  0.1822
 1123TIP3    H224861   6.242   4.905   2.309 -0.8867 -0.6550 -0.8110
 1124TIP3   OH224862   3.941   5.024   1.103  0.1931  0.1206  0.4763
 1124TIP3    H124863   3.957   5.114   1.130 -0.7647 -0.0782  1.7080
 1124TIP3    H224864   4.005   4.972   1.151  1.8095  0.3019 -1.4392
 1125TIP3   OH224865   4.154   6.412  13.336  0.3798  0.0500 -0.2146
 1125TIP3    H124866   4.153   6.493  13.389  1.5753 -1.3286  2.0003
 1125TIP3    H224867   4.193   6.439  13.253  2.3459  1.4339  1.0958
 1126TIP3   OH224868   6.124   5.359  11.958  0.5039  0.0681  0.0295
 1126TIP3    H124869   6.155   5.334  12.045  0.5865 -0.7647 -0.2277
 1126TIP3    H224870   6.174   5.304  11.898 -1.1759 -1.0285 -0.4148
 1127TIP3   OH224871   2.288   2.817   0.992  0.1581 -0.6814  0.2055
 1127TIP3    H124872   2.333   2.733   0.986  2.5219  0.5473 -0.0098
 1127TIP3    H224873   2.221   2.804   1.060  0.5279 -2.6905  0.2132
 1128TIP3   OH224874   4.796   6.240   3.895  0.8450 -0.4109 -0.2560
 1128TIP3    H124875   4.715   6.208   3.936  0.8393  1.0996  0.9423
 1128TIP3    H224876   4.767   6.278   3.813  0.7963 -3.0354 -1.5045
 1129TIP3   OH224877   5.886   4.967   5.010  0.4557 -0.1089  0.4882
 1129TIP3    H124878   5.977   4.945   5.029 -0.0016 -1.1341  1.4941
 1129TIP3    H224879   5.835   4.900   5.054 -0.7584 -0.3530 -1.2467
 1130TIP3   OH224880   0.542   0.804   5.997  0.0897  0.1074 -0.1076
 1130TIP3    H124881   0.462   0.788   6.047 -0.5089 -1.1052 -1.4108
 1130TIP3    H224882   0.612   0.792   6.061 -0.6501 -1.5638  0.4277
 1131TIP3   OH224883   6.339   6.513   2.509 -0.1782  0.6035  0.4137
 1131TIP3    H124884   6.356   6.561   2.589  0.3161  0.8489  0.1646
 1131TIP3    H224885   6.339   6.421   2.535  1.9623  0.5526  0.3654
 1132TIP3   OH224886   0.247   0.123   0.561  0.3503 -0.4194  0.4813
 1132TIP3    H124887   0.214   0.091   0.644 -0.1330  0.9787  0.8324
 1132TIP3    H224888   0.187   0.088   0.495  0.8810 -1.7374  0.6717
 1133TIP3   OH224889   6.270   2.972  16.750  0.1280  0.3252 -0.2016
 1133TIP3    H124890   6.335   3.026  16.796  0.8591 -0.6393 -0.0739
 1133TIP3    H224891   6.186   3.010  16.774  0.6007  1.0130  0.3994
 1134TIP3   OH224892   1.735   6.289   5.269 -0.1812 -0.1391  0.2321
 1134TIP3    H124893   1.754   6.351   5.340  0.1378 -0.8303  0.7580
 1134TIP3    H224894   1.641   6.296   5.257  0.0426  1.5529 -0.7471
 1135TIP3   OH224895   6.510   4.558   4.588  0.4824 -0.4634  0.3147
 1135TIP3    H124896   6.554   4.591   4.666 -0.2901  1.5719 -0.0933
 1135TIP3    H224897   6.575   4.501   4.547  1.4953 -0.2238  1.5409
 1136TIP3   OH224898   0.898   6.201   1.289 -0.2871 -0.1152  0.4109
 1136TIP3    H124899   0.898   6.266   1.359 -0.0551 -0.3095  0.5931
 1136TIP3    H224900   0.836   6.235   1.224 -0.5811  0.0139  0.7583
 1137TIP3   OH224901   1.830   5.095   3.944  0.3659 -0.3785 -0.0392
 1137TIP3    H124902   1.915   5.058   3.920  0.5512  1.4415 -2.3098
 1137TIP3    H224903   1.850   5.161   4.010  0.6145 -0.5493  0.0565
 1138TIP3   OH224904   0.072   3.989  15.137 -0.2346 -0.0947  0.4710
 1138TIP3    H124905   0.088   4.055  15.069 -0.3584 -0.8947 -0.3512
 1138TIP3    H224906   0.076   4.037  15.219  2.5142  0.4441  0.0672
 1139TIP3   OH224907   2.292   0.910   2.090 -1.0325  0.4581  0.1488
 1139TIP3    H124908   2.342   0.936   2.012 -0.9127  2.7000  0.9545
 1139TIP3    H224909   2.232   0.842   2.058 -1.0785  1.4426 -1.9465
 1140TIP3   OH224910   6.143   2.084   3.388 -0.5115 -0.0753 -0.1459
 1140TIP3    H124911   6.216   2.083   3.326 -1.1440  1.9764 -0.9443
 1140TIP3    H224912   6.172   2.141   3.458 -1.1823  0.4135 -0.2641
 1141TIP3   OH224913   0.168   1.078   4.400  0.0477 -0.8500  0.0515
 1141TIP3    H124914   0.164   1.051   4.492  1.1212  1.8251  0.9476
 1141TIP3    H224915   0.104   1.150   4.393 -1.4754 -2.3408 -1.8072
 1142TIP3   OH224916   3.900   3.753   0.101 -0.3382  0.4306  0.6370
 1142TIP3    H124917   3.982   3.773   0.145  0.1529  0.6175 -0.3546
 1142TIP3    H224918   3.866   3.838   0.072 -0.4413  0.2669  0.2713
 1143TIP3   OH224919   6.458   4.872  13.121 -0.3547 -0.5035 -0.4246
 1143TIP3    H124920   6.396   4.867  13.048 -2.5329 -0.1686  1.3377
 1143TIP3    H224921   6.407   4.910  13.193  1.4896 -1.6773  1.5559
 1144TIP3   OH224922   4.627   3.854  11.896  0.6731 -0.4949  0.8175
 1144TIP3    H124923   4.574   3.811  11.963  1.0979 -0.6804  1.0385
 1144TIP3    H224924   4.657   3.935  11.938  0.1994 -0.1730  0.5381
 1145TIP3   OH224925   2.767   2.503   5.538  0.3201  0.3164  0.0630
 1145TIP3    H124926   2.738   2.528   5.450  0.0121 -0.9311 -0.1958
 1145TIP3    H224927   2.736   2.413   5.549  1.6312 -0.0430  0.8881
 1146TIP3   OH224928   6.343   4.256   4.252 -0.2896 -0.4303 -0.1523
 1146TIP3    H124929   6.340   4.214   4.166  0.9656 -1.1321  0.1398
 1146TIP3    H224930   6.406   4.326   4.243  0.8208 -1.3168  0.5390
 1147TIP3   OH224931   2.975   0.544  10.728  0.1393  0.5158  0.3645
 1147TIP3    H124932   2.889   0.536  10.687  0.2976  0.1101  0.1105
 1147TIP3    H224933   3.033   0.491  10.674  0.5627  0.8337  0.4994
 1148TIP3   OH224934   1.778   4.559   5.184 -0.5522 -0.2183  0.1838
 1148TIP3    H124935   1.750   4.537   5.274 -1.3809  1.9841  0.4799
 1148TIP3    H224936   1.846   4.625   5.196 -0.0757 -0.5334 -0.7976
 1149TIP3   OH224937   4.572   5.093  12.289 -0.3789 -0.5267  0.1480
 1149TIP3    H124938   4.528   5.168  12.328  0.8862  0.5594 -0.4658
 1149TIP3    H224939   4.569   5.110  12.194 -0.8354 -1.6712 -0.0518
 1150TIP3   OH224940   5.167   3.529  16.228 -0.1096 -0.2665  0.0023
 1150TIP3    H124941   5.143   3.597  16.164 -0.3402 -0.9054 -0.6005
 1150TIP3    H224942   5.231   3.475  16.182  0.7098  0.0304  0.7768
 1151TIP3   OH224943   1.022   1.824   3.210 -0.2956  0.2242 -0.1703
 1151TIP3    H124944   1.039   1.731   3.196  0.6682  0.4371 -0.4666
 1151TIP3    H224945   0.965   1.849   3.137 -1.6914 -0.4378  0.6782
 1152TIP3   OH224946   0.668   6.039  15.439 -0.4810 -0.0568  0.2028
 1152TIP3    H124947   0.605   5.986  15.392 -0.2445  0.1590 -0.3621
 1152TIP3    H224948   0.742   5.980  15.455 -1.2966 -0.6394  1.8843
 1153TIP3   OH224949   0.543   3.989   2.651 -0.1510  0.0115  0.3721
 1153TIP3    H124950   0.611   3.970   2.715  0.4598 -1.7353 -0.7494
 1153TIP3    H224951   0.506   3.903   2.629 -0.6901  0.6290 -1.2333
 1154TIP3   OH224952   2.766   2.733   3.412 -0.3590 -0.3589 -0.2696
 1154TIP3    H124953   2.672   2.751   3.418 -0.5789 -1.3177 -0.6240
 1154TIP3    H224954   2.784   2.675   3.487  0.3673  1.4180  0.9703
 1155TIP3   OH224955   3.350   6.569   1.456  0.4995 -0.6709 -0.0099
 1155TIP3    H124956   3.351   6.660   1.426  0.9626 -0.9045 -0.7181
 1155TIP3    H224957   3.314   6.520   1.382  0.3630 -1.0814  0.3255
 1156TIP3   OH224958   1.071   5.712   1.028  0.0260  0.6752  0.2005
 1156TIP3    H124959   1.155   5.756   1.025  0.9057 -1.0227 -0.3807
 1156TIP3    H224960   1.037   5.717   0.939 -0.0196  0.4620  0.2049
 1157TIP3   OH224961   6.050   4.912   2.570 -0.6176  0.0412  0.1548
 1157TIP3    H124962   6.101   4.888   2.493 -2.1858 -3.6965  0.1797
 1157TIP3    H224963   5.962   4.928   2.537 -1.1274 -0.8512  1.0547
 1158TIP3   OH224964   6.531   2.704  14.173  0.0537  0.4497  0.3495
 1158TIP3    H124965   6.595   2.726  14.240 -0.9116  0.3609  1.3074
 1158TIP3    H224966   6.467   2.649  14.217 -0.9173  0.8894 -0.4911
 1159TIP3   OH224967   4.243   0.852   2.266  0.3782 -0.1110 -0.1520
 1159TIP3    H124968   4.198   0.846   2.182 -0.7930  0.5504  0.4209
 1159TIP3    H224969   4.216   0.936   2.303  0.6203 -0.5388  1.0352
 1160TIP3   OH224970   1.466   6.175   5.791 -0.1223  0.2456 -0.1507
 1160TIP3    H124971   1.381   6.203   5.759 -0.3566  0.0869  0.3238
 1160TIP3    H224972   1.469   6.205   5.882  1.0120  1.7421 -0.6502
 1161TIP3   OH224973   0.050   2.445  16.023  0.2774  0.3535 -0.4747
 1161TIP3    H124974  -0.039   2.470  15.997 -0.1427 -1.6808 -1.0236
 1161TIP3    H224975   0.091   2.412  15.943  0.5497 -1.4734  0.4055
 1162TIP3   OH224976   2.436   5.327   1.790 -0.3858 -0.1019 -0.4738
 1162TIP3    H124977   2.416   5.269   1.717 -0.9575 -1.1952  0.5242
 1162TIP3    H224978   2.380   5.403   1.776  1.8563  1.1871 -2.9036
 1163TIP3   OH224979   4.454   6.435  16.193  0.0364  0.4460 -0.5240
 1163TIP3    H124980   4.469   6.527  16.169  2.7962 -0.6758 -3.3843
 1163TIP3    H224981   4.532   6.410  16.243 -0.0298 -0.7668 -1.0099
 1164TIP3   OH224982   2.575   0.651   2.811 -0.0824 -0.6541 -0.1384
 1164TIP3    H124983   2.560   0.576   2.752  0.5995 -0.7250 -0.2275
 1164TIP3    H224984   2.508   0.715   2.786  2.1067  0.5984 -3.1230
 1165TIP3   OH224985   1.750   3.540  16.432  0.0202 -0.5280  0.6956
 1165TIP3    H124986   1.687   3.597  16.477  2.0933  0.8572  1.9128
 1165TIP3    H224987   1.751   3.572  16.342  0.2594  0.5671  1.0799
 1166TIP3   OH224988   6.729   3.926   5.600 -0.0720  0.2457 -0.0337
 1166TIP3    H124989   6.732   4.015   5.563  0.8751 -0.8689 -2.8014
 1166TIP3    H224990   6.636   3.904   5.604 -0.3093  1.3593  0.6565
 1167TIP3   OH224991   3.614   2.386  13.349 -0.3028  0.3556  0.3314
 1167TIP3    H124992   3.641   2.442  13.276 -0.1800 -0.1899 -0.0473
 1167TIP3    H224993   3.552   2.325  13.311 -0.0706 -0.0763  0.6355
 1168TIP3   OH224994   2.258   2.478   0.799  0.5582  0.2917 -0.7158
 1168TIP3    H124995   2.215   2.534   0.865  0.0851 -0.7107 -0.1563
 1168TIP3    H224996   2.226   2.511   0.715 -0.8802 -0.0734 -0.3287
 1169TIP3   OH224997   3.904   1.575   5.746  0.5718 -0.0741 -0.1493
 1169TIP3    H124998   3.910   1.662   5.706  0.6740 -0.0880 -0.1645
 1169TIP3    H224999   3.930   1.588   5.837  0.8705 -0.1415 -0.2254
 1170TIP3   OH225000   0.356   4.188  15.191 -0.3867  0.5268 -0.7050
 1170TIP3    H125001   0.270   4.200  15.231 -0.1386 -1.6643  0.5543
 1170TIP3    H225002   0.353   4.242  15.112 -2.3053  1.7894  0.1712
 1171TIP3   OH225003   1.966   4.138  13.807 -0.2260  0.6051  0.4207
 1171TIP3    H125004   1.987   4.230  13.790  0.5319  0.5050  0.8021
 1171TIP3    H225005   2.048   4.091  13.790 -0.2692  0.1472  1.4236
 1172TIP3   OH225006   5.273   2.410  10.968  0.4363  0.0427  0.6649
 1172TIP3    H125007   5.300   2.373  10.884 -0.7525  2.0797 -0.6770
 1172TIP3    H225008   5.270   2.505  10.952 -2.4613  0.2564  2.1933
 1173TIP3   OH225009   5.505   6.711   6.549  0.9539  0.5253 -0.7257
 1173TIP3    H125010   5.549   6.662   6.618 -0.1966 -0.2164 -0.4973
 1173TIP3    H225011   5.468   6.644   6.492  0.9433  1.1350 -1.4464
 1174TIP3   OH225012   2.643   6.613   1.466 -0.5794  0.3164 -0.0979
 1174TIP3    H125013   2.710   6.627   1.400 -0.1432  1.0111  0.4906
 1174TIP3    H225014   2.562   6.602   1.416  0.1545 -1.8421 -0.8841
 1175TIP3   OH225015   1.617   4.442   0.248  0.4013 -0.1687  0.1594
 1175TIP3    H125016   1.631   4.361   0.199 -0.9251  0.1588 -0.7840
 1175TIP3    H225017   1.524   4.441   0.271  0.6293  0.5222  1.1867
 1176TIP3   OH225018   5.356   5.107  12.436  0.1140  0.3918  1.0138
 1176TIP3    H125019   5.301   5.074  12.365  1.5932 -0.3204  0.1579
 1176TIP3    H225020   5.418   5.166  12.392  0.1962  0.9779  1.9114
 1177TIP3   OH225021   0.104   4.011  13.338 -0.2537 -0.5471 -0.1392
 1177TIP3    H125022   0.012   3.991  13.322  0.4127 -2.0292 -2.3541
 1177TIP3    H225023   0.122   3.971  13.424 -2.1769  1.6449  1.3573
 1178TIP3   OH225024   6.679   5.601   1.222 -0.1566 -1.2304 -0.8929
 1178TIP3    H125025   6.724   5.604   1.307  1.4346 -0.0556 -1.7506
 1178TIP3    H225026   6.731   5.539   1.170 -0.5553 -1.2032 -1.3180
 1179TIP3   OH225027   2.490   1.547  11.607  0.3203  0.0334 -0.5003
 1179TIP3    H125028   2.464   1.458  11.584  0.7701 -0.6444  1.5365
 1179TIP3    H225029   2.585   1.548  11.599  0.4599 -0.1442  1.0541
 1180TIP3   OH225030   3.821   6.201  10.868  0.0791 -0.5129 -0.4610
 1180TIP3    H125031   3.730   6.232  10.869  0.1037 -0.3799  1.9430
 1180TIP3    H225032   3.817   6.118  10.821 -0.8419  0.6817 -2.5553
 1181TIP3   OH225033   1.550   5.195   1.299  0.4368 -0.1814  0.6128
 1181TIP3    H125034   1.488   5.122   1.293  0.5721 -0.3064  0.7276
 1181TIP3    H225035   1.610   5.182   1.225  0.4276 -0.1544  0.6005
 1182TIP3   OH225036   1.615   4.789  14.472  0.5930  0.0580 -0.2417
 1182TIP3    H125037   1.613   4.866  14.529  0.7396  1.7789 -2.4531
 1182TIP3    H225038   1.664   4.818  14.395  0.8020 -2.3361 -1.0502
 1183TIP3   OH225039   1.466   3.537  11.176 -0.5157  0.2620  0.5448
 1183TIP3    H125040   1.557   3.546  11.148 -0.4265  1.5507  1.1861
 1183TIP3    H225041   1.433   3.461  11.129  0.7822  0.0302  0.0061
 1184TIP3   OH225042   0.870   5.928  14.744 -0.7339 -0.0116 -0.0356
 1184TIP3    H125043   0.788   5.975  14.759  0.6156  2.4267  0.0452
 1184TIP3    H225044   0.861   5.891  14.657 -2.0760 -0.1229  0.1387
 1185TIP3   OH225045   4.511   1.748  16.826  0.0253 -0.5492  0.3472
 1185TIP3    H125046   4.490   1.747  16.733 -0.9786 -2.9410  0.5553
 1185TIP3    H225047   4.431   1.776  16.869  0.4098  0.3053  0.5144
 1186TIP3   OH225048   6.256   3.087  13.532  0.0320  0.0700  0.2458
 1186TIP3    H125049   6.210   3.019  13.581  0.0154  0.1176  0.2970
 1186TIP3    H225050   6.289   3.147  13.600  0.9737 -0.4678  0.2779
 1187TIP3   OH225051   5.526   2.937  12.967  0.0525  0.4284  0.0858
 1187TIP3    H125052   5.430   2.942  12.975  0.1248 -0.6365  1.8957
 1187TIP3    H225053   5.546   2.844  12.976  1.2850  0.6916  0.1542
 1188TIP3   OH225054   1.180   0.907  14.600 -0.2647 -0.0911  0.0261
 1188TIP3    H125055   1.240   0.881  14.531  0.6065  0.7440  0.4585
 1188TIP3    H225056   1.151   0.825  14.640  2.6349 -0.4219  1.5485
 1189TIP3   OH225057   5.707   6.424  14.323  0.1923  0.4501 -0.5405
 1189TIP3    H125058   5.779   6.447  14.265  1.2456  1.3997  1.1210
 1189TIP3    H225059   5.655   6.504  14.330  0.3622  0.4914  0.2433
 1190TIP3   OH225060   3.398   1.421   1.281 -0.4704  0.6686  0.1570
 1190TIP3    H125061   3.471   1.465   1.237 -0.4419  0.9233  0.4563
 1190TIP3    H225062   3.439   1.353   1.335 -0.5243  0.1767 -0.4170
 1191TIP3   OH225063   1.837   1.538  14.584 -0.6681 -0.0613 -0.4862
 1191TIP3    H125064   1.850   1.582  14.500 -0.6885  1.3857  0.2604
 1191TIP3    H225065   1.920   1.548  14.630 -0.9949  0.0560  0.0849
 1192TIP3   OH225066   3.132   6.361   1.419 -0.0102  0.1261 -0.7219
 1192TIP3    H125067   3.128   6.350   1.514  1.6187 -0.1264 -0.6619
 1192TIP3    H225068   3.160   6.276   1.385 -1.2436  0.0174 -1.4966
 1193TIP3   OH225069   6.293   4.560   1.244 -0.3471  0.1205  0.6387
 1193TIP3    H125070   6.227   4.588   1.181  0.3973 -1.0658 -0.7140
 1193TIP3    H225071   6.321   4.474   1.212  0.3214 -0.3329  2.3837
 1194TIP3   OH225072   4.241   6.029  13.223  0.3667 -0.3136 -0.3272
 1194TIP3    H125073   4.287   5.951  13.191 -0.3899 -0.6327 -0.6622
 1194TIP3    H225074   4.179   6.050  13.153 -1.7615 -1.4015  1.1704
 1195TIP3   OH225075   1.609   1.573   1.487 -0.6291 -0.6679  0.0402
 1195TIP3    H125076   1.608   1.590   1.581 -0.8283 -1.2712  0.1484
 1195TIP3    H225077   1.538   1.626   1.452  1.1764  1.7040 -0.1490
 1196TIP3   OH225078   6.773   1.834   5.166  0.0979 -0.4086 -0.4547
 1196TIP3    H125079   6.773   1.799   5.255  1.5730  0.2198 -0.1953
 1196TIP3    H225080   6.681   1.857   5.149 -0.4392 -1.8758  0.3530
 1197TIP3   OH225081   5.088   4.405   1.110 -0.4471 -0.1988  0.8462
 1197TIP3    H125082   5.068   4.490   1.071  2.6744  0.9808  1.6482
 1197TIP3    H225083   5.037   4.404   1.191  1.1125  1.8890  1.9173
 1198TIP3   OH225084   3.643   4.645  15.187  0.3090 -0.3385 -0.3573
 1198TIP3    H125085   3.635   4.670  15.279  0.8445 -2.0558  0.1804
 1198TIP3    H225086   3.627   4.726  15.138  0.1748  0.6174  1.2461
 1199TIP3   OH225087   2.915   0.946  11.190 -0.8824  0.3419  0.7182
 1199TIP3    H125088   2.820   0.939  11.181 -0.6931 -1.3492 -0.1317
 1199TIP3    H225089   2.944   0.857  11.210  0.6576  0.5511 -0.4581
 1200TIP3   OH225090   5.529   4.214   0.481 -0.0781  0.1173  0.0921
 1200TIP3    H125091   5.604   4.162   0.509  0.1306  0.8718  0.9501
 1200TIP3    H225092   5.453   4.172   0.522 -0.1070 -0.5505 -0.6454
 1201TIP3   OH225093   2.150   5.962  12.012  0.3181 -0.0535 -0.2777
 1201TIP3    H125094   2.109   5.900  11.952 -3.1895  2.2107 -0.3692
 1201TIP3    H225095   2.190   6.028  11.956 -1.4067  1.0855 -0.2272
 1202TIP3   OH225096   1.368   4.884   5.137  0.0841  0.2471  0.4533
 1202TIP3    H125097   1.410   4.798   5.132  0.4346  0.4955 -1.1519
 1202TIP3    H225098   1.322   4.893   5.054 -0.0004  1.5885  0.6372
 1203TIP3   OH225099   3.281   5.871  11.120 -0.0685  0.0169 -0.1062
 1203TIP3    H125100   3.346   5.831  11.063 -0.3466  0.6446 -0.8771
 1203TIP3    H225101   3.224   5.919  11.061 -1.0436 -0.2684  0.6025
 1204TIP3   OH225102   2.458   4.092  16.114  0.3449 -0.0757 -0.3824
 1204TIP3    H125103   2.506   4.019  16.074  0.6904 -0.1576  0.1744
 1204TIP3    H225104   2.399   4.050  16.177  2.0690  0.2561  1.4910
 1205TIP3   OH225105   6.314   6.408  16.060 -0.6767 -0.0058 -0.4295
 1205TIP3    H125106   6.260   6.461  16.002  1.6222  0.1301 -2.5129
 1205TIP3    H225107   6.375   6.363  16.002 -0.5165 -2.5014  1.5996
 1206TIP3   OH225108   5.567   5.981   0.920 -0.3044 -0.8805 -0.3582
 1206TIP3    H125109   5.617   6.044   0.972 -0.2100 -2.3430  1.3806
 1206TIP3    H225110   5.542   6.029   0.841  2.4727  0.3602 -0.5267
 1207TIP3   OH225111   2.460   2.429  13.384 -0.4504 -0.1460  0.9828
 1207TIP3    H125112   2.434   2.451  13.473  1.3972 -1.3851  1.8729
 1207TIP3    H225113   2.543   2.382  13.394  0.8646  1.4908 -1.5172
 1208TIP3   OH225114   0.654   1.770  11.745  0.0733 -0.3034 -0.1264
 1208TIP3    H125115   0.601   1.803  11.817 -2.0051 -1.2386 -1.1960
 1208TIP3    H225116   0.735   1.741  11.786 -1.7865 -2.5508  2.1273
 1209TIP3   OH225117   6.388   3.642   4.021 -0.1565 -0.1463 -0.4272
 1209TIP3    H125118   6.475   3.631   4.058 -1.0180 -0.7034  1.5031
 1209TIP3    H225119   6.368   3.558   3.980 -0.3310 -0.4771  0.3328
 1210TIP3   OH225120   6.672   6.587   1.799  0.1966  0.0197  0.0868
 1210TIP3    H125121   6.740   6.647   1.831  1.3591 -1.8195  1.1668
 1210TIP3    H225122   6.716   6.502   1.794 -1.1119 -0.5471 -2.4889
 1211TIP3   OH225123   1.124   0.898   0.942  0.6467  0.3342 -0.2644
 1211TIP3    H125124   1.068   0.965   0.980  1.7638  0.1252  1.8106
 1211TIP3    H225125   1.206   0.944   0.921  0.8622 -0.0525 -0.2815
 1212TIP3   OH225126   0.305   3.751  12.541  0.4606 -0.5246 -0.4913
 1212TIP3    H125127   0.338   3.709  12.620  1.1519 -0.3152 -0.6663
 1212TIP3    H225128   0.297   3.680  12.477  1.1307 -0.4852 -0.6254
 1213TIP3   OH225129   4.369   0.478   4.592 -0.0199 -0.0374 -0.1831
 1213TIP3    H125130   4.356   0.440   4.505  0.2965  1.9289 -1.1373
 1213TIP3    H225131   4.457   0.451   4.618  0.2357  0.1090 -0.8804
 1214TIP3   OH225132   4.893   5.215   0.735 -0.2416  0.0663  0.1902
 1214TIP3    H125133   4.889   5.266   0.816  0.5292 -1.0209  0.9222
 1214TIP3    H225134   4.911   5.126   0.764  2.1070  0.0171 -1.2824
 1215TIP3   OH225135   2.517   3.844  14.379 -0.4134  0.3263 -0.6630
 1215TIP3    H125136   2.490   3.931  14.409 -1.9202 -0.6303  0.8600
 1215TIP3    H225137   2.438   3.807  14.340 -0.0782 -0.7809 -0.3135
 1216TIP3   OH225138   1.410   5.821   3.018 -0.3629  0.4132  0.0073
 1216TIP3    H125139   1.354   5.895   3.041  0.7302  1.4949 -0.7481
 1216TIP3    H225140   1.421   5.773   3.100 -1.3791  0.8848  0.4306
 1217TIP3   OH225141   3.724   6.664   1.966  0.7453 -0.5167 -0.6990
 1217TIP3    H125142   3.709   6.621   1.881  0.0095 -0.8874 -0.3877
 1217TIP3    H225143   3.773   6.743   1.944 -2.1334  1.0414 -1.8429
 1218TIP3   OH225144   0.228   6.372   6.816  0.1427  0.3100 -0.4907
 1218TIP3    H125145   0.164   6.329   6.874 -1.1743  1.0990 -1.3232
 1218TIP3    H225146   0.175   6.433   6.764  1.7012  1.5681 -0.6346
 1219TIP3   OH225147   1.630   0.138   5.057 -1.0022 -0.2321 -0.3549
 1219TIP3    H125148   1.713   0.104   5.089 -0.4064  1.4799 -0.0239
 1219TIP3    H225149   1.604   0.205   5.121 -3.4035 -1.7848  0.3670
 1220TIP3   OH225150   1.677   6.394   5.708  0.2176 -0.6891 -0.6775
 1220TIP3    H125151   1.677   6.420   5.616 -0.7263 -1.1995 -0.8271
 1220TIP3    H225152   1.586   6.372   5.727  0.1422  0.8023  0.7774
 1221TIP3   OH225153   0.833   1.139  15.210  0.2318  0.9575  0.3966
 1221TIP3    H125154   0.851   1.054  15.250 -0.3642  0.8685  0.4704
 1221TIP3    H225155   0.856   1.203  15.278  0.0346  0.8365  0.5747
 1222TIP3   OH225156   2.885   2.414   1.745 -0.3450  0.2241 -0.6578
 1222TIP3    H125157   2.871   2.326   1.779  1.3058 -0.7948 -2.5587
 1222TIP3    H225158   2.962   2.446   1.793 -0.0257  0.0584 -1.0624
 1223TIP3   OH225159   5.703   3.650   1.997 -0.0491 -0.2164 -0.8466
 1223TIP3    H125160   5.758   3.573   1.984  1.5305  0.7551  0.0426
 1223TIP3    H225161   5.759   3.713   2.042 -1.3589  1.4252 -1.4665
 1224TIP3   OH225162   0.172   1.156   4.091 -0.2877  0.4805  0.2049
 1224TIP3    H125163   0.110   1.134   4.162  0.8528  0.3788  1.1841
 1224TIP3    H225164   0.157   1.248   4.074 -2.6979 -0.1858 -1.5403
 1225TIP3   OH225165   0.300   3.924   3.558  0.0529  0.0823  0.2718
 1225TIP3    H125166   0.358   3.887   3.625  0.1718 -0.3682 -0.0788
 1225TIP3    H225167   0.221   3.869   3.561 -1.3804  2.1610  2.4216
 1226TIP3   OH225168   4.117   0.948   6.241 -0.3059 -0.6689 -0.0645
 1226TIP3    H125169   4.059   1.011   6.284 -1.1129 -1.0668 -0.5522
 1226TIP3    H225170   4.188   0.934   6.304  0.7981  2.0079 -0.6431
 1227TIP3   OH225171   0.115   4.620  12.356  0.3611  0.4306 -0.3958
 1227TIP3    H125172   0.114   4.682  12.429 -0.9394  1.2700 -1.0996
 1227TIP3    H225173   0.130   4.674  12.278  0.0665 -0.2398 -0.9300
 1228TIP3   OH225174   6.369   3.815  15.167 -0.9919 -0.7646  0.5840
 1228TIP3    H125175   6.420   3.849  15.240 -0.6705 -0.5884  0.2749
 1228TIP3    H225176   6.310   3.751  15.207  0.4944 -2.0694  0.7336
 1229TIP3   OH225177   2.205   5.797  12.224 -0.3870 -0.0771 -0.1342
 1229TIP3    H125178   2.201   5.889  12.197 -2.2432 -0.5837 -1.7556
 1229TIP3    H225179   2.177   5.748  12.146 -0.6949 -1.9272  1.1032
 1230TIP3   OH225180   4.357   2.418  15.055  0.1919 -0.2534  0.8259
 1230TIP3    H125181   4.349   2.379  14.968  0.9502 -2.0415  1.5413
 1230TIP3    H225182   4.313   2.357  15.113 -1.3064  1.4916  1.5869
 1231TIP3   OH225183   2.134   3.737  12.362 -0.3588  0.2646  0.5531
 1231TIP3    H125184   2.055   3.751  12.414 -1.0882  0.1120 -0.5080
 1231TIP3    H225185   2.155   3.644  12.375  0.7996  0.7563  2.4239
 1232TIP3   OH225186   3.789   0.061  16.900  0.8297  0.0731 -0.2496
 1232TIP3    H125187   3.818  -0.030  16.901 -1.0030 -0.5476  1.4528
 1232TIP3    H225188   3.701   0.058  16.938 -0.7800  2.0594 -3.5460
 1233TIP3   OH225189   4.270   5.674  15.181  0.2972 -0.2613  0.8249
 1233TIP3    H125190   4.205   5.682  15.111 -1.4852 -0.3203  2.4241
 1233TIP3    H225191   4.313   5.590  15.164 -0.5140 -0.5520  0.1204
 1234TIP3   OH225192   0.530   5.851  15.297 -0.7405  0.4317 -0.4490
 1234TIP3    H125193   0.549   5.812  15.211  0.6596  2.2199 -0.9834
 1234TIP3    H225194   0.458   5.799  15.332  0.1270 -1.7024 -1.7650
 1235TIP3   OH225195   6.672   6.157  11.209  0.4885  0.0734 -0.0162
 1235TIP3    H125196   6.681   6.105  11.129 -1.2634  0.4590 -0.4768
 1235TIP3    H225197   6.741   6.223  11.202  1.4864 -0.9724 -0.3383
 1236TIP3   OH225198   3.425   2.153   2.813 -0.4283 -0.0870  0.2785
 1236TIP3    H125199   3.390   2.128   2.899  1.4130 -2.5056  0.3920
 1236TIP3    H225200   3.381   2.095   2.751 -0.6948  0.6845 -0.2728
 1237TIP3   OH225201   3.029   3.339  14.765 -0.0196 -0.2835  0.4898
 1237TIP3    H125202   2.980   3.401  14.710  1.2286  1.4924  1.2974
 1237TIP3    H225203   3.027   3.379  14.852  0.2398 -1.7525  1.1781
 1238TIP3   OH225204   4.328   4.950  16.440 -0.2240 -0.8111 -0.4862
 1238TIP3    H125205   4.254   4.919  16.387 -1.7839  3.4872 -0.9863
 1238TIP3    H225206   4.404   4.940  16.382 -1.3784  0.4710 -2.2826
 1239TIP3   OH225207   6.522   4.992  11.566  0.0174  0.4422  0.2383
 1239TIP3    H125208   6.509   4.907  11.609 -1.4808  0.8385  0.6146
 1239TIP3    H225209   6.616   4.997  11.550  0.2716 -0.7850  1.2609
 1240TIP3   OH225210   6.441   4.712  12.752  0.0663 -0.1562 -0.0099
 1240TIP3    H125211   6.347   4.716  12.769  0.0316 -1.4310  0.1250
 1240TIP3    H225212   6.450   4.647  12.683  0.7068  1.1679 -1.1919
 1241TIP3   OH225213   6.700   4.214  12.810 -0.3214 -0.7213 -0.2083
 1241TIP3    H125214   6.788   4.219  12.848 -0.0994  1.2302 -0.9068
 1241TIP3    H225215   6.642   4.203  12.886  0.2667  1.3161  0.5725
 1242TIP3   OH225216   3.804   0.333  15.797 -0.0889  0.1477  0.2584
 1242TIP3    H125217   3.756   0.309  15.876 -0.0037 -0.3681  0.1548
 1242TIP3    H225218   3.758   0.410  15.763 -0.1889  0.3035  0.7510
 1243TIP3   OH225219   2.806   1.996  11.267 -0.2403  0.4170  0.1687
 1243TIP3    H125220   2.798   1.927  11.201  0.4785 -2.8778  3.3687
 1243TIP3    H225221   2.899   2.018  11.267  0.1540 -1.2056  1.6268
 1244TIP3   OH225222   3.610   0.287   3.454  0.0560  0.1912  0.3692
 1244TIP3    H125223   3.643   0.213   3.403  2.2004  0.3493  1.4565
 1244TIP3    H225224   3.517   0.292   3.431  0.2657 -1.7093 -1.0812
 1245TIP3   OH225225   5.208   5.311   2.414  0.4025 -0.5482  0.0605
 1245TIP3    H125226   5.228   5.384   2.356  0.6642 -0.5478  0.1516
 1245TIP3    H225227   5.272   5.244   2.392  0.2739 -0.6829  0.0980
 1246TIP3   OH225228   6.295   2.424  15.908 -0.0639  0.3067 -0.1610
 1246TIP3    H125229   6.284   2.517  15.887  0.3212  0.1286 -1.2181
 1246TIP3    H225230   6.242   2.379  15.842  1.4139 -0.2851 -0.9776
 1247TIP3   OH225231   4.830   0.156  15.089 -0.1482  0.4024 -0.2534
 1247TIP3    H125232   4.744   0.178  15.125  0.2710  0.4092  0.7575
 1247TIP3    H225233   4.853   0.073  15.131  0.5823  0.6804 -0.1012
 1248TIP3   OH225234   3.715   2.145   0.226  0.3400 -0.0917 -0.3133
 1248TIP3    H125235   3.741   2.083   0.157  2.2854 -1.2311  1.3833
 1248TIP3    H225236   3.763   2.225   0.206  0.8759 -0.4115 -0.3188
 1249TIP3   OH225237   6.497   6.628  16.413 -0.1673  0.2954 -0.3876
 1249TIP3    H125238   6.510   6.593  16.501  1.7259 -2.3096 -1.6447
 1249TIP3    H225239   6.559   6.701  16.406  1.0237 -0.6966 -0.2080
 1250TIP3   OH225240   3.863   3.756  17.080  0.0034 -0.2088  0.0963
 1250TIP3    H125241   3.881   3.742  16.987  2.3478 -1.6722  0.7411
 1250TIP3    H225242   3.899   3.679  17.124 -0.1998  0.9157  2.3194
 1251TIP3   OH225243   4.814   2.863  13.788 -0.1976 -0.1696 -0.0776
 1251TIP3    H125244   4.780   2.881  13.875  1.4128  0.4781  0.4451
 1251TIP3    H225245   4.898   2.909  13.785 -0.3465  0.0439 -2.0603
 1252TIP3   OH225246   4.490   3.712   0.961  0.4166  0.1733 -0.2633
 1252TIP3    H125247   4.505   3.797   0.919  0.8053  0.5983  0.7332
 1252TIP3    H225248   4.538   3.650   0.906  1.3795  0.7975 -0.1465
 1253TIP3   OH225249   3.328   1.088   5.496  0.0040  0.2514  0.2844
 1253TIP3    H125250   3.376   1.121   5.572  1.7315 -0.7793 -0.3237
 1253TIP3    H225251   3.330   1.160   5.433 -0.2696  0.6363  0.7206
 1254TIP3   OH225252   5.306   4.717  12.966  0.0208  0.2468 -0.1124
 1254TIP3    H125253   5.218   4.694  12.997 -0.3738  1.4175 -0.3421
 1254TIP3    H225254   5.309   4.812  12.971  0.3850  0.3788 -2.4959
 1255TIP3   OH225255   2.146   1.477  11.271 -0.2124 -0.2757  0.7166
 1255TIP3    H125256   2.232   1.437  11.261 -0.3393 -0.7949  1.6802
 1255TIP3    H225257   2.148   1.554  11.214  1.5562  0.8148  2.2394
 1256TIP3   OH225258   4.568   2.216  13.551  0.2637 -0.2998  0.2848
 1256TIP3    H125259   4.555   2.284  13.486 -1.8661 -0.0608  0.9138
 1256TIP3    H225260   4.562   2.134  13.502  0.9894 -0.0746 -0.1813
 1257TIP3   OH225261   1.743   0.875  16.125 -0.1691  0.2759 -0.2744
 1257TIP3    H125262   1.820   0.930  16.117  1.0959 -1.2658  0.8574
 1257TIP3    H225263   1.766   0.795  16.077 -1.4578  0.1745 -0.7574
 1258TIP3   OH225264   0.285   5.936  16.520 -0.1311 -0.4651 -0.0257
 1258TIP3    H125265   0.216   5.955  16.584 -0.0694 -2.0376  0.5258
 1258TIP3    H225266   0.362   5.982  16.553 -0.8374  1.1470 -0.5505
 1259TIP3   OH225267   3.410   5.833  16.569  0.1136  1.2981 -0.1166
 1259TIP3    H125268   3.506   5.829  16.567  0.1034  0.9229  0.0788
 1259TIP3    H225269   3.384   5.800  16.483  0.0909 -1.0320  0.7659
 1260TIP3   OH225270   2.946   1.908  16.589 -0.1317 -0.4254 -0.6191
 1260TIP3    H125271   2.941   2.004  16.588  0.8009 -0.3332  0.6786
 1260TIP3    H225272   2.957   1.886  16.682 -0.4866 -1.7970 -0.8918
 1261TIP3   OH225273   5.852   0.087  10.855 -0.0218  0.0792  0.0142
 1261TIP3    H125274   5.828   0.163  10.908 -0.5558  0.4149 -0.7015
 1261TIP3    H225275   5.942   0.104  10.827 -0.9229  1.5894 -2.1013
 1262TIP3   OH225276   4.056   4.720  11.571 -0.4657 -0.0947 -0.5262
 1262TIP3    H125277   4.033   4.810  11.552  0.3782 -0.2179 -2.1998
 1262TIP3    H225278   4.071   4.718  11.666 -2.3473  1.0780 -0.1900
 1263TIP3   OH225279   3.511   6.417  12.248  0.5944  0.1243 -0.8107
 1263TIP3    H125280   3.491   6.329  12.216 -2.6406  0.5743 -0.2586
 1263TIP3    H225281   3.462   6.476  12.190  0.0324  1.3309  0.8085
 1264TIP3   OH225282   6.738   3.237   3.544 -1.1805 -0.1803 -0.0127
 1264TIP3    H125283   6.809   3.238   3.480 -0.2906  1.3603  0.9849
 1264TIP3    H225284   6.680   3.308   3.517 -0.1628  1.2956  1.5698
 1265TIP3   OH225285   5.430   0.274  11.490 -0.6671 -0.3030 -0.1399
 1265TIP3    H125286   5.512   0.255  11.536 -1.1228  0.8318  1.1852
 1265TIP3    H225287   5.456   0.333  11.419 -0.4368  0.7047  0.7681
 1266TIP3   OH225288   2.751   0.624   1.618 -0.2832  0.0383  0.5526
 1266TIP3    H125289   2.716   0.710   1.640 -0.1390  0.4474 -0.7786
 1266TIP3    H225290   2.804   0.599   1.693  1.4865  2.0931  0.0085
 1267TIP3   OH225291   1.049   5.776  13.380  0.6016 -0.2762 -0.7791
 1267TIP3    H125292   1.143   5.758  13.386  0.2261 -2.5331 -1.2335
 1267TIP3    H225293   1.031   5.833  13.455  1.8991 -1.7763  0.7130
 1268TIP3   OH225294   1.112   4.414  13.566  0.1669 -0.2734 -0.1652
 1268TIP3    H125295   1.107   4.359  13.644  1.7164  0.1986  0.3068
 1268TIP3    H225296   1.043   4.479  13.578 -0.7723 -1.2870 -0.0582
 1269TIP3   OH225297   3.808   6.668  12.331  0.1920 -0.5091  0.0406
 1269TIP3    H125298   3.786   6.758  12.307 -0.3636 -0.6882 -0.1372
 1269TIP3    H225299   3.888   6.676  12.382  0.2627  0.0681 -0.1547
 1270TIP3   OH225300   4.000   0.050  15.847  0.5410  0.4124  0.3787
 1270TIP3    H125301   3.991  -0.044  15.829  2.4246  0.4910 -1.1375
 1270TIP3    H225302   4.092   0.061  15.870  0.3172  1.9026  0.5851
 1271TIP3   OH225303   3.107   5.446  13.964  0.0895 -0.4075  0.0259
 1271TIP3    H125304   3.067   5.359  13.972  0.5382 -0.6141  0.0447
 1271TIP3    H225305   3.188   5.430  13.916  0.0458  0.0425 -0.1976
 1272TIP3   OH225306   1.195   2.658   0.861 -0.1899 -0.0314  0.7585
 1272TIP3    H125307   1.115   2.606   0.874 -1.2584  0.7741 -2.1424
 1272TIP3    H225308   1.187   2.730   0.924 -0.9738 -0.8053  1.5695
 1273TIP3   OH225309   5.629   5.718   0.766 -0.0938 -0.1870 -0.4826
 1273TIP3    H125310   5.682   5.678   0.835  1.3084 -0.0657 -1.4637
 1273TIP3    H225311   5.623   5.810   0.790 -0.2891 -0.3000 -0.1018
 1274TIP3   OH225312   3.044   1.328  14.835 -0.0492  0.3197  0.3594
 1274TIP3    H125313   3.041   1.319  14.930  0.5127 -1.9042  0.2052
 1274TIP3    H225314   3.033   1.239  14.802  1.5108  0.7952 -1.5948
 1275TIP3   OH225315   3.746   0.516  11.957  0.0982  0.4389  0.4435
 1275TIP3    H125316   3.720   0.521  11.865  0.4802  0.4063  0.3322
 1275TIP3    H225317   3.841   0.507  11.955  0.0668 -0.0302  0.8308
 1276TIP3   OH225318   3.279   3.526   5.570  0.3590  0.1491  0.2744
 1276TIP3    H125319   3.199   3.525   5.622 -0.6381 -1.9289 -1.2394
 1276TIP3    H225320   3.327   3.447   5.597  0.9788  0.3538 -0.2016
 1277TIP3   OH225321   5.729   6.092  13.858 -0.2185  0.3985 -0.9331
 1277TIP3    H125322   5.748   6.109  13.766  0.2449 -1.3831 -1.1940
 1277TIP3    H225323   5.734   5.997  13.866 -2.2502  0.3850  0.5114
 1278TIP3   OH225324   1.377   6.606   2.342  0.2245 -0.3885  0.0414
 1278TIP3    H125325   1.330   6.552   2.278 -0.0550 -1.7526  1.3684
 1278TIP3    H225326   1.316   6.614   2.416  1.3551 -0.6322  1.0227
 1279TIP3   OH225327   2.117   4.145   1.976 -0.8731  0.2376  0.0104
 1279TIP3    H125328   2.091   4.216   2.034 -1.4690 -1.7260  2.2082
 1279TIP3    H225329   2.132   4.071   2.034 -0.6919 -1.5703 -2.2798
 1280TIP3   OH225330   4.385   4.593  14.728  0.2587 -0.3209  0.8693
 1280TIP3    H125331   4.456   4.630  14.675  0.8857 -1.3243  0.9891
 1280TIP3    H225332   4.389   4.642  14.810 -0.1673  0.6567  0.3147
 1281TIP3   OH225333   3.483   0.216  12.149 -0.2998 -0.1837 -0.4528
 1281TIP3    H125334   3.563   0.164  12.145 -1.2166 -1.5066 -1.9296
 1281TIP3    H225335   3.513   0.307  12.144  1.2029 -0.6000  0.6321
 1282TIP3   OH225336   1.502   5.605   4.045  0.4886  0.2336 -0.1503
 1282TIP3    H125337   1.453   5.569   3.971  0.8956 -0.2621 -0.1886
 1282TIP3    H225338   1.588   5.565   4.038  1.3025  2.0625 -0.7989
 1283TIP3   OH225339   5.129   4.261  11.287  0.2902 -0.0664 -0.1000
 1283TIP3    H125340   5.167   4.187  11.240  0.5844 -0.8292  1.2971
 1283TIP3    H225341   5.047   4.227  11.323 -0.1001  0.6063 -0.3379
 1284TIP3   OH225342   6.280   2.650   1.817  1.1041  0.9569  0.1626
 1284TIP3    H125343   6.326   2.577   1.859  0.7124  1.0765  0.8031
 1284TIP3    H225344   6.339   2.724   1.826  1.4351  0.7658 -0.3539
 1285TIP3   OH225345   5.625   6.475  11.769 -0.3614 -0.0571  0.0256
 1285TIP3    H125346   5.677   6.419  11.825  0.8100  1.7451  0.7716
 1285TIP3    H225347   5.685   6.543  11.740 -1.7496  0.8198 -0.8637
 1286TIP3   OH225348   0.608   1.743  15.585  0.3763 -0.2182 -0.4793
 1286TIP3    H125349   0.681   1.782  15.537 -0.3661 -0.5452 -1.8880
 1286TIP3    H225350   0.545   1.719  15.518 -0.4188 -1.2499  0.6165
 1287TIP3   OH225351   0.698   3.730   2.772  0.2981 -0.0785 -0.5214
 1287TIP3    H125352   0.792   3.745   2.783  0.2371 -0.5188  0.6981
 1287TIP3    H225353   0.672   3.680   2.850 -0.8057 -0.5948 -1.2026
 1288TIP3   OH225354   4.255   2.600   5.300  0.3823  0.1038  0.2795
 1288TIP3    H125355   4.210   2.684   5.292 -0.3229 -0.3104 -0.1011
 1288TIP3    H225356   4.210   2.542   5.238 -0.6809 -1.2148  2.2160
 1289TIP3   OH225357   6.630   1.293   2.090  0.4833  0.1714 -0.1115
 1289TIP3    H125358   6.571   1.360   2.125  0.2842 -0.0962  0.0629
 1289TIP3    H225359   6.714   1.309   2.133  1.2455  2.1249 -2.1638
 1290TIP3   OH225360   2.513   5.007   6.578  0.4844 -0.1605 -0.4497
 1290TIP3    H125361   2.523   5.074   6.511  0.1552  1.0294  0.6883
 1290TIP3    H225362   2.421   4.979   6.570 -0.6543  2.6497  1.9612
 1291TIP3   OH225363   2.784   5.482  12.067 -0.5379  0.0143  0.6976
 1291TIP3    H125364   2.776   5.409  12.129 -2.6932 -0.5588 -0.2138
 1291TIP3    H225365   2.722   5.461  11.997  2.9494 -0.1896 -2.5301
 1292TIP3   OH225366   0.308   6.338   4.110 -0.3405  0.2656 -0.0987
 1292TIP3    H125367   0.368   6.311   4.041 -0.4643  1.0551 -0.5318
 1292TIP3    H225368   0.231   6.371   4.063 -0.6071  0.3949  0.4241
 1293TIP3   OH225369   1.838   1.361  11.685 -0.1132  0.6384 -0.2954
 1293TIP3    H125370   1.780   1.437  11.676 -0.0390  1.0124  2.1884
 1293TIP3    H225371   1.875   1.369  11.773  1.3380 -1.2745 -0.7056
 1294TIP3   OH225372   3.071   3.720   3.260 -0.8463 -0.0630  0.3243
 1294TIP3    H125373   3.008   3.740   3.329 -1.8723  1.1892 -0.9216
 1294TIP3    H225374   3.022   3.664   3.199 -0.1150 -0.7595  0.3821
 1295TIP3   OH225375   0.383   6.403  15.380  0.0539  0.2788  0.0248
 1295TIP3    H125376   0.468   6.373  15.414  0.9947  0.2062 -2.2584
 1295TIP3    H225377   0.384   6.376  15.288 -2.8056 -0.4194  0.1753
 1296TIP3   OH225378   6.469   5.851   0.519 -0.3044 -0.5816 -0.4404
 1296TIP3    H125379   6.421   5.845   0.437  0.4321  0.4382 -0.9481
 1296TIP3    H225380   6.554   5.810   0.501 -1.2938 -3.2232  0.7162
 1297TIP3   OH225381   5.803   5.998   5.293 -0.0637 -0.8053 -0.4721
 1297TIP3    H125382   5.779   5.928   5.353  0.9876 -0.9491 -0.2152
 1297TIP3    H225383   5.765   5.972   5.209 -1.0554 -0.8765 -0.0012
 1298TIP3   OH225384   2.849   1.348   5.032  0.1650  0.5135 -0.4365
 1298TIP3    H125385   2.769   1.373   5.079  0.7050 -0.0490  0.8074
 1298TIP3    H225386   2.825   1.269   4.984  0.5756 -1.0063  1.7695
 1299TIP3   OH225387   2.953   3.973   1.917  0.7639  0.3136  0.2241
 1299TIP3    H125388   3.014   3.900   1.927  1.0667  0.3783 -0.9776
 1299TIP3    H225389   2.904   3.951   1.837  0.2885  1.0191  0.3230
 1300TIP3   OH225390   5.384   0.202  12.091  0.1210 -0.6802  0.1364
 1300TIP3    H125391   5.362   0.182  12.000  0.0985 -0.6781  0.1409
 1300TIP3    H225392   5.328   0.277  12.113  0.7003 -0.1803 -0.0938
 1301TIP3   OH225393   6.290   6.360  15.121  0.4365  0.4912 -0.1046
 1301TIP3    H125394   6.224   6.425  15.096 -1.0245 -1.3946 -1.3718
 1301TIP3    H225395   6.240   6.279  15.131  2.5856 -0.9945 -1.0615
 1302TIP3   OH225396   3.789   0.775  16.010 -0.2434 -0.0420 -0.5023
 1302TIP3    H125397   3.856   0.758  16.076  0.3689 -1.0201 -1.3569
 1302TIP3    H225398   3.791   0.870  15.998 -0.1632  0.1103  0.6662
 1303TIP3   OH225399   4.676   3.181   1.956 -0.4684  0.1770 -0.1658
 1303TIP3    H125400   4.726   3.235   1.894 -0.0654 -0.0057 -0.0000
 1303TIP3    H225401   4.730   3.103   1.969 -0.5268  0.2380  0.4603
 1304TIP3   OH225402   4.513   0.379   3.987  0.5915  0.3159 -0.1553
 1304TIP3    H125403   4.494   0.465   3.949  0.6183  0.3877 -0.0064
 1304TIP3    H225404   4.607   0.380   4.004  0.2955  0.9919  1.6379
 1305TIP3   OH225405   3.926   3.190  15.788  0.5394 -0.1014  0.2722
 1305TIP3    H125406   3.924   3.130  15.862  2.2012  1.2426  1.4692
 1305TIP3    H225407   3.980   3.146  15.723 -1.9220 -1.8214 -0.6699
 1306TIP3   OH225408   2.683   2.657  12.023  0.0730 -0.0592 -0.2451
 1306TIP3    H125409   2.722   2.591  12.081 -0.2087  1.1522  1.3448
 1306TIP3    H225410   2.756   2.687  11.969  0.7931  0.2848  0.9047
 1307TIP3   OH225411   4.715   4.100  13.210 -0.2836  0.1168  0.2173
 1307TIP3    H125412   4.670   4.065  13.133  1.1194 -1.2953  0.0238
 1307TIP3    H225413   4.748   4.023  13.256  1.3065  1.0929  0.7510
 1308TIP3   OH225414   2.096   2.441   3.015 -0.6508  0.4620 -0.3378
 1308TIP3    H125415   2.066   2.351   3.016 -0.9719  0.5738 -0.0001
 1308TIP3    H225416   2.040   2.486   3.078  0.4734  0.5914  0.5839
 1309TIP3   OH225417   4.607   6.296  14.444  0.2196  0.4000  0.8465
 1309TIP3    H125418   4.609   6.251  14.528 -0.0101  0.4539  0.8792
 1309TIP3    H225419   4.669   6.369  14.455  0.9292 -0.1664  0.6449
 1310TIP3   OH225420   0.774   4.854   1.165 -0.4823  0.8913 -0.1800
 1310TIP3    H125421   0.809   4.784   1.110  2.3670  1.6151  0.5939
 1310TIP3    H225422   0.679   4.840   1.165 -0.2162 -1.2705 -2.2910
 1311TIP3   OH225423   3.506   2.876  14.026 -0.8693 -0.2734 -0.0615
 1311TIP3    H125424   3.466   2.955  13.989  0.7630  0.4224 -0.3754
 1311TIP3    H225425   3.546   2.905  14.108 -0.4988 -0.8328 -0.0417
 1312TIP3   OH225426   0.228   3.337  16.667 -0.1299 -0.6148  0.0921
 1312TIP3    H125427   0.244   3.248  16.637 -1.5663 -0.3280 -1.5802
 1312TIP3    H225428   0.299   3.389  16.628 -0.0359 -0.8052  0.0114
 1313TIP3   OH225429   0.231   1.312  13.260  0.2665  0.2118  0.4911
 1313TIP3    H125430   0.154   1.359  13.229  1.6753  0.7054 -2.4469
 1313TIP3    H225431   0.259   1.360  13.337  0.3385  2.8512 -1.1234
 1314TIP3   OH225432   3.280   1.731   2.149 -0.0080  0.2868  0.0974
 1314TIP3    H125433   3.194   1.707   2.116  1.1159 -0.2297 -2.5671
 1314TIP3    H225434   3.331   1.753   2.071  1.8462  2.0520  1.7322
 1315TIP3   OH225435   1.929   0.488   4.434 -0.6676  0.1215 -0.1736
 1315TIP3    H125436   1.977   0.571   4.439  0.0063 -0.2063 -0.9285
 1315TIP3    H225437   1.981   0.435   4.372 -1.5077 -0.5755 -0.2846
 1316TIP3   OH225438   5.960   0.076  14.347 -0.2626  0.1064  0.4128
 1316TIP3    H125439   5.981   0.142  14.414  0.3747 -0.7512  1.0647
 1316TIP3    H225440   5.884   0.030  14.382  0.4596 -0.7671  0.8643
 1317TIP3   OH225441   2.941   1.865  15.222  0.1263 -0.2403  0.1160
 1317TIP3    H125442   2.910   1.790  15.273 -0.0348 -0.0776  0.2537
 1317TIP3    H225443   2.938   1.939  15.283  0.8453 -0.2390  0.1549
 1318TIP3   OH225444   4.883   4.291   5.741  0.2100 -0.1696 -0.1833
 1318TIP3    H125445   4.892   4.356   5.811  1.3318  0.9783 -1.3642
 1318TIP3    H225446   4.789   4.283   5.728 -0.0109 -0.3725  1.4330
 1319TIP3   OH225447   0.706   6.144   2.433  0.0465 -0.0061  0.1807
 1319TIP3    H125448   0.781   6.095   2.401 -0.8440 -0.4465 -1.3028
 1319TIP3    H225449   0.676   6.194   2.357  0.1796  1.8724  1.3476
 1320TIP3   OH225450   6.380   4.301  16.166  0.2809  0.0278  0.6515
 1320TIP3    H125451   6.374   4.336  16.255 -1.0454  0.8739  0.2295
 1320TIP3    H225452   6.323   4.356  16.113 -0.3461 -1.5706 -0.3888
 1321TIP3   OH225453   5.071   6.672  14.676 -0.4020  0.5689  0.3811
 1321TIP3    H125454   5.042   6.715  14.596 -0.1365  0.6058  0.3009
 1321TIP3    H225455   5.095   6.583  14.647 -0.4930  0.5212  0.4533
 1322TIP3   OH225456   1.108   2.792   6.214  0.0162  0.0862  0.1886
 1322TIP3    H125457   1.161   2.723   6.254  1.5218  0.7148 -0.6771
 1322TIP3    H225458   1.172   2.857   6.184 -1.2427  0.8689 -0.8587
 1323TIP3   OH225459   4.382   6.672  16.040  0.0626  0.2370 -0.3920
 1323TIP3    H125460   4.291   6.684  16.067 -0.2833 -0.3149 -1.3090
 1323TIP3    H225461   4.379   6.603  15.974  0.9662  1.1822 -1.4393
 1324TIP3   OH225462   4.934   1.253   0.311  0.2106  0.8050 -0.5561
 1324TIP3    H125463   4.970   1.198   0.241 -1.5497  0.3039 -1.0967
 1324TIP3    H225464   4.912   1.192   0.381  0.5735  1.1192 -0.1718
 1325TIP3   OH225465   4.069   3.399   2.376  0.0500 -0.5093 -0.0393
 1325TIP3    H125466   4.038   3.414   2.466  1.9415 -0.3115  0.6102
 1325TIP3    H225467   4.155   3.442   2.374  0.4912 -1.4693 -1.6206
 1326TIP3   OH225468   6.355   4.984  12.279 -0.0146  0.0950  0.0058
 1326TIP3    H125469   6.429   4.952  12.227  0.7138  0.4713  0.7869
 1326TIP3    H225470   6.295   4.910  12.284 -0.6307  0.3860 -2.2994
 1327TIP3   OH225471   4.539   0.150  15.138 -0.0133  0.2680 -0.1107
 1327TIP3    H125472   4.597   0.097  15.192  0.3708 -0.0570 -0.8427
 1327TIP3    H225473   4.453   0.109  15.148  0.3919 -0.8544 -1.1442
 1328TIP3   OH225474   6.413   3.504  14.752  0.0524 -0.2380  0.7268
 1328TIP3    H125475   6.462   3.569  14.802 -2.0184  0.1716  2.3321
 1328TIP3    H225476   6.438   3.519  14.661  1.6644  0.9796  1.3420
 1329TIP3   OH225477   1.746   1.991  17.238 -0.1879 -0.2143 -0.1148
 1329TIP3    H125478   1.762   1.998  17.332 -0.8987  1.2252 -0.0944
 1329TIP3    H225479   1.655   2.019  17.226  0.1036  0.2657 -1.2997
 1330TIP3   OH225480   6.561   6.548   2.339  0.1879  0.6054 -0.1692
 1330TIP3    H125481   6.583   6.638   2.361  1.7699  0.6215 -1.7004
 1330TIP3    H225482   6.474   6.534   2.377 -0.7016  3.2091 -1.1235
 1331TIP3   OH225483   1.520   5.085   0.220 -0.4252  0.4696 -0.0543
 1331TIP3    H125484   1.461   5.013   0.239 -0.5399  0.2988 -1.0117
 1331TIP3    H225485   1.483   5.161   0.266 -1.5875  0.4476 -0.9423
 1332TIP3   OH225486   4.004   0.641   3.034 -0.2774 -0.0008 -0.1205
 1332TIP3    H125487   3.916   0.678   3.044  1.0109  3.0225  0.4490
 1332TIP3    H225488   4.007   0.569   3.098 -1.4803  1.5003  1.6722
 1333TIP3   OH225489   2.805   1.090  16.629  0.3423 -0.2007  0.7653
 1333TIP3    H125490   2.759   1.009  16.653 -0.3833 -0.0217 -0.0114
 1333TIP3    H225491   2.897   1.073  16.652  0.3045 -1.4785  0.0243
 1334TIP3   OH225492   2.564   6.814  12.718  0.0933  0.6372  0.4002
 1334TIP3    H125493   2.559   6.832  12.624  0.1743  1.1587  0.4975
 1334TIP3    H225494   2.654   6.833  12.742  0.8947 -2.3221  0.0074
 1335TIP3   OH225495   3.010   2.557  14.301  0.2430 -0.5166 -0.4709
 1335TIP3    H125496   2.984   2.620  14.234  1.1734 -1.4536 -1.7379
 1335TIP3    H225497   2.986   2.472  14.264 -0.7201 -0.9480  1.0910
 1336TIP3   OH225498   3.792   2.690   5.818 -0.5063  0.8469  0.0380
 1336TIP3    H125499   3.826   2.641   5.744  1.5637  1.9268  0.2518
 1336TIP3    H225500   3.706   2.721   5.789 -0.5939 -0.4494 -1.1286
 1337TIP3   OH225501   2.980   5.467  13.453  0.1699  0.1220 -0.4641
 1337TIP3    H125502   3.068   5.440  13.481 -0.1380  0.0112  0.4086
 1337TIP3    H225503   2.994   5.552  13.411  0.6572  0.2557 -0.0444
 1338TIP3   OH225504   4.093   1.703   0.694  0.0919  0.2821  0.0494
 1338TIP3    H125505   4.001   1.690   0.718 -0.0590 -1.4902 -1.3277
 1338TIP3    H225506   4.106   1.644   0.619  2.5779 -0.1225  0.7524
 1339TIP3   OH225507   5.589   1.277  16.472  0.6241  0.2899  0.3326
 1339TIP3    H125508   5.575   1.350  16.532 -1.1624  2.2548 -2.3990
 1339TIP3    H225509   5.508   1.227  16.476  0.9929 -0.3143  0.4611
 1340TIP3   OH225510   0.823   0.588  10.607 -0.3528  0.5000  0.6764
 1340TIP3    H125511   0.728   0.598  10.603 -0.1842  1.6284 -1.9962
 1340TIP3    H225512   0.840   0.505  10.562 -0.1894 -0.8136  3.0884
 1341TIP3   OH225513   4.067   1.343   3.655 -0.2322 -0.1345 -0.6454
 1341TIP3    H125514   4.006   1.347   3.728  0.3744 -0.4075 -0.1192
 1341TIP3    H225515   4.034   1.272   3.600  0.4448 -1.2669  0.3988
 1342TIP3   OH225516   4.385   0.448   5.616  0.3406  0.2157 -0.0439
 1342TIP3    H125517   4.470   0.490   5.619  0.7034 -0.4813 -0.3622
 1342TIP3    H225518   4.366   0.424   5.707 -0.6266  2.5254  0.3985
 1343TIP3   OH225519   5.943   2.833   2.077  0.5993 -0.0387 -0.1920
 1343TIP3    H125520   5.855   2.840   2.116  0.4656 -1.2105 -0.2598
 1343TIP3    H225521   5.994   2.901   2.122 -0.2578  0.4467  0.0735
 1344TIP3   OH225522   1.155   6.184   1.480  0.4747 -0.7343  0.7025
 1344TIP3    H125523   1.151   6.223   1.392  0.7914 -0.1940  0.9240
 1344TIP3    H225524   1.075   6.216   1.523  1.7408  1.3750  1.5722
 1345TIP3   OH225525   0.721   4.982   1.913  0.1919  0.0838  0.2564
 1345TIP3    H125526   0.759   4.962   1.998  0.9425 -0.8781 -0.2942
 1345TIP3    H225527   0.796   5.000   1.857 -0.3211  1.1676 -0.1015
 1346TIP3   OH225528   3.116   2.449  16.395  0.0848 -0.2463 -0.1777
 1346TIP3    H125529   3.086   2.435  16.305 -0.3449 -2.1797  0.2420
 1346TIP3    H225530   3.089   2.538  16.416 -3.1811 -1.0452 -0.7040
 1347TIP3   OH225531   1.586   6.179  15.405  0.0706 -0.4706 -0.6409
 1347TIP3    H125532   1.553   6.125  15.333 -2.0615 -0.2378  0.1288
 1347TIP3    H225533   1.522   6.167  15.475  0.4904  1.7236  0.1400
 1348TIP3   OH225534   5.490   2.016   2.928 -0.4846  0.2391  0.1510
 1348TIP3    H125535   5.505   1.978   3.014  0.1804  0.5052  0.1578
 1348TIP3    H225536   5.511   1.946   2.866 -1.4892 -0.1264  0.2092
 1349TIP3   OH225537   2.135   6.008   5.205 -0.2225 -0.3880 -0.3815
 1349TIP3    H125538   2.059   6.043   5.252 -0.1061 -1.5061  0.6643
 1349TIP3    H225539   2.149   5.921   5.243 -0.5956 -1.6470 -3.0591
 1350TIP3   OH225540   6.633   4.329  14.432  0.0370 -0.3800 -0.0610
 1350TIP3    H125541   6.633   4.320  14.527 -3.1547  0.6236  0.0718
 1350TIP3    H225542   6.646   4.240  14.399  2.0997 -0.6102  1.2637
 1351TIP3   OH225543   3.635   1.961  14.751 -0.0218  0.3536  0.4657
 1351TIP3    H125544   3.719   1.980  14.710 -0.0001 -0.7841 -0.0149
 1351TIP3    H225545   3.576   1.940  14.679 -0.7358  1.1613  0.7984
 1352TIP3   OH225546   1.617   5.257  15.654  0.0654  0.2245  0.3644
 1352TIP3    H125547   1.564   5.177  15.662 -1.9743  1.6147  1.1348
 1352TIP3    H225548   1.557   5.321  15.617  1.2124  1.8788  1.3458
 1353TIP3   OH225549   4.337   3.420  13.556 -0.1093 -0.0017  0.1902
 1353TIP3    H125550   4.390   3.497  13.535 -2.3635  1.7691  0.9431
 1353TIP3    H225551   4.268   3.419  13.490 -0.1350 -1.3924  0.2087
 1354TIP3   OH225552   3.444   2.838   4.450  0.0766 -0.1873  0.0596
 1354TIP3    H125553   3.452   2.860   4.543 -0.1067 -0.8567  0.2397
 1354TIP3    H225554   3.420   2.745   4.450 -1.4407  0.2036 -0.6242
 1355TIP3   OH225555   4.736   1.489  14.213 -0.4214  0.1338 -0.1760
 1355TIP3    H125556   4.769   1.576  14.189 -0.2699  0.1862  0.2222
 1355TIP3    H225557   4.644   1.504  14.236 -0.4714  0.1414 -0.3792
 1356TIP3   OH225558   0.933   0.851   3.858 -0.2746  0.3295  0.0192
 1356TIP3    H125559   0.848   0.810   3.871 -0.8431  1.6998  0.8505
 1356TIP3    H225560   0.912   0.941   3.832  0.8866  1.0173  1.3529
 1357TIP3   OH225561   5.563   0.489   5.886  0.0638 -0.3292  0.4802
 1357TIP3    H125562   5.597   0.421   5.827 -0.3568 -2.0399  2.1596
 1357TIP3    H225563   5.642   0.527   5.925  0.2450 -0.8577  0.6338
 1358TIP3   OH225564   6.155   0.073  12.925  1.2081 -0.2021  0.1064
 1358TIP3    H125565   6.202   0.063  12.842  3.1902 -1.6926  1.3650
 1358TIP3    H225566   6.163  -0.012  12.968 -1.7753 -0.1825  0.8688
 1359TIP3   OH225567   6.257   5.788  12.779 -0.1873  0.0736 -0.8761
 1359TIP3    H125568   6.163   5.775  12.774 -0.0900 -0.7661 -0.6230
 1359TIP3    H225569   6.288   5.774  12.689 -0.1867 -0.6448 -0.7677
 1360TIP3   OH225570   1.603   3.143   3.828 -0.0410  0.3089  0.3947
 1360TIP3    H125571   1.694   3.131   3.800  0.0057  0.6762  0.3811
 1360TIP3    H225572   1.576   3.225   3.786 -0.0895  0.6665  1.1137
 1361TIP3   OH225573   1.986   3.309   0.802  0.1519  0.1658 -0.3453
 1361TIP3    H125574   1.975   3.289   0.709 -0.8035 -2.6165  0.3080
 1361TIP3    H225575   2.017   3.227   0.841  0.7243  1.3332  1.7587
 1362TIP3   OH225576   2.149   2.730  12.855 -0.2574 -0.1379 -0.2983
 1362TIP3    H125577   2.084   2.682  12.906 -0.6766  1.8540  1.0748
 1362TIP3    H225578   2.207   2.662  12.820  0.1232 -1.5507  2.9445
 1363TIP3   OH225579   0.062   3.719  16.659 -0.3724  0.4156  0.4740
 1363TIP3    H125580   0.014   3.773  16.595 -1.4508  0.3168  1.1784
 1363TIP3    H225581   0.152   3.720  16.628 -0.3219  2.7899  0.5662
 1364TIP3   OH225582   0.821   5.881  13.260  0.1532 -0.1518 -0.1442
 1364TIP3    H125583   0.838   5.852  13.170 -0.2831 -1.0644  0.0539
 1364TIP3    H225584   0.895   5.846  13.310 -1.5083 -2.9613  0.4885
 1365TIP3   OH225585   4.507   3.327  11.127 -0.0923 -0.3415 -0.3111
 1365TIP3    H125586   4.527   3.313  11.034 -0.9007 -0.2890 -0.4933
 1365TIP3    H225587   4.412   3.326  11.132 -0.2202  3.7558 -0.1560
 1366TIP3   OH225588   5.877   2.712   2.789  0.5755  0.2713  0.2779
 1366TIP3    H125589   5.796   2.758   2.810 -0.0854 -1.4733  1.6624
 1366TIP3    H225590   5.852   2.646   2.724  0.5206 -1.3609  1.9121
 1367TIP3   OH225591   3.403   3.843  10.607  0.0715  0.0140  0.2401
 1367TIP3    H125592   3.396   3.781  10.679  1.7942 -1.3217 -0.7073
 1367TIP3    H225593   3.419   3.928  10.648  2.4723 -0.9674  1.3841
 1368TIP3   OH225594   5.517   1.021   5.050 -0.4977 -0.3069  0.7865
 1368TIP3    H125595   5.542   1.098   4.999 -1.3041 -1.4860 -1.5155
 1368TIP3    H225596   5.423   1.009   5.031 -0.6463 -1.2092  1.9946
 1369TIP3   OH225597   4.893   3.924   6.673 -0.2969  0.0445 -0.5786
 1369TIP3    H125598   4.829   3.947   6.605  0.1642 -2.1908 -1.8122
 1369TIP3    H225599   4.971   3.898   6.624  0.7103  0.3188  0.8745
 1370TIP3   OH225600   4.842   4.958   5.690 -0.4227  0.2987  0.3283
 1370TIP3    H125601   4.897   4.981   5.615  0.1570 -0.1967  0.5941
 1370TIP3    H225602   4.904   4.935   5.759 -0.9192  2.3479  1.4979
 1371TIP3   OH225603   0.504   3.343  15.594  0.1669  0.1328 -0.5713
 1371TIP3    H125604   0.519   3.437  15.590  2.7703 -0.2238 -0.1357
 1371TIP3    H225605   0.464   3.322  15.510  1.4796  1.3211 -1.5158
 1372TIP3   OH225606   5.856   0.256  16.348 -0.4257 -0.3854 -0.0740
 1372TIP3    H125607   5.938   0.207  16.357  2.1792  3.6749 -0.4623
 1372TIP3    H225608   5.820   0.258  16.436  2.1003  1.2759  0.9975
 1373TIP3   OH225609   0.459   1.607   5.475 -0.1050 -0.3502  0.5088
 1373TIP3    H125610   0.392   1.544   5.499 -0.4753  0.8222  2.6812
 1373TIP3    H225611   0.540   1.571   5.512  0.3749 -1.3954 -1.4807
 1374TIP3   OH225612   6.462   3.269   1.811  0.1672  0.0014  0.1995
 1374TIP3    H125613   6.470   3.264   1.716  2.5170  0.5152  0.3333
 1374TIP3    H225614   6.535   3.216   1.844  0.6893  1.6159  1.6974
 1375TIP3   OH225615   0.180   4.662  12.949  0.1507 -0.0569  0.1076
 1375TIP3    H125616   0.259   4.627  12.990  0.7706 -0.2831 -1.2381
 1375TIP3    H225617   0.169   4.749  12.987 -0.6554 -1.1865  2.5182
 1376TIP3   OH225618   0.484   1.457   1.360  0.0638  0.2712 -0.1625
 1376TIP3    H125619   0.495   1.460   1.455 -1.7325  2.0324  0.0007
 1376TIP3    H225620   0.574   1.456   1.326  0.7214 -0.0446  1.5261
 1377TIP3   OH225621   4.127   5.406  15.242 -0.4166 -0.0176  0.2328
 1377TIP3    H125622   4.118   5.497  15.214  0.8509  0.1494  0.3369
 1377TIP3    H225623   4.151   5.412  15.335 -0.3928 -0.4559  0.2586
 1378TIP3   OH225624   1.350   2.298   6.444  0.7161  0.5272 -0.2869
 1378TIP3    H125625   1.279   2.354   6.411  0.6358  0.4642 -0.2203
 1378TIP3    H225626   1.320   2.209   6.427 -0.4943  0.3975  2.2891
 1379TIP3   OH225627   3.494   0.088  14.725 -0.4762  0.3241  0.3879
 1379TIP3    H125628   3.516   0.047  14.641  0.0955 -1.3504  1.3294
 1379TIP3    H225629   3.487   0.181  14.706 -0.6619 -0.0831 -1.5841
 1380TIP3   OH225630   3.310   2.221  15.787  0.1489 -0.5792  0.0616
 1380TIP3    H125631   3.308   2.176  15.703 -0.4269  0.0769 -0.2844
 1380TIP3    H225632   3.301   2.314  15.765  1.3266 -0.2882  0.7617
 1381TIP3   OH225633   4.885   0.498  14.706  0.2663 -0.4542 -0.1066
 1381TIP3    H125634   4.851   0.439  14.773  0.9001 -0.8385 -0.1175
 1381TIP3    H225635   4.929   0.568  14.754 -0.2323 -0.1475 -0.0980
 1382TIP3   OH225636   4.887   6.130  14.966  0.2229  0.0369 -0.2311
 1382TIP3    H125637   4.808   6.148  15.017  1.3741  0.7587  1.3597
 1382TIP3    H225638   4.915   6.043  14.995  0.6926  0.3079  0.1511
 1383TIP3   OH225639   4.962   2.127   4.241  0.3660  0.9192 -0.6963
 1383TIP3    H125640   4.979   2.066   4.313 -2.2522 -2.1014 -2.5103
 1383TIP3    H225641   4.870   2.150   4.250  0.1722  1.0083 -2.6963
 1384TIP3   OH225642   0.216   5.157   3.140  0.0736  1.0677 -0.0198
 1384TIP3    H125643   0.267   5.148   3.220  1.3115  1.4146 -0.7615
 1384TIP3    H225644   0.269   5.116   3.073 -1.1789  0.3576 -0.5879
 1385TIP3   OH225645   3.334   2.268   1.338 -0.7876  0.0814 -0.1388
 1385TIP3    H125646   3.348   2.240   1.428  0.6029  0.5289 -0.2001
 1385TIP3    H225647   3.255   2.322   1.341 -1.4735 -0.9607  0.5816
 1386TIP3   OH225648   0.810   0.843  14.568 -0.2660 -0.4119  0.3071
 1386TIP3    H125649   0.749   0.806  14.504  0.7558 -0.4072 -0.6806
 1386TIP3    H225650   0.755   0.894  14.626 -1.1379  0.1659 -0.9991
 1387TIP3   OH225651   0.036   6.760  14.982 -0.1610  0.5250 -0.2253
 1387TIP3    H125652   0.001   6.746  14.894  0.9213 -1.4924 -0.3612
 1387TIP3    H225653   0.102   6.828  14.971 -0.4699  0.7315 -0.8556
 1388TIP3   OH225654   3.675   0.798  11.954 -0.5040  0.5420 -0.1441
 1388TIP3    H125655   3.705   0.708  11.966 -1.2518  0.2334 -0.6428
 1388TIP3    H225656   3.613   0.794  11.882  0.7837  1.7465 -1.3671
 1389TIP3   OH225657   5.318   3.044  13.701  0.3614  0.5104  0.4416
 1389TIP3    H125658   5.261   3.092  13.641 -2.2993 -1.9843  0.8854
 1389TIP3    H225659   5.351   3.111  13.762  0.0525  2.4137 -1.4263
 1390TIP3   OH225660   0.320   1.609  14.783  0.2775  0.6608  0.7415
 1390TIP3    H125661   0.229   1.625  14.761 -0.2079 -2.8409 -0.0200
 1390TIP3    H225662   0.369   1.667  14.725 -1.3752  1.1493 -0.1962
 1391TIP3   OH225663   1.744   5.048   2.469  0.2785 -0.6252  0.2163
 1391TIP3    H125664   1.795   5.128   2.475  0.0542 -0.4173 -0.5963
 1391TIP3    H225665   1.795   4.983   2.517  1.1970 -0.3612 -0.3858
 1392TIP3   OH225666   4.541   1.323   3.177 -0.0592  0.0097 -0.1715
 1392TIP3    H125667   4.516   1.413   3.195 -0.8971 -0.6596  2.1223
 1392TIP3    H225668   4.622   1.310   3.227 -0.2706 -0.6908 -0.0077
 1393TIP3   OH225669   2.428   3.825   2.116  0.0622 -0.5641  0.1386
 1393TIP3    H125670   2.515   3.825   2.075  0.0234 -0.4702  0.0562
 1393TIP3    H225671   2.408   3.733   2.130  0.1096 -0.5934  0.0171
 1394TIP3   OH225672   0.526   3.617  11.811 -0.0717  0.5225  0.1309
 1394TIP3    H125673   0.587   3.568  11.866 -0.5989  0.0725  0.3166
 1394TIP3    H225674   0.547   3.709  11.828  1.6437  0.3549 -1.0421
 1395TIP3   OH225675   1.781   4.751  16.578 -0.0430 -0.2233  0.3004
 1395TIP3    H125676   1.810   4.840  16.601  0.3255 -0.3475  0.3155
 1395TIP3    H225677   1.861   4.702  16.566 -0.0701  0.6596 -4.6870
 1396TIP3   OH225678   0.734   2.646   2.850 -0.6873  0.1279 -0.4391
 1396TIP3    H125679   0.644   2.668   2.828 -1.5815 -0.9268  1.9529
 1396TIP3    H225680   0.771   2.611   2.769 -3.0880 -1.4816 -0.8750
 1397TIP3   OH225681   3.853   2.993  16.011  0.4723 -0.2754  0.0068
 1397TIP3    H125682   3.796   2.931  16.058  0.1456 -0.1666 -0.2475
 1397TIP3    H225683   3.918   3.019  16.076  0.9529 -1.3308 -0.0523
 1398TIP3   OH225684   2.512   3.239   1.155  0.6536  0.0614  0.2215
 1398TIP3    H125685   2.530   3.283   1.238 -2.2824 -0.2716  1.0654
 1398TIP3    H225686   2.481   3.152   1.180  0.8496 -0.4567 -1.2783
 1399TIP3   OH225687   6.283   2.494  17.078 -0.6965  0.2600 -0.6124
 1399TIP3    H125688   6.252   2.540  17.000 -4.4336  0.1037  0.6905
 1399TIP3    H225689   6.207   2.446  17.109  0.4564  1.0297  3.6752
 1400TIP3   OH225690   1.431   5.767  13.073  0.0420  0.0974 -0.1196
 1400TIP3    H125691   1.421   5.845  13.128 -1.9906  1.0788 -1.7825
 1400TIP3    H225692   1.412   5.798  12.984 -0.4755 -2.2173 -0.8562
 1401TIP3   OH225693   3.492   0.812   1.745 -0.1781 -0.1591 -0.6849
 1401TIP3    H125694   3.531   0.724   1.753 -0.9415 -0.5127 -0.7990
 1401TIP3    H225695   3.444   0.824   1.826  0.8498  0.6266 -0.1762
 1402TIP3   OH225696   5.778   4.589  14.317 -0.2825 -0.6099  0.1452
 1402TIP3    H125697   5.782   4.542  14.400  1.2506 -0.7207  0.0242
 1402TIP3    H225698   5.859   4.641  14.315 -0.8863  0.3179 -0.7321
 1403TIP3   OH225699   2.634   4.156   2.451 -0.5903  0.9212 -0.1205
 1403TIP3    H125700   2.680   4.219   2.507 -0.5923 -0.0339  0.9742
 1403TIP3    H225701   2.577   4.108   2.512 -2.6997  1.7623 -1.3645
 1404TIP3   OH225702   4.608   5.451   0.027  0.6239 -0.0481 -0.4778
 1404TIP3    H125703   4.602   5.495   0.112  1.4169 -0.8061 -0.0245
 1404TIP3    H225704   4.695   5.476  -0.006  1.5073 -2.0848  0.2437
 1405TIP3   OH225705   6.206   1.136   1.090  0.6412  0.7048 -0.3999
 1405TIP3    H125706   6.184   1.144   0.997  1.6957 -0.6095 -0.7750
 1405TIP3    H225707   6.213   1.227   1.120 -0.6554  1.1437 -1.3650
 1406TIP3   OH225708   2.502   5.433   2.256 -0.1903 -0.1385 -0.1157
 1406TIP3    H125709   2.440   5.365   2.230 -0.3068  0.4562 -1.4378
 1406TIP3    H225710   2.449   5.495   2.307 -0.3451 -0.4107  0.0563
 1407TIP3   OH225711   6.003   3.916  17.119 -0.3303  0.5504 -0.1338
 1407TIP3    H125712   5.909   3.904  17.105 -0.4670  0.3622  0.9280
 1407TIP3    H225713   6.033   3.832  17.155  0.1012  0.8723  0.2584
 1408TIP3   OH225714   6.112   1.155   5.797  0.5835 -0.2907  0.4254
 1408TIP3    H125715   6.185   1.166   5.858 -0.6702  0.0142  1.9018
 1408TIP3    H225716   6.045   1.110   5.848 -1.0753  1.3710 -0.2467
 1409TIP3   OH225717   5.995   6.636   1.869 -0.5404  0.2505 -0.2915
 1409TIP3    H125718   5.967   6.622   1.960 -0.2284  0.8191 -0.1088
 1409TIP3    H225719   5.922   6.682   1.828 -0.8446 -0.3538 -0.4344
 1410TIP3   OH225720   0.977   5.145  17.100  0.8006  0.3419 -0.2507
 1410TIP3    H125721   0.938   5.213  17.155  0.3116 -1.0049  1.0859
 1410TIP3    H225722   1.029   5.194  17.036  1.0049  1.9539  1.1086
 1411TIP3   OH225723   5.065   5.063  10.357 -0.2389  0.5669  0.7186
 1411TIP3    H125724   5.073   5.114  10.276 -0.8917 -2.1858 -1.1617
 1411TIP3    H225725   5.154   5.061  10.392  0.9434 -1.5401 -2.1375
 1412TIP3   OH225726   0.697   4.786   5.934  1.0157 -0.1357 -0.6493
 1412TIP3    H125727   0.769   4.744   5.887  0.6017 -0.3402 -1.1191
 1412TIP3    H225728   0.623   4.725   5.923  0.3668  0.7866 -1.4838
 1413TIP3   OH225729   0.193   4.149   4.685  0.1625  0.6220  0.2169
 1413TIP3    H125730   0.213   4.158   4.592 -0.4302 -0.9561 -0.0844
 1413TIP3    H225731   0.100   4.125   4.687 -0.1870  2.0178  1.2920
 1414TIP3   OH225732   5.137   2.782   4.740  0.2792 -0.3514 -0.6533
 1414TIP3    H125733   5.114   2.872   4.761 -1.2704 -0.9919  0.4546
 1414TIP3    H225734   5.201   2.790   4.670  2.2095  1.7017  1.2479
 1415TIP3   OH225735   0.102   5.773   1.768 -0.2791 -0.5639 -0.7553
 1415TIP3    H125736   0.008   5.774   1.751 -0.0907  0.2025 -1.7964
 1415TIP3    H225737   0.142   5.759   1.682  0.5835  0.1305 -0.4768
 1416TIP3   OH225738   4.003   4.869   3.492  0.1751  0.4874  0.0644
 1416TIP3    H125739   3.946   4.824   3.555  0.7417  0.5449  0.6327
 1416TIP3    H225740   3.970   4.959   3.489 -1.9037 -0.3083 -2.2156
 1417TIP3   OH225741   5.142   3.054  11.255  0.0179 -0.3183  0.4716
 1417TIP3    H125742   5.139   3.072  11.161 -1.4128  2.0402  0.9313
 1417TIP3    H225743   5.074   2.989  11.269 -0.0657 -0.3536 -0.0756
 1418TIP3   OH225744   1.181   4.496  11.528 -0.2415 -0.1217 -0.5129
 1418TIP3    H125745   1.183   4.586  11.495  0.8951 -0.4803 -1.4311
 1418TIP3    H225746   1.117   4.452  11.473 -0.1291 -0.1085 -0.6527
 1419TIP3   OH225747   4.735   3.611   4.910 -0.0841 -0.1482 -0.5833
 1419TIP3    H125748   4.708   3.702   4.902  0.6556  0.2215  0.8507
 1419TIP3    H225749   4.831   3.614   4.908 -0.0563 -0.9383 -0.8942
 1420TIP3   OH225750   4.764   1.900  15.641  0.0952 -0.3231 -0.0540
 1420TIP3    H125751   4.853   1.926  15.666  0.4636 -0.0087 -1.6848
 1420TIP3    H225752   4.735   1.843  15.713  2.0758 -1.4591 -0.1382
 1421TIP3   OH225753   4.882   2.381   1.463 -0.1563 -0.3989 -0.5772
 1421TIP3    H125754   4.920   2.355   1.546  0.3275 -0.1255 -0.7156
 1421TIP3    H225755   4.822   2.453   1.485 -0.2638 -0.5331 -0.4255
 1422TIP3   OH225756   0.560   3.273  14.475  0.0432  0.2156 -0.0118
 1422TIP3    H125757   0.637   3.264  14.418 -0.5197  1.0756 -0.9174
 1422TIP3    H225758   0.491   3.224  14.431 -0.3958  0.8946 -0.0941
 1423TIP3   OH225759   5.811   4.907  12.707 -0.9553 -0.7390 -0.3024
 1423TIP3    H125760   5.724   4.897  12.669 -0.7810  0.4412 -1.0666
 1423TIP3    H225761   5.801   4.977  12.772 -0.3082  0.3663 -1.3646
 1424TIP3   OH225762   3.711   2.252  11.938  0.1052  0.4960  1.0279
 1424TIP3    H125763   3.792   2.285  11.976  0.0309  0.3220  1.3334
 1424TIP3    H225764   3.694   2.311  11.864  1.0471 -0.0820  0.3422
 1425TIP3   OH225765   2.290   1.786   2.181  0.0327  0.0157 -0.1213
 1425TIP3    H125766   2.250   1.708   2.141  2.4702 -0.2379 -2.2362
 1425TIP3    H225767   2.380   1.759   2.200  1.1260  2.5069 -1.5627
 1426TIP3   OH225768   2.712   1.319   4.269  0.3381  0.0389  0.1363
 1426TIP3    H125769   2.771   1.392   4.285  0.1153  0.2362  0.0576
 1426TIP3    H225770   2.625   1.358   4.266  0.2553 -0.1687 -0.2993
 1427TIP3   OH225771   0.295   4.678   2.612  0.6357 -0.3730 -0.1261
 1427TIP3    H125772   0.318   4.770   2.626 -0.3427 -0.1527  0.0715
 1427TIP3    H225773   0.218   4.680   2.555 -0.1098 -1.0223  0.8388
 1428TIP3   OH225774   1.687   3.520  12.198  0.1200 -1.1143  0.4624
 1428TIP3    H125775   1.637   3.447  12.161  0.2132 -1.0431  0.1984
 1428TIP3    H225776   1.778   3.494  12.187  0.1367 -1.6407  1.7321
 1429TIP3   OH225777   6.043   4.849   1.333 -0.0816 -0.5817  0.4747
 1429TIP3    H125778   6.090   4.924   1.370 -1.8769  0.3048  0.9808
 1429TIP3    H225779   6.068   4.848   1.241 -1.2241  1.5716  0.1070
 1430TIP3   OH225780   5.252   5.130  14.375 -0.1015 -0.2044 -0.1583
 1430TIP3    H125781   5.293   5.123  14.289  0.9935  0.2634  0.3202
 1430TIP3    H225782   5.325   5.139  14.436 -0.9012  0.4966  0.7162
 1431TIP3   OH225783   0.699   6.527  14.407  0.1263  0.0759 -0.1250
 1431TIP3    H125784   0.624   6.476  14.377 -0.6504  1.0568  0.1392
 1431TIP3    H225785   0.745   6.551  14.327  0.9443 -1.7062 -0.2112
 1432TIP3   OH225786   1.540   4.240  11.371  0.7351 -0.1002  0.4675
 1432TIP3    H125787   1.621   4.192  11.355  0.0465 -0.9646 -0.5304
 1432TIP3    H225788   1.513   4.212  11.459  0.5812 -1.2166  0.0808
 1433TIP3   OH225789   5.755   2.963   0.396  0.5032  0.1057  0.2828
 1433TIP3    H125790   5.793   3.011   0.322 -0.8516  1.9754  0.7602
 1433TIP3    H225791   5.803   2.881   0.398  1.7460  0.7416 -1.6128
 1434TIP3   OH225792   2.877   2.070  15.389 -1.1784 -0.7358 -0.1088
 1434TIP3    H125793   2.819   2.095  15.317  0.3717 -0.0741 -1.1724
 1434TIP3    H225794   2.940   2.142  15.394  0.6690 -2.3112 -0.2394
 1435TIP3   OH225795   4.015   5.816  16.420 -0.1483 -0.1369 -0.0348
 1435TIP3    H125796   4.082   5.782  16.479  1.8433  0.4997 -1.8714
 1435TIP3    H225797   3.950   5.857  16.477  0.5329 -1.6003  1.8276
 1436TIP3   OH225798   1.429   1.602  11.134 -0.7222 -0.2739 -0.9744
 1436TIP3    H125799   1.381   1.524  11.162  0.2117  0.7835  4.1723
 1436TIP3    H225800   1.512   1.568  11.100 -0.2843 -1.5710  1.2908
 1437TIP3   OH225801   5.968   3.241  13.454 -0.3036 -0.2619  0.5851
 1437TIP3    H125802   5.948   3.319  13.403 -0.5689  0.1786  1.3638
 1437TIP3    H225803   6.062   3.247  13.471 -0.0305 -0.8773 -0.6246
 1438TIP3   OH225804   3.522   0.539   0.399 -0.5454 -0.3624 -0.7319
 1438TIP3    H125805   3.553   0.450   0.417 -1.2154 -0.3386  0.6508
 1438TIP3    H225806   3.603   0.591   0.393 -0.1732 -0.9534 -0.9292
 1439TIP3   OH225807   0.922   6.268  16.279  0.1345  0.2638  0.5249
 1439TIP3    H125808   0.935   6.180  16.314  1.7375  0.7334  1.1638
 1439TIP3    H225809   0.941   6.260  16.186  0.9023  0.0611  0.6981
 1440TIP3   OH225810   0.570   0.146  16.115 -0.0829 -0.8579  0.5212
 1440TIP3    H125811   0.623   0.075  16.150  1.1224 -0.1285  0.1890
 1440TIP3    H225812   0.579   0.139  16.020 -1.8199 -1.6692  0.4038
 1441TIP3   OH225813   3.658   6.798  13.725  0.0577  0.0494 -0.0387
 1441TIP3    H125814   3.627   6.713  13.695 -1.1548  0.0686  1.1270
 1441TIP3    H225815   3.582   6.856  13.716  0.6945  0.8742 -0.2409
 1442TIP3   OH225816   1.093   4.376  14.901 -0.0099  0.0731  0.2490
 1442TIP3    H125817   1.032   4.330  14.843 -0.6469  3.8883 -2.2218
 1442TIP3    H225818   1.040   4.405  14.975  0.0884 -1.7319  1.0553
 1443TIP3   OH225819   6.778   4.135  10.390 -0.0229 -0.0787 -0.0136
 1443TIP3    H125820   6.682   4.128  10.391  0.0605 -1.6960 -0.9209
 1443TIP3    H225821   6.808   4.061  10.442  0.7413  1.0579  1.1965
 1444TIP3   OH225822   6.445   3.967   4.736  0.6958 -0.1744 -0.2021
 1444TIP3    H125823   6.419   3.918   4.814 -1.1966 -0.8511 -1.2357
 1444TIP3    H225824   6.464   3.900   4.671  1.7064  0.4077 -0.5119
 1445TIP3   OH225825   4.811   5.943  15.380  0.1142  0.0966 -0.2761
 1445TIP3    H125826   4.735   5.924  15.436 -0.5515 -1.2312 -1.6137
 1445TIP3    H225827   4.788   6.024  15.335  0.3279  0.7502  0.7493
 1446TIP3   OH225828   5.695   2.503   4.034 -0.5000  0.3866 -0.5587
 1446TIP3    H125829   5.644   2.581   4.011 -1.2534 -0.6002 -2.3060
 1446TIP3    H225830   5.637   2.430   4.015  0.4506 -0.6328  0.4199
 1447TIP3   OH225831   4.411   6.105   5.898  0.3359  0.4757  0.1224
 1447TIP3    H125832   4.371   6.099   5.985 -0.6473  0.8842 -0.2956
 1447TIP3    H225833   4.498   6.067   5.909  0.0581  0.1303  1.1887
 1448TIP3   OH225834   3.937   0.399  13.611  0.0243  0.1708  0.8296
 1448TIP3    H125835   3.991   0.331  13.651  0.9205 -0.5815 -1.5537
 1448TIP3    H225836   3.864   0.352  13.571  0.4960  0.5937 -0.5841
 1449TIP3   OH225837   2.517   4.123  12.750 -0.1652 -0.1160 -0.1963
 1449TIP3    H125838   2.576   4.150  12.820  0.0872  0.5260 -0.6586
 1449TIP3    H225839   2.511   4.198  12.692 -1.1669 -0.2940 -0.3429
 1450TIP3   OH225840   2.238   0.325  14.073  0.4386  0.0363 -0.2462
 1450TIP3    H125841   2.195   0.346  14.156 -0.9797 -0.2211 -0.9047
 1450TIP3    H225842   2.258   0.410  14.035  0.1580  0.1645 -0.1143
 1451TIP3   OH225843   4.442   2.558   2.605  0.1056  0.6574  0.1653
 1451TIP3    H125844   4.403   2.472   2.587  0.7814  0.0635  1.4859
 1451TIP3    H225845   4.438   2.604   2.521 -0.3697 -0.6217 -0.5237
 1452TIP3   OH225846   4.007   6.444  13.064  0.1074  0.6364  0.1603
 1452TIP3    H125847   4.025   6.523  13.012  1.2753  0.7653  0.7272
 1452TIP3    H225848   4.077   6.384  13.040 -0.9513 -0.3496 -0.4873
 1453TIP3   OH225849   6.565   3.609   5.624 -0.5238 -0.2327 -0.5471
 1453TIP3    H125850   6.583   3.555   5.547 -2.2354 -1.3746 -0.1669
 1453TIP3    H225851   6.551   3.546   5.694  1.5792  0.8025  0.8484
 1454TIP3   OH225852   2.465   2.462  16.718  0.3521 -0.0337  0.6269
 1454TIP3    H125853   2.444   2.555  16.707  2.5273  0.5326  1.0522
 1454TIP3    H225854   2.551   2.452  16.678 -0.1303 -2.0197  0.0230
 1455TIP3   OH225855   2.786   6.145   0.628  0.7599  0.1211  0.1259
 1455TIP3    H125856   2.754   6.068   0.675  0.7834  0.7266  1.1604
 1455TIP3    H225857   2.815   6.205   0.697  3.9141 -0.3002 -0.7584
 1456TIP3   OH225858   5.977   5.439  16.594 -0.1136 -0.0465  0.6921
 1456TIP3    H125859   5.944   5.350  16.598 -0.8876  0.2220  0.4541
 1456TIP3    H225860   5.961   5.475  16.681  0.9023 -0.3759  1.0258
 1457TIP3   OH225861   0.673   6.266   5.454  0.1883  0.0924  0.4512
 1457TIP3    H125862   0.739   6.221   5.506  0.6340 -0.1010 -0.2818
 1457TIP3    H225863   0.596   6.209   5.460  0.3221 -0.0692  0.6649
 1458TIP3   OH225864   2.572   2.697   3.160 -0.3185  0.4274 -0.4770
 1458TIP3    H125865   2.661   2.705   3.127 -0.4197  1.1478 -0.5951
 1458TIP3    H225866   2.554   2.782   3.202 -0.4048 -0.2657  0.9047
 1459TIP3   OH225867   0.761   2.864  10.588 -0.2934 -0.0122  0.0137
 1459TIP3    H125868   0.808   2.790  10.626  1.8010  1.5228  0.5210
 1459TIP3    H225869   0.735   2.917  10.663  1.4457  1.6187 -0.4955
 1460TIP3   OH225870   2.680   1.904   0.955  0.2720  0.9975  0.1481
 1460TIP3    H125871   2.748   1.841   0.931 -0.2609  0.5168 -0.1233
 1460TIP3    H225872   2.719   1.989   0.937  1.1783  0.7655  0.9820
 1461TIP3   OH225873   3.778   6.607  14.837  0.6623  0.1376 -0.0637
 1461TIP3    H125874   3.749   6.698  14.846  1.1599  0.2911 -0.0015
 1461TIP3    H225875   3.806   6.583  14.925 -0.6566 -0.4857  0.1974
 1462TIP3   OH225876   0.673   3.555   3.098 -0.5305 -0.1490  0.2861
 1462TIP3    H125877   0.696   3.524   3.011  0.9731  1.0625  0.2280
 1462TIP3    H225878   0.670   3.475   3.152 -0.8102 -0.8230 -0.7141
 1463TIP3   OH225879   1.597   0.564   4.459  0.0508 -0.0913 -0.0427
 1463TIP3    H125880   1.528   0.623   4.490  1.2170  1.2975 -0.0385
 1463TIP3    H225881   1.633   0.526   4.539  1.5781  1.8114  0.2075
 1464TIP3   OH225882   3.653   3.942   4.592 -0.1842  0.0666 -0.8104
 1464TIP3    H125883   3.614   3.980   4.671  0.9525 -0.1340 -0.1432
 1464TIP3    H225884   3.596   3.973   4.520 -0.5690  1.1857 -0.0454
 1465TIP3   OH225885   3.517   3.062  13.243 -0.1340  0.1902  1.0899
 1465TIP3    H125886   3.573   3.089  13.316 -1.2714  1.8486  1.3904
 1465TIP3    H225887   3.496   3.144  13.198 -0.5512 -0.6585 -0.2992
 1466TIP3   OH225888   1.856   5.681  14.664 -0.0510 -0.4958 -0.2227
 1466TIP3    H125889   1.906   5.737  14.606  0.0632 -0.2916  0.0708
 1466TIP3    H225890   1.910   5.603  14.675  0.4144 -0.0768  0.4650
 1467TIP3   OH225891   2.895   0.793   4.495  0.2382  0.0154  0.3539
 1467TIP3    H125892   2.966   0.729   4.491  0.2371 -0.1381  2.3209
 1467TIP3    H225893   2.827   0.757   4.438  1.1870 -0.5044 -0.4688
 1468TIP3   OH225894   3.157   1.339   4.358  0.3716 -0.3066 -0.6462
 1468TIP3    H125895   3.104   1.272   4.315  1.3494 -0.7267 -1.2150
 1468TIP3    H225896   3.220   1.290   4.411  2.0524  0.1016 -2.2094
 1469TIP3   OH225897   2.182   5.693   3.866  0.0564  0.1423  0.2024
 1469TIP3    H125898   2.247   5.723   3.929  0.6786 -1.4024  0.3073
 1469TIP3    H225899   2.153   5.608   3.900 -2.6644  1.1832  0.6426
 1470TIP3   OH225900   4.822   2.014  14.730 -0.2344 -0.1452  0.1101
 1470TIP3    H125901   4.875   2.031  14.808 -1.0092 -0.3255  0.6811
 1470TIP3    H225902   4.814   2.100  14.687 -0.2932  0.0693  0.5433
 1471TIP3   OH225903   4.862   3.651  15.963  0.1903 -0.0857 -0.0573
 1471TIP3    H125904   4.775   3.614  15.956 -0.6922  1.3242  2.7888
 1471TIP3    H225905   4.874   3.701  15.882 -2.2250  0.8283  0.1148
 1472TIP3   OH225906   2.917   2.929   5.329 -0.9978  0.3008 -0.4171
 1472TIP3    H125907   2.985   2.997   5.325  0.8267 -1.3937  0.6080
 1472TIP3    H225908   2.947   2.862   5.267 -2.5013  0.1870 -1.0250
 1473TIP3   OH225909   6.781   1.966  12.472  0.0273  0.2841  0.0181
 1473TIP3    H125910   6.855   2.026  12.485 -0.2121  0.2104  1.9257
 1473TIP3    H225911   6.731   1.972  12.554 -2.5265  0.8939 -1.5332
 1474TIP3   OH225912   4.183   1.795   2.840  0.3019  0.0954 -0.0748
 1474TIP3    H125913   4.193   1.701   2.851  3.4062  0.4006 -0.0248
 1474TIP3    H225914   4.205   1.833   2.925 -0.3467  0.9270 -0.2613
 1475TIP3   OH225915   1.814   3.806   5.996 -0.1465  0.3078 -0.0336
 1475TIP3    H125916   1.773   3.838   5.916  0.1504 -1.0933 -0.7736
 1475TIP3    H225917   1.819   3.711   5.984 -0.2736  0.0548  1.7291
 1476TIP3   OH225918   1.083   2.781  12.903  0.2002  0.0330  0.0445
 1476TIP3    H125919   1.143   2.757  12.833 -0.2744 -0.2253 -0.2701
 1476TIP3    H225920   0.997   2.750  12.874 -0.2554  1.2569  0.0504
 1477TIP3   OH225921   0.924   0.684   1.869  0.1506 -0.1648  0.2572
 1477TIP3    H125922   0.987   0.614   1.888  0.5748  0.1307 -0.0583
 1477TIP3    H225923   0.857   0.675   1.937  0.3818 -0.6652  0.4202
 1478TIP3   OH225924   4.172   3.989  10.846 -0.6076  0.4814 -0.5827
 1478TIP3    H125925   4.188   3.917  10.785 -1.5187  0.8647 -1.2925
 1478TIP3    H225926   4.135   3.947  10.923  1.3729 -0.1043  0.0607
 1479TIP3   OH225927   6.049   4.894  12.813 -0.6299 -0.2478 -0.3396
 1479TIP3    H125928   5.977   4.853  12.765 -2.1869 -0.1001  1.7948
 1479TIP3    H225929   6.040   4.987  12.794 -0.6928 -0.2829 -0.4861
 1480TIP3   OH225930   0.299   2.885  15.357 -0.1051  0.2231  0.8681
 1480TIP3    H125931   0.244   2.894  15.434 -1.4178  0.2134 -0.0597
 1480TIP3    H225932   0.307   2.973  15.321  3.7282  0.9067  3.1784
 1481TIP3   OH225933   4.317   6.302  16.999 -0.4258 -0.1330  0.0268
 1481TIP3    H125934   4.342   6.393  17.007  2.2178 -0.8442  0.2758
 1481TIP3    H225935   4.346   6.261  17.080 -1.2354 -1.2679 -0.2379
 1482TIP3   OH225936   0.938   5.468   4.196  0.0631 -0.1422 -0.2002
 1482TIP3    H125937   0.974   5.417   4.123 -1.0014 -1.4323  0.1485
 1482TIP3    H225938   0.953   5.559   4.171 -1.8136 -0.5007 -2.8889
 1483TIP3   OH225939   3.412   5.188  16.415  0.5668  0.4036  0.1828
 1483TIP3    H125940   3.318   5.204  16.427  0.9427  2.9753 -0.0365
 1483TIP3    H225941   3.419   5.152  16.327 -0.2252 -0.0174  0.2809
 1484TIP3   OH225942   2.873   4.160  16.466 -0.1697 -0.0485  0.3697
 1484TIP3    H125943   2.823   4.147  16.385 -2.0504  0.2978  1.4534
 1484TIP3    H225944   2.853   4.250  16.492  3.8555  1.3806 -1.0666
 1485TIP3   OH225945   2.888   0.335  11.414  0.6218 -0.2510 -0.9779
 1485TIP3    H125946   2.819   0.391  11.380  2.2795  2.5023  0.0439
 1485TIP3    H225947   2.846   0.283  11.482 -0.9665 -0.3254 -2.0004
 1486TIP3   OH225948   4.080   5.875   2.092 -0.2338  0.0205  0.3471
 1486TIP3    H125949   4.092   5.969   2.081 -1.4306  0.0026 -1.2153
 1486TIP3    H225950   4.044   5.865   2.180 -1.6947  1.1660 -0.1073
 1487TIP3   OH225951   5.062   4.611   5.883  0.1480  0.0780  0.4697
 1487TIP3    H125952   5.000   4.575   5.946 -0.6381 -1.9483 -1.4121
 1487TIP3    H225953   5.147   4.577   5.911 -0.0701 -0.0522  0.9793
 1488TIP3   OH225954   3.363   1.779  12.563 -0.4342  0.0590 -0.5362
 1488TIP3    H125955   3.458   1.775  12.575 -0.6199 -1.1197  0.6579
 1488TIP3    H225956   3.349   1.747  12.474  0.1540 -1.7408 -0.0136
 1489TIP3   OH225957   5.210   4.242  13.884 -0.5929 -0.4677  0.0449
 1489TIP3    H125958   5.186   4.203  13.967 -1.4681  0.1833  0.1105
 1489TIP3    H225959   5.144   4.311  13.870  1.3415  1.5134  0.3325
 1490TIP3   OH225960   5.211   3.960  12.297  0.0463  0.1154  0.4521
 1490TIP3    H125961   5.296   3.923  12.322 -1.2060 -1.1016  3.0753
 1490TIP3    H225962   5.158   3.883  12.274 -1.3611  0.5960  2.0518
 1491TIP3   OH225963   3.817   5.830  15.565 -0.8088  0.7434  0.0619
 1491TIP3    H125964   3.798   5.778  15.487  3.1583  0.2016 -0.6339
 1491TIP3    H225965   3.775   5.782  15.636  1.7931 -2.8893 -0.7269
 1492TIP3   OH225966   4.534   2.939   0.420 -0.0946 -0.5860 -0.0926
 1492TIP3    H125967   4.519   2.858   0.468 -0.6654 -0.4622 -0.0469
 1492TIP3    H225968   4.629   2.948   0.415 -0.0346 -1.2265 -0.0514
 1493TIP3   OH225969   1.263   2.710  14.455 -0.6128  0.5205  0.4318
 1493TIP3    H125970   1.214   2.642  14.501 -1.7350 -0.2566 -1.8371
 1493TIP3    H225971   1.292   2.769  14.524 -2.1781 -0.6344  2.1407
 1494TIP3   OH225972   6.008   5.263   2.487 -0.2625 -0.4725  0.3484
 1494TIP3    H125973   6.065   5.278   2.411  2.0033 -0.7419  1.9619
 1494TIP3    H225974   5.927   5.227   2.449  0.6180 -0.0708 -1.9848
 1495TIP3   OH225975   2.891   4.861  16.347  0.2912  0.3357  0.2408
 1495TIP3    H125976   2.924   4.840  16.260 -0.5001 -1.6430  0.3970
 1495TIP3    H225977   2.802   4.893  16.332 -0.3099 -1.2024  0.3913
 1496TIP3   OH225978   4.644   6.716   2.411 -0.0036 -0.2823  0.4628
 1496TIP3    H125979   4.707   6.662   2.362  0.8260  1.9911 -1.0509
 1496TIP3    H225980   4.566   6.718   2.355  0.0472  0.2394  0.4081
 1497TIP3   OH225981   6.304   3.124   2.932  0.6168  0.1567  0.2519
 1497TIP3    H125982   6.317   3.029   2.932 -0.4425 -0.0078 -1.8190
 1497TIP3    H225983   6.251   3.141   3.011 -0.7291 -1.2187 -0.3243
 1498TIP3   OH225984   0.254   0.322  15.237 -0.2399  0.6082 -0.2621
 1498TIP3    H125985   0.312   0.395  15.217  0.7002 -0.4676 -1.4920
 1498TIP3    H225986   0.304   0.244  15.214 -2.4028 -0.3211 -1.9837
 1499TIP3   OH225987   1.168   4.024  15.909  0.1299  0.4766  0.1921
 1499TIP3    H125988   1.104   4.085  15.871  2.2637  1.7907 -1.4052
 1499TIP3    H225989   1.190   4.062  15.994 -1.7232 -0.3772  1.0857
 1500TIP3   OH225990   4.332   6.183  14.705  0.7587  0.4088 -0.0550
 1500TIP3    H125991   4.283   6.230  14.637 -0.1711  2.0147  1.6757
 1500TIP3    H225992   4.410   6.237  14.719  1.1990 -0.1905 -0.2156
 1501TIP3   OH225993   5.214   3.329   6.056 -0.2252 -0.4096 -0.1861
 1501TIP3    H125994   5.307   3.308   6.045 -0.3504 -0.6125 -0.8514
 1501TIP3    H225995   5.194   3.302   6.146  0.2445 -0.7929 -0.1951
 1502TIP3   OH225996   1.567   4.278   3.980  0.7021 -0.3315  0.0322
 1502TIP3    H125997   1.661   4.261   3.979  1.0366  1.3635 -2.2178
 1502TIP3    H225998   1.558   4.360   4.030  0.2976 -0.9920  1.0657
 1503TIP3   OH225999   2.586   5.542  13.871  0.5940  0.5719  0.5090
 1503TIP3    H126000   2.591   5.613  13.807  2.4219 -0.2537 -0.2980
 1503TIP3    H226001   2.645   5.474  13.837 -0.6042 -1.0686  1.5947
 1504TIP3   OH226002   0.956   0.495  12.561  0.5358  0.2369  0.0432
 1504TIP3    H126003   1.035   0.536  12.526 -0.2182  1.1269 -0.6429
 1504TIP3    H226004   0.921   0.445  12.487  0.3057  0.0785  0.2595
 1505TIP3   OH226005   5.296   2.199   3.003 -0.2903 -0.7363 -0.4076
 1505TIP3    H126006   5.206   2.207   2.970 -0.2937  0.0580 -0.2265
 1505TIP3    H226007   5.334   2.128   2.952 -0.7598 -0.5187 -1.0760
 1506TIP3   OH226008   3.286   6.108  11.694  0.2281 -0.2728 -0.0756
 1506TIP3    H126009   3.264   6.200  11.708 -0.4718 -0.1843 -1.6723
 1506TIP3    H226010   3.213   6.073  11.644  0.6325 -1.6380  0.2591
 1507TIP3   OH226011   4.815   4.960   5.147  0.4587  0.0854 -0.0724
 1507TIP3    H126012   4.756   5.018   5.195 -0.0442  0.4012 -1.0650
 1507TIP3    H226013   4.800   4.874   5.185 -2.4199 -0.2925 -1.9286
 1508TIP3   OH226014   0.601   2.964  17.250 -0.0802 -0.6632  0.0394
 1508TIP3    H126015   0.591   2.992  17.159  0.0208 -0.0229  0.2259
 1508TIP3    H226016   0.594   3.044  17.301  1.4902 -0.7827  0.4853
 1509TIP3   OH226017   5.614   2.573   2.439  0.0509  0.0079 -0.8238
 1509TIP3    H126018   5.583   2.550   2.526 -0.5432  1.0379 -0.7577
 1509TIP3    H226019   5.709   2.565   2.444  0.0763  0.8960  0.1628
 1510TIP3   OH226020   2.957   1.433  10.803 -0.2296 -0.3675 -0.2161
 1510TIP3    H126021   2.893   1.478  10.749 -1.8534 -2.8933 -0.4740
 1510TIP3    H226022   3.026   1.407  10.742 -1.0125 -1.2994 -0.7319
 1511TIP3   OH226023   6.044   5.624   3.724  0.3630 -0.2435  0.4782
 1511TIP3    H126024   6.016   5.533   3.714 -1.7513  0.4420 -0.0389
 1511TIP3    H226025   6.036   5.661   3.636 -0.1223  0.8209  0.9708
 1512TIP3   OH226026   3.217   6.102   2.880 -0.1258 -0.0389  0.5189
 1512TIP3    H126027   3.153   6.164   2.844 -0.0107 -0.5085 -0.5170
 1512TIP3    H226028   3.234   6.040   2.808  1.9455  0.4246  0.5708
 1513TIP3   OH226029   3.364   4.845   3.294 -0.9030  0.0014 -0.2171
 1513TIP3    H126030   3.336   4.922   3.243 -3.1910 -0.6748 -0.0544
 1513TIP3    H226031   3.313   4.851   3.375  0.5097 -0.5517  0.7277
 1514TIP3   OH226032   0.149   6.206  15.075 -0.3180  0.2129  0.2418
 1514TIP3    H126033   0.142   6.290  15.030  1.0630  0.6539  0.8282
 1514TIP3    H226034   0.085   6.150  15.031 -0.3724  1.2041 -0.9721
 1515TIP3   OH226035   2.531   3.183   0.656 -0.4017  0.2367 -0.1333
 1515TIP3    H126036   2.438   3.176   0.635 -0.0036 -1.6983 -1.3575
 1515TIP3    H226037   2.552   3.275   0.640 -1.6257  0.2300 -1.9646
 1516TIP3   OH226038   1.284   0.751   5.889 -0.4587  0.3208 -0.1319
 1516TIP3    H126039   1.370   0.748   5.931 -0.5027 -0.8455 -0.1199
 1516TIP3    H226040   1.236   0.677   5.925 -1.7959  1.4838  0.5177
 1517TIP3   OH226041   2.538   5.756   4.295 -0.6697 -0.2256  0.5986
 1517TIP3    H126042   2.463   5.770   4.352  0.2936  2.1823  1.3390
 1517TIP3    H226043   2.611   5.798   4.341  1.0132 -1.9760 -0.3969
 1518TIP3   OH226044   0.827   4.190  13.183  0.3287 -0.4827  0.0052
 1518TIP3    H126045   0.829   4.177  13.088  1.7209  2.4361 -0.4196
 1518TIP3    H226046   0.748   4.242  13.198  1.1547  0.7568  0.1624
 1519TIP3   OH226047   4.494   3.044   5.607 -0.3786 -0.1401 -0.1418
 1519TIP3    H126048   4.516   2.956   5.578 -0.8449 -0.3437  0.1136
 1519TIP3    H226049   4.401   3.054   5.584 -0.0921  0.6220 -1.0114
 1520TIP3   OH226050   2.831   1.274   1.772 -0.3891  0.0959  0.0441
 1520TIP3    H126051   2.889   1.227   1.712 -0.2441  1.0287 -0.5537
 1520TIP3    H226052   2.753   1.219   1.777  0.3178 -0.8879  0.4117
 1521TIP3   OH226053   6.687   3.434   0.211 -0.3309 -0.1309 -0.1964
 1521TIP3    H126054   6.762   3.469   0.259 -0.8798  1.1543 -0.2455
 1521TIP3    H226055   6.697   3.468   0.122 -1.5736  0.9985  0.0859
 1522TIP3   OH226056   6.067   6.647   3.935  0.1950 -0.3826  0.1934
 1522TIP3    H126057   6.077   6.726   3.989 -3.1951  0.4713 -0.3151
 1522TIP3    H226058   5.999   6.596   3.980 -1.7976 -0.2500 -2.5198
 1523TIP3   OH226059   3.832   3.560   3.155 -0.2795  0.2850 -0.1489
 1523TIP3    H126060   3.772   3.599   3.090  0.1419  0.8093 -0.2258
 1523TIP3    H226061   3.914   3.606   3.142 -0.0134 -0.0522  0.3384
 1524TIP3   OH226062   1.717   2.374   5.996  0.2598 -0.3721 -0.0273
 1524TIP3    H126063   1.804   2.348   5.964 -0.1529  0.1974 -1.6502
 1524TIP3    H226064   1.656   2.331   5.937 -0.5642 -0.2342  0.7116
 1525TIP3   OH226065   1.400   4.674  13.288 -0.1074  0.2721 -0.0862
 1525TIP3    H126066   1.367   4.755  13.325  0.0098 -0.2439  1.1717
 1525TIP3    H226067   1.495   4.686  13.284 -0.1523  0.4805 -0.6130
 1526TIP3   OH226068   1.668   2.973  13.382  0.6282  0.5129 -0.1384
 1526TIP3    H126069   1.605   2.966  13.310  0.2402  0.9169  0.1529
 1526TIP3    H226070   1.706   3.061  13.372  1.0219  0.3313 -0.2169
 1527TIP3   OH226071   6.133   1.417   3.941  0.2360  0.1493 -0.1444
 1527TIP3    H126072   6.140   1.426   3.846 -0.0589 -1.6640 -0.3548
 1527TIP3    H226073   6.179   1.494   3.975  3.5802 -1.0317 -1.7210
 1528TIP3   OH226074   6.038   0.503  13.138  0.4984 -0.6411 -0.1371
 1528TIP3    H126075   6.023   0.423  13.087  1.8604 -0.8088 -0.2789
 1528TIP3    H226076   6.007   0.574  13.082  1.2447 -0.8953 -0.8765
 1529TIP3   OH226077   2.630   5.602   0.976  0.5534 -0.2270 -0.2946
 1529TIP3    H126078   2.620   5.686   1.019 -1.5136  0.4582 -2.0295
 1529TIP3    H226079   2.592   5.539   1.037 -0.6955  0.4903 -0.3359
 1530TIP3   OH226080   4.396   2.440  13.899 -0.2279 -0.2440  0.2637
 1530TIP3    H126081   4.327   2.502  13.922 -1.3740 -1.6953  0.8572
 1530TIP3    H226082   4.444   2.482  13.828 -1.8381  0.7133 -0.2921
 1531TIP3   OH226083   5.511   6.673   2.522 -0.3693  0.3937  0.0309
 1531TIP3    H126084   5.423   6.684   2.485  0.3845  3.0762 -1.0127
 1531TIP3    H226085   5.517   6.740   2.590  0.9148  0.2910  0.0327
 1532TIP3   OH226086   2.426   4.116   2.005  0.3437  0.4002  0.3294
 1532TIP3    H126087   2.409   4.210   2.001 -3.0029 -0.2115 -1.0936
 1532TIP3    H226088   2.385   4.086   2.086  1.4757  0.1707  0.8270
 1533TIP3   OH226089   0.769   6.563  16.894  0.6247  0.7290  0.3828
 1533TIP3    H126090   0.687   6.608  16.914  0.9308  2.4432 -2.0764
 1533TIP3    H226091   0.809   6.549  16.979 -2.4405 -0.6491  1.7062
 1534TIP3   OH226092   0.635   2.728   3.684 -0.3727 -0.4161 -0.1936
 1534TIP3    H126093   0.587   2.734   3.601  0.3740  2.1984 -0.4685
 1534TIP3    H226094   0.726   2.713   3.658 -0.2481 -0.3114  0.1856
 1535TIP3   OH226095   5.733   4.487   0.434  0.0183  0.1740 -0.0565
 1535TIP3    H126096   5.638   4.484   0.428 -0.0599 -1.0460  1.8223
 1535TIP3    H226097   5.762   4.398   0.416  0.7320  0.2572  0.6360
 1536TIP3   OH226098   1.175   5.007  14.453  0.1533 -0.5019 -0.4743
 1536TIP3    H126099   1.271   5.004  14.451  0.1871  0.0125  0.4258
 1536TIP3    H226100   1.154   5.096  14.483 -0.6051 -0.7291 -0.3201
 1537TIP3   OH226101   1.001   3.218  14.974 -0.8350 -0.1104  0.6557
 1537TIP3    H126102   1.054   3.278  14.921  0.6031 -0.3975  1.7652
 1537TIP3    H226103   1.033   3.131  14.951 -2.8415 -0.4957 -0.8604
 1538TIP3   OH226104   1.374   3.495   1.965  0.1578 -0.0400  0.5216
 1538TIP3    H126105   1.436   3.522   2.032  1.1139  0.8040 -0.6707
 1538TIP3    H226106   1.346   3.577   1.923 -0.1928 -0.5634 -0.2989
 1539TIP3   OH226107   4.170   2.124   3.321  0.4572  0.0632  0.0140
 1539TIP3    H126108   4.091   2.162   3.284 -0.0670  1.4309  2.4376
 1539TIP3    H226109   4.242   2.163   3.271 -0.2636  1.2133 -0.1371
 1540TIP3   OH226110   4.629   0.185  13.577 -0.0368 -0.3148 -0.0577
 1540TIP3    H126111   4.596   0.110  13.627  1.3240  0.1251  1.5560
 1540TIP3    H226112   4.719   0.161  13.556  0.7483  1.2728  1.3536
 1541TIP3   OH226113   2.350   0.644  16.734  0.0124  0.4386 -0.5644
 1541TIP3    H126114   2.335   0.559  16.691 -2.0610  0.5697 -0.1191
 1541TIP3    H226115   2.400   0.694  16.669  0.8961 -0.9566 -1.0019
 1542TIP3   OH226116   1.354   1.554  13.862  0.0438  0.0128 -0.0186
 1542TIP3    H126117   1.414   1.628  13.873  0.1692 -0.0155 -0.5107
 1542TIP3    H226118   1.388   1.486  13.920  1.2909 -0.5042 -1.3569
 1543TIP3   OH226119   5.832   5.615   2.349  0.7086 -0.1216  0.0088
 1543TIP3    H126120   5.893   5.677   2.311  0.0541 -1.5364 -3.5389
 1543TIP3    H226121   5.745   5.653   2.333  0.4811  0.0967  1.6910
 1544TIP3   OH226122   0.280   1.832   5.552  0.1791 -0.0469 -0.2073
 1544TIP3    H126123   0.354   1.771   5.561  0.6012  0.4386 -0.3663
 1544TIP3    H226124   0.313   1.900   5.494  1.1856  2.6355  3.3247
 1545TIP3   OH226125   5.738   0.662   3.577  0.6129  0.2541  0.3636
 1545TIP3    H126126   5.779   0.635   3.659 -1.4146 -2.3780  0.5724
 1545TIP3    H226127   5.644   0.657   3.594  0.1624  0.3240 -1.9151
 1546TIP3   OH226128   0.015   6.449  10.799 -0.0389 -0.2203 -0.5865
 1546TIP3    H126129   0.056   6.484  10.878  0.2615 -1.3887 -0.2087
 1546TIP3    H226130  -0.075   6.480  10.803 -0.5317 -1.7507  1.1753
 1547TIP3   OH226131   4.421   2.286   1.969 -0.0567 -0.0088 -0.2209
 1547TIP3    H126132   4.372   2.366   1.953 -2.2536 -1.5993 -1.8496
 1547TIP3    H226133   4.374   2.242   2.040  1.3247  0.2774  0.8941
 1548TIP3   OH226134   1.040   2.935   4.290 -0.4247 -0.1139 -0.2726
 1548TIP3    H126135   1.073   2.925   4.379 -1.2099  0.6204  0.1118
 1548TIP3    H226136   0.946   2.917   4.296 -0.3721 -0.6980 -1.0711
 1549TIP3   OH226137   6.263   6.534   1.456  0.7718  0.2079 -0.1345
 1549TIP3    H126138   6.190   6.584   1.493 -0.4171 -0.0377 -2.0918
 1549TIP3    H226139   6.341   6.570   1.498 -0.4965  0.2439  2.2417
 1550TIP3   OH226140   2.142   3.631   3.592  0.7727  0.3765  0.0348
 1550TIP3    H126141   2.138   3.536   3.583 -2.6546  0.3851  0.7404
 1550TIP3    H226142   2.177   3.646   3.680 -0.2218 -0.2841  0.5492
 1551TIP3   OH226143   0.720   2.154  10.686 -0.3826 -0.3205  0.4141
 1551TIP3    H126144   0.647   2.117  10.635  1.7408 -1.3890 -1.9698
 1551TIP3    H226145   0.721   2.246  10.662  0.8635 -0.8965 -1.8880
 1552TIP3   OH226146   3.853   4.690  14.154  0.1982  0.1819  0.1685
 1552TIP3    H126147   3.866   4.615  14.096 -2.2419 -0.7920  0.8250
 1552TIP3    H226148   3.794   4.748  14.105  1.5078  1.3702 -0.0407
 1553TIP3   OH226149   5.333   1.991   2.579  0.5295 -0.1307  0.9467
 1553TIP3    H126150   5.421   2.029   2.582  1.0656 -0.9144 -2.3120
 1553TIP3    H226151   5.275   2.067   2.572  1.2960  0.2849 -1.3359
 1554TIP3   OH226152   1.853   4.068  14.125  0.5548  0.4337 -0.3552
 1554TIP3    H126153   1.827   3.997  14.184  0.7985  2.7319  2.5756
 1554TIP3    H226154   1.945   4.084  14.146  0.0363  2.7567  0.2048
 1555TIP3   OH226155   0.405   4.639  13.303  0.1478  0.3935 -0.1025
 1555TIP3    H126156   0.392   4.610  13.212  0.9790 -0.7210  0.1369
 1555TIP3    H226157   0.351   4.579  13.355 -0.7445  1.3594  0.1107
 1556TIP3   OH226158   1.913   2.192  13.880 -0.4267  0.2110 -0.2726
 1556TIP3    H126159   1.992   2.195  13.827 -0.2008 -0.7321  0.0043
 1556TIP3    H226160   1.895   2.284  13.901  0.1929  0.4828 -0.9242
 1557TIP3   OH226161   3.494   1.223   1.445 -0.2183 -0.0662 -0.0699
 1557TIP3    H126162   3.504   1.237   1.539 -1.0253  0.3395 -0.0419
 1557TIP3    H226163   3.491   1.127   1.435 -1.1385 -0.0924  0.4245
 1558TIP3   OH226164   4.529   4.771  13.079  0.0616 -0.0815 -0.3173
 1558TIP3    H126165   4.505   4.834  13.146 -0.6602  0.2835 -0.9133
 1558TIP3    H226166   4.455   4.711  13.075  0.9582 -1.2682  0.5976
 1559TIP3   OH226167   1.430   2.568  14.919  0.0468  0.3080  0.3813
 1559TIP3    H126168   1.390   2.508  14.856  0.0125  1.3576 -0.6121
 1559TIP3    H226169   1.447   2.648  14.868  0.3488  1.0364  1.6175
 1560TIP3   OH226170   1.728   3.496  11.129  0.2810 -0.3894 -0.7220
 1560TIP3    H126171   1.816   3.504  11.165  0.2565  1.4399 -1.0121
 1560TIP3    H226172   1.741   3.454  11.044  0.9041  0.0346 -0.8395
 1561TIP3   OH226173   3.694   2.924   0.335  0.6735  0.1516 -0.5013
 1561TIP3    H126174   3.709   2.847   0.389  1.6288  0.2002 -0.6746
 1561TIP3    H226175   3.690   2.997   0.397 -2.7148 -0.2976 -0.1050
 1562TIP3   OH226176   6.480   6.619   1.596  0.5533  0.2061 -0.0919
 1562TIP3    H126177   6.494   6.540   1.649 -0.0289 -0.6171 -1.1560
 1562TIP3    H226178   6.568   6.647   1.571  0.7176 -0.5570 -0.3687
 1563TIP3   OH226179   4.150   4.241  10.768  0.1893 -0.0298 -0.1330
 1563TIP3    H126180   4.161   4.147  10.786 -0.1601 -0.2007 -0.7801
 1563TIP3    H226181   4.071   4.266  10.815  0.7956  0.1477  0.7867
 1564TIP3   OH226182   3.492   4.316  15.548  0.6389 -0.1950  0.2957
 1564TIP3    H126183   3.406   4.349  15.522  0.9168 -0.8276 -1.4848
 1564TIP3    H226184   3.475   4.226  15.577  1.0236 -1.1320 -2.2964
 1565TIP3   OH226185   1.191   4.300  12.969  0.0599 -0.5339  0.1356
 1565TIP3    H126186   1.276   4.260  12.951  0.0658 -1.6113  2.3530
 1565TIP3    H226187   1.133   4.263  12.903  0.8617 -1.3992 -0.1034
 1566TIP3   OH226188   5.605   3.397  11.043 -0.2998 -0.2604  0.0375
 1566TIP3    H126189   5.517   3.413  11.009 -0.6297  0.2204  1.1057
 1566TIP3    H226190   5.594   3.394  11.138  1.2011  2.0332  0.3182
 1567TIP3   OH226191   3.757   1.511   5.323  0.3930 -0.8847  0.1219
 1567TIP3    H126192   3.809   1.445   5.278  0.5929 -0.3189 -0.4961
 1567TIP3    H226193   3.747   1.478   5.412  0.6945 -1.6245 -0.1136
 1568TIP3   OH226194   0.953   3.080  15.724 -0.5124  0.0812  0.2718
 1568TIP3    H126195   0.925   3.149  15.784  1.3178  0.3114  0.8854
 1568TIP3    H226196   0.886   3.079  15.655 -0.9172  1.9786  0.6249
 1569TIP3   OH226197   3.611   3.412   3.239  0.0908  0.2602 -0.3299
 1569TIP3    H126198   3.690   3.445   3.196  0.7823 -1.5203 -0.4627
 1569TIP3    H226199   3.541   3.427   3.175  0.7606 -0.4722 -1.2590
 1570TIP3   OH226200   1.643   0.544   5.962 -0.2068 -0.2336  0.2796
 1570TIP3    H126201   1.678   0.509   6.044 -0.4173 -1.9272 -0.3193
 1570TIP3    H226202   1.607   0.629   5.985  1.6140  0.2346  1.5169
 1571TIP3   OH226203   1.151   1.704   6.899  0.4701  0.2073  1.1030
 1571TIP3    H126204   1.123   1.705   6.808 -1.7130 -0.7769  1.7272
 1571TIP3    H226205   1.241   1.672   6.896 -0.9024 -3.9535 -0.4222
 1572TIP3   OH226206   6.212   0.350   4.893 -0.1688 -0.6691  0.3221
 1572TIP3    H126207   6.243   0.261   4.909  1.0685  0.0652  2.1044
 1572TIP3    H226208   6.118   0.340   4.875 -0.2483 -2.2058  1.5311
 1573TIP3   OH226209   2.379   2.473  14.869  0.0968  0.1110  0.1740
 1573TIP3    H126210   2.288   2.472  14.898  0.2439 -2.2841  0.6543
 1573TIP3    H226211   2.374   2.464  14.774 -0.1884  1.1918  0.0816
 1574TIP3   OH226212   2.165   4.928   5.343 -0.1337 -0.4938 -0.2766
 1574TIP3    H126213   2.105   4.897   5.411 -0.6419 -0.6598 -0.7959
 1574TIP3    H226214   2.238   4.966   5.391 -0.7251 -0.1559  0.3622
 1575TIP3   OH226215   4.137   4.474  15.606 -0.2231 -0.1993  0.1796
 1575TIP3    H126216   4.220   4.521  15.601  0.0419 -0.2538  3.1319
 1575TIP3    H226217   4.074   4.540  15.635 -0.5681 -0.8404  0.9214
 1576TIP3   OH226218   4.456   5.268  10.554  0.4033  0.3017 -0.0930
 1576TIP3    H126219   4.492   5.189  10.595 -0.6992  0.6311  1.5254
 1576TIP3    H226220   4.514   5.283  10.479  1.7292 -0.9895  0.6263
 1577TIP3   OH226221   2.997   1.963   1.560  0.4779  0.3053  0.2538
 1577TIP3    H126222   2.927   1.899   1.545  1.1236 -0.5154  0.6236
 1577TIP3    H226223   3.078   1.913   1.544  1.0177  0.7697  1.4821
 1578TIP3   OH226224   0.424   5.872  16.054  0.4748  0.0278 -0.7614
 1578TIP3    H126225   0.340   5.900  16.018  0.5307  0.6577 -0.4049
 1578TIP3    H226226   0.488   5.932  16.016  0.8534 -0.8709 -1.5556
 1579TIP3   OH226227   2.595   0.684   2.053 -0.2064 -0.4891 -0.1072
 1579TIP3    H126228   2.636   0.707   2.137 -1.2569 -0.3790  0.3890
 1579TIP3    H226229   2.598   0.589   2.051 -2.3562 -0.6200  1.1998
 1580TIP3   OH226230   4.847   4.988  15.010 -0.0277  0.3333 -0.4661
 1580TIP3    H126231   4.879   5.075  15.032 -0.4013  0.1603  0.7718
 1580TIP3    H226232   4.926   4.938  14.987  0.0360  1.4415 -2.8192
 1581TIP3   OH226233   6.398   6.172  12.145 -0.1556 -0.1540 -0.0977
 1581TIP3    H126234   6.332   6.134  12.088 -0.7197 -0.6600  0.8744
 1581TIP3    H226235   6.348   6.227  12.206  0.2159 -1.2728  1.2280
 1582TIP3   OH226236   1.884   0.341   0.714 -0.4340 -0.3104  0.3456
 1582TIP3    H126237   1.836   0.338   0.797 -1.1496  1.0027 -0.0018
 1582TIP3    H226238   1.816   0.335   0.647  0.0299 -0.1022 -0.1463
 1583TIP3   OH226239   6.496   5.923  16.535 -0.8217 -0.0254 -0.6179
 1583TIP3    H126240   6.508   6.017  16.520  0.6187  0.0664  0.9076
 1583TIP3    H226241   6.415   5.917  16.586  0.7507  0.7142  2.0903
 1584TIP3   OH226242   0.584   0.151  15.845 -0.0719  0.2268 -0.8931
 1584TIP3    H126243   0.660   0.167  15.790  1.1949 -2.4846 -0.0278
 1584TIP3    H226244   0.515   0.126  15.783 -0.0542  1.9046 -1.6131
 1585TIP3   OH226245   3.776   6.603  14.293 -0.6119 -0.5041  0.1483
 1585TIP3    H126246   3.715   6.529  14.299  1.3489 -1.9454  3.3690
 1585TIP3    H226247   3.772   6.644  14.379  0.7166  1.2300 -0.5953
 1586TIP3   OH226248   2.097   4.802  13.009 -0.4486  0.4134  0.8840
 1586TIP3    H126249   2.175   4.853  12.990 -0.2326 -0.1041  0.3431
 1586TIP3    H226250   2.069   4.831  13.096 -0.8287  2.0682  0.2342
 1587TIP3   OH226251   1.947   4.867  15.118 -0.1289 -0.2224 -0.3146
 1587TIP3    H126252   1.882   4.866  15.048 -2.1975 -1.0052  1.5574
 1587TIP3    H226253   1.970   4.775  15.130  1.1402  0.0279 -0.7778
 1588TIP3   OH226254   0.693   6.741  11.725  0.6277 -0.0137  0.2969
 1588TIP3    H126255   0.753   6.668  11.743  2.2951  1.0758 -0.6685
 1588TIP3    H226256   0.623   6.701  11.673  1.9842 -0.7909 -1.0035
 1589TIP3   OH226257   3.266   0.704   5.784  0.1663  0.5256  0.6155
 1589TIP3    H126258   3.343   0.670   5.829 -0.0442 -2.0259 -0.8309
 1589TIP3    H226259   3.301   0.756   5.712  0.5620 -0.2856  0.2098
 1590TIP3   OH226260   6.687   2.291  15.655  0.0894  0.1717 -0.8044
 1590TIP3    H126261   6.601   2.327  15.631 -0.9690 -0.7111  1.4448
 1590TIP3    H226262   6.745   2.368  15.658 -1.6187  1.4593  1.6812
 1591TIP3   OH226263   5.898   4.845   3.410  0.1145 -0.4170  0.0276
 1591TIP3    H126264   5.961   4.774   3.425 -1.0786 -1.4709  0.0716
 1591TIP3    H226265   5.829   4.806   3.357 -0.8026  0.5934  0.4610
 1592TIP3   OH226266   4.307   3.359   6.327 -0.3330 -0.9264  0.1170
 1592TIP3    H126267   4.259   3.370   6.245  0.6597  0.6029 -0.2740
 1592TIP3    H226268   4.261   3.416   6.389  1.1549  0.8121 -0.3471
 1593TIP3   OH226269   0.678   1.627  12.673  0.4295 -0.0385  0.6729
 1593TIP3    H126270   0.584   1.615  12.686 -0.4286  3.1605 -1.6409
 1593TIP3    H226271   0.689   1.627  12.577  2.5148  1.1892  0.8742
 1594TIP3   OH226272   6.463   1.830   3.812  0.2145  0.2865  0.3836
 1594TIP3    H126273   6.481   1.811   3.720  1.9351 -1.0960  0.9800
 1594TIP3    H226274   6.455   1.926   3.815  0.8274  0.4008 -1.0924
 1595TIP3   OH226275   0.869   6.197   2.064 -0.2166  0.3407  0.0333
 1595TIP3    H126276   0.952   6.243   2.078  0.6540 -0.5556 -1.9510
 1595TIP3    H226277   0.878   6.117   2.116  0.3506  0.0687 -0.4642
 1596TIP3   OH226278   3.662   2.122   1.316 -0.3963  0.6182  0.4389
 1596TIP3    H126279   3.626   2.158   1.397 -1.6865 -0.1452  0.2205
 1596TIP3    H226280   3.754   2.105   1.337 -1.0074 -0.7455  2.1694
 1597TIP3   OH226281   6.748   4.127   4.713  0.1306  0.3331  1.0165
 1597TIP3    H126282   6.740   4.150   4.806  0.1574  0.4801  0.9828
 1597TIP3    H226283   6.721   4.035   4.709 -1.2884  0.7375  0.9379
 1598TIP3   OH226284   1.679   0.141   1.951 -0.0288  0.4080  0.3732
 1598TIP3    H126285   1.620   0.176   2.018 -1.4837 -0.4078 -0.4715
 1598TIP3    H226286   1.726   0.070   1.995  0.5662  1.2493  1.1295
 1599TIP3   OH226287   5.522   3.548  13.530  0.2590 -0.1541 -0.1108
 1599TIP3    H126288   5.439   3.566  13.574 -0.2940 -0.1354 -1.1505
 1599TIP3    H226289   5.589   3.563  13.597 -0.6591 -1.5775  1.1318
 1600TIP3   OH226290   5.816   3.150  16.788 -0.1339  0.6174  0.0050
 1600TIP3    H126291   5.761   3.176  16.863 -0.2945  1.8755 -0.5412
 1600TIP3    H226292   5.757   3.099  16.732 -0.0732 -0.1405  0.6140
 1601TIP3   OH226293   4.858   3.039   0.725  0.0968 -0.0328 -0.0828
 1601TIP3    H126294   4.913   2.965   0.749 -0.4748 -0.3913  0.1311
 1601TIP3    H226295   4.915   3.116   0.734  0.8831 -0.5065 -0.9361
 1602TIP3   OH226296   2.873   1.689   2.207  0.1485 -0.3468  0.6194
 1602TIP3    H126297   2.910   1.745   2.138  0.0766 -0.5820  0.3898
 1602TIP3    H226298   2.898   1.732   2.289  0.9229 -0.5056  0.4673
 1603TIP3   OH226299   3.287   5.536  16.901 -0.7187 -0.5531 -0.3026
 1603TIP3    H126300   3.278   5.523  16.996 -0.4802 -0.3562 -0.2553
 1603TIP3    H226301   3.332   5.619  16.892 -0.8286 -0.5251 -0.5934
 1604TIP3   OH226302   5.254   2.117  12.885 -0.1987 -0.3969 -0.1568
 1604TIP3    H126303   5.305   2.037  12.898  0.1884  0.1296  1.6107
 1604TIP3    H226304   5.307   2.170  12.825  1.3438  0.1326  1.6455
 1605TIP3   OH226305   3.999   1.830  17.102 -0.0942 -0.0816  0.4794
 1605TIP3    H126306   4.035   1.891  17.039  0.0869 -0.3617  0.3086
 1605TIP3    H226307   3.959   1.761  17.049 -1.6935  0.6795  0.6594
 1606TIP3   OH226308   4.196   0.850  16.596 -0.2606  0.1151  0.3837
 1606TIP3    H126309   4.219   0.943  16.604 -0.4411  0.3083 -1.1363
 1606TIP3    H226310   4.280   0.804  16.597 -0.0200  0.4845 -0.9719
 1607TIP3   OH226311   5.004   2.134  15.324  0.2399  0.1987  0.2968
 1607TIP3    H126312   5.042   2.203  15.269 -0.6023  1.2408  1.0133
 1607TIP3    H226313   5.068   2.122  15.394  0.5416  0.0072 -0.0053
 1608TIP3   OH226314   3.640   3.955  11.976  0.2972  0.5541 -0.7940
 1608TIP3    H126315   3.560   3.948  12.028  0.6681 -2.7832 -0.5215
 1608TIP3    H226316   3.611   3.951  11.885  0.1314 -0.7534 -0.6935
 1609TIP3   OH226317   6.018   3.070  15.020 -0.8075 -0.2715  0.2637
 1609TIP3    H126318   5.980   3.151  14.987  2.2216  1.7572  1.4756
 1609TIP3    H226319   6.060   3.030  14.943 -0.9380  0.1459 -0.0240
 1610TIP3   OH226320   1.884   5.161   3.052  0.0636  0.0588 -0.0945
 1610TIP3    H126321   1.962   5.199   3.092  0.1730  0.0035 -0.2497
 1610TIP3    H226322   1.853   5.228   2.991  1.4274 -0.8561 -1.8680
 1611TIP3   OH226323   6.566   2.290  15.187 -0.3310  0.1610 -0.5749
 1611TIP3    H126324   6.587   2.201  15.158  0.4129  0.5227 -1.1659
 1611TIP3    H226325   6.530   2.279  15.275  1.4343 -0.5848  0.0682
 1612TIP3   OH226326   2.903   1.912   0.322 -0.0813 -0.1530 -0.5284
 1612TIP3    H126327   2.909   1.995   0.275  1.4948  0.9921  1.5803
 1612TIP3    H226328   2.935   1.846   0.260 -1.6887  0.7234 -2.3397
 1613TIP3   OH226329   6.239   4.657  14.163  0.2226 -0.1706  0.3475
 1613TIP3    H126330   6.308   4.595  14.188  1.3595  0.7271 -0.4777
 1613TIP3    H226331   6.285   4.724  14.112 -1.0602  1.1188  0.8658
 1614TIP3   OH226332   1.536   4.483  13.128  0.0504  0.2264  0.2501
 1614TIP3    H126333   1.470   4.548  13.153  1.1098  1.4000  0.0906
 1614TIP3    H226334   1.563   4.509  13.040  3.6179  2.2588  1.8303
 1615TIP3   OH226335   4.573   3.366   4.910  0.2988  0.0679 -0.1039
 1615TIP3    H126336   4.624   3.437   4.869  0.6991 -0.0462  0.1882
 1615TIP3    H226337   4.495   3.409   4.944  0.5451  0.3756  0.0817
 1616TIP3   OH226338   5.675   5.622   1.988 -0.3770  0.1201 -0.3500
 1616TIP3    H126339   5.599   5.680   1.985 -0.6609 -0.2214  0.2624
 1616TIP3    H226340   5.727   5.653   2.062 -0.3676 -0.2036 -0.2180
 1617TIP3   OH226341   4.918   5.875   4.224  0.1332  0.4092  0.2264
 1617TIP3    H126342   4.840   5.894   4.275  0.3900  0.3602  0.6442
 1617TIP3    H226343   4.908   5.927   4.144  1.4031  3.3217  1.8897
 1618TIP3   OH226344   1.988   4.652   5.328  0.6278 -0.6119 -0.2936
 1618TIP3    H126345   1.988   4.699   5.412 -0.7226  1.8548 -1.6099
 1618TIP3    H226346   2.074   4.671   5.290 -0.0063  1.0749 -0.9332
 1619TIP3   OH226347   3.226   0.782   3.339  0.7046  0.8661 -0.0257
 1619TIP3    H126348   3.260   0.805   3.252  1.1097  0.1260 -0.0660
 1619TIP3    H226349   3.187   0.696   3.327  1.8134  0.2401  0.7967
 1620TIP3   OH226350   0.854   0.906   4.529 -0.1874  0.2327 -0.6714
 1620TIP3    H126351   0.817   0.868   4.608  0.2783  0.6720 -0.2331
 1620TIP3    H226352   0.827   0.848   4.458 -0.9096  0.0368 -0.2335
 1621TIP3   OH226353   1.785   0.860  14.639 -0.8152  0.4580  0.0317
 1621TIP3    H126354   1.751   0.936  14.687 -0.6354  0.7245 -0.2587
 1621TIP3    H226355   1.720   0.792  14.653 -1.2093  0.8068 -0.0854
 1622TIP3   OH226356   1.593   4.509  15.208 -0.5473 -0.0580 -0.1351
 1622TIP3    H126357   1.612   4.546  15.122 -2.5635 -2.7038 -1.7940
 1622TIP3    H226358   1.676   4.474  15.238  0.1507  0.7877 -1.0338
 1623TIP3   OH226359   2.369   4.340  10.987 -0.3495 -0.6740  0.2628
 1623TIP3    H126360   2.299   4.279  11.010 -0.1814 -0.6713  0.7974
 1623TIP3    H226361   2.437   4.325  11.054 -0.1400 -0.1866  0.1616
 1624TIP3   OH226362   0.385   0.020  14.513  0.6130  0.5927 -0.1230
 1624TIP3    H126363   0.329   0.098  14.505 -1.0773 -0.3879  1.5418
 1624TIP3    H226364   0.408   0.018  14.606 -0.3161 -1.4916  0.0876
 1625TIP3   OH226365   1.141   0.096  13.808  0.6087 -0.2433 -0.1580
 1625TIP3    H126366   1.139   0.163  13.875  0.0996 -0.8620  0.4520
 1625TIP3    H226367   1.228   0.057  13.815  0.9121  0.3622 -0.5286
 1626TIP3   OH226368   2.424   3.495   1.801  0.1060  0.1213  0.5897
 1626TIP3    H126369   2.419   3.484   1.706  1.1188  0.1346  0.5370
 1626TIP3    H226370   2.355   3.558   1.821  0.9833  1.3998 -0.3414
 1627TIP3   OH226371   1.093   2.840  15.600 -0.6887 -0.7324  0.2744
 1627TIP3    H126372   1.081   2.771  15.665 -0.7134 -0.1691  0.8768
 1627TIP3    H226373   1.007   2.884  15.597 -1.8107 -2.9680 -2.7358
 1628TIP3   OH226374   5.540   3.764  11.409 -0.6467  0.1492  0.2014
 1628TIP3    H126375   5.635   3.776  11.405 -0.4944 -1.2550 -0.4339
 1628TIP3    H226376   5.521   3.758  11.503  0.3043 -2.5651  0.2792
 1629TIP3   OH226377   4.972   5.619   1.893  0.1346  0.4849 -0.4057
 1629TIP3    H126378   4.991   5.697   1.841  0.8612  0.3644 -0.3360
 1629TIP3    H226379   4.900   5.576   1.848  0.4318  0.6437 -1.0350
 1630TIP3   OH226380   3.379   4.085  13.728 -0.1037 -0.3125 -0.9168
 1630TIP3    H126381   3.293   4.125  13.717 -0.2709 -1.3495 -3.7692
 1630TIP3    H226382   3.359   3.997  13.761  0.1560  1.0407  3.1064
 1631TIP3   OH226383   3.866   1.929  16.661 -0.2792  0.2386 -0.3167
 1631TIP3    H126384   3.787   1.958  16.706 -1.0621  2.0895 -2.7537
 1631TIP3    H226385   3.912   2.010  16.638  0.2074 -0.6504 -2.5784
 1632TIP3   OH226386   3.720   1.785   2.458  0.3072  0.2073  0.1829
 1632TIP3    H126387   3.812   1.804   2.476  0.0319  0.0977  1.7366
 1632TIP3    H226388   3.715   1.690   2.454 -0.2302  0.0731  2.9546
 1633TIP3   OH226389   4.876   0.936   3.908  0.2298 -0.5569  0.4186
 1633TIP3    H126390   4.822   0.974   3.977 -1.8391  1.2673 -2.1158
 1633TIP3    H226391   4.944   1.001   3.893  1.0890 -1.2661  1.1817
 1634TIP3   OH226392   6.405   1.639   6.586  0.7594 -0.5258 -0.0145
 1634TIP3    H126393   6.356   1.582   6.526 -0.4903  0.1663  0.3280
 1634TIP3    H226394   6.407   1.591   6.669 -1.2141  0.3533  0.5769
 1635TIP3   OH226395   2.224   1.551  11.682 -1.0513 -0.1200  0.1180
 1635TIP3    H126396   2.169   1.491  11.632  1.4344  0.0614 -2.9191
 1635TIP3    H226397   2.314   1.527  11.660  0.0453  2.3922  1.6049
 1636TIP3   OH226398   4.678   1.948  16.337 -0.5211  0.3501  0.8982
 1636TIP3    H126399   4.701   1.857  16.321 -0.0951  0.3650  1.4019
 1636TIP3    H226400   4.729   1.972  16.415  0.2768  1.3678  0.0717
 1637TIP3   OH226401   2.496   1.935   4.616  0.1762 -0.3510  0.0578
 1637TIP3    H126402   2.553   1.988   4.671 -0.0600  0.0197 -0.0594
 1637TIP3    H226403   2.488   1.852   4.663  0.5763 -0.2990  0.2176
 1638TIP3   OH226404   1.501   3.817  16.289 -0.9022  0.0031 -0.1965
 1638TIP3    H126405   1.434   3.840  16.225 -0.2614  0.1554 -0.8210
 1638TIP3    H226406   1.584   3.836  16.245 -0.4472 -0.1261  0.5896
 1639TIP3   OH226407   1.993   1.428   0.509  0.5085  0.0287 -0.1906
 1639TIP3    H126408   1.949   1.512   0.523 -1.0862 -0.9778  0.9827
 1639TIP3    H226409   2.051   1.418   0.585 -1.9355 -1.5361  1.5500
 1640TIP3   OH226410   0.409   3.050   3.156 -0.1110 -0.1819  0.4891
 1640TIP3    H126411   0.376   3.017   3.073  0.1924 -1.7355  0.9806
 1640TIP3    H226412   0.365   2.998   3.223  2.3866 -1.4649  1.1929
 1641TIP3   OH226413   4.353   2.288   5.073  0.6871 -0.3072  0.0353
 1641TIP3    H126414   4.295   2.329   5.009  1.3811  0.1009 -0.3410
 1641TIP3    H226415   4.323   2.197   5.077 -0.9930  0.2645  1.0305
 1642TIP3   OH226416   3.697   0.825  16.508 -0.6733  0.0894  0.2811
 1642TIP3    H126417   3.657   0.816  16.422 -0.6204 -1.2705  0.3803
 1642TIP3    H226418   3.791   0.817  16.492 -0.5473  1.4166  0.2794
 1643TIP3   OH226419   0.071   3.498   1.310  0.4462  0.2529  0.9417
 1643TIP3    H126420  -0.015   3.475   1.275  0.8467 -1.1466  0.8517
 1643TIP3    H226421   0.057   3.581   1.356 -1.2095 -0.5586  1.9306
 1644TIP3   OH226422   5.458   3.880   3.065  0.0545 -0.2363  0.5686
 1644TIP3    H126423   5.391   3.844   3.007  1.8782 -2.5135 -0.1989
 1644TIP3    H226424   5.541   3.848   3.029  1.4030  0.6716  2.7809
 1645TIP3   OH226425   3.065   0.387  14.154  0.9063 -0.0143  0.0116
 1645TIP3    H126426   3.010   0.310  14.165  0.6365  0.1424 -0.2408
 1645TIP3    H226427   3.081   0.392  14.060 -2.0108  2.2595 -0.4464
 1646TIP3   OH226428   3.159   2.394   1.530 -0.2612 -0.3795  0.2836
 1646TIP3    H126429   3.145   2.488   1.523 -0.8818 -0.3803  1.3793
 1646TIP3    H226430   3.071   2.356   1.526  0.1321 -1.1063 -2.5576
 1647TIP3   OH226431   6.179   5.626  13.840  0.0159  0.1726  0.3741
 1647TIP3    H126432   6.159   5.532  13.843 -1.0241  0.3650 -0.5455
 1647TIP3    H226433   6.177   5.654  13.932  1.5859 -0.9608  0.7760
 1648TIP3   OH226434   2.311   5.672  16.431  0.7603 -0.0739 -0.5792
 1648TIP3    H126435   2.328   5.629  16.347 -0.4353 -1.5768 -0.0713
 1648TIP3    H226436   2.246   5.739  16.410  3.1215  1.9714 -1.4946
 1649TIP3   OH226437   3.224   2.129   0.941 -0.4187 -0.0864  0.0333
 1649TIP3    H126438   3.174   2.103   0.863 -1.6378  1.1928  0.3670
 1649TIP3    H226439   3.160   2.173   0.997  0.9886  1.2004  0.6724
 1650TIP3   OH226440   2.295   4.785  11.843 -0.2771  0.2078  0.2070
 1650TIP3    H126441   2.218   4.739  11.876 -0.5051  0.1253 -0.4253
 1650TIP3    H226442   2.260   4.860  11.796 -0.0065 -0.1492 -0.5827
 1651TIP3   OH226443   0.360   5.116  12.830 -0.3497  0.1997 -0.5470
 1651TIP3    H126444   0.410   5.038  12.854 -0.7292  0.2623  0.4913
 1651TIP3    H226445   0.421   5.169  12.778 -0.0504 -0.7228 -1.1390
 1652TIP3   OH226446   2.705   3.895   5.416  0.4634 -0.0247  0.1684
 1652TIP3    H126447   2.780   3.847   5.450  1.9013  0.9735 -1.5177
 1652TIP3    H226448   2.709   3.980   5.460 -1.5809 -1.0643  2.5018
 1653TIP3   OH226449   3.519   2.427   1.182  0.1977 -0.7231 -0.8545
 1653TIP3    H126450   3.471   2.385   1.253  1.0117  0.7787  0.6428
 1653TIP3    H226451   3.452   2.448   1.116 -0.8225 -0.6986  0.1757
 1654TIP3   OH226452   3.879   0.918  11.067  0.2950  0.7305 -0.4562
 1654TIP3    H126453   3.832   0.857  11.010 -0.1980  0.7249 -0.0437
 1654TIP3    H226454   3.813   0.981  11.095  0.8617  1.6487 -1.1223
 1655TIP3   OH226455   2.159   2.126   6.363  0.3510 -0.1413 -0.4657
 1655TIP3    H126456   2.108   2.183   6.305  0.0223 -0.3517 -0.3784
 1655TIP3    H226457   2.101   2.053   6.384  0.0435  0.5483  1.1285
 1656TIP3   OH226458   1.838   4.015  17.186 -0.4577 -0.0668 -0.1146
 1656TIP3    H126459   1.754   3.993  17.144  0.1074 -0.6076 -0.9784
 1656TIP3    H226460   1.884   3.931  17.193  0.9108  0.5278 -1.6455
 1657TIP3   OH226461   0.011   3.488  13.969  0.0367  0.7859 -0.1540
 1657TIP3    H126462  -0.023   3.577  13.960 -1.2052  0.2710 -0.6550
 1657TIP3    H226463   0.089   3.487  13.912  1.4067  2.2039  1.6362
 1658TIP3   OH226464   0.730   5.590   3.674 -0.4549 -0.6956  0.4371
 1658TIP3    H126465   0.682   5.671   3.694 -2.1109 -1.4143 -0.5904
 1658TIP3    H226466   0.675   5.543   3.612  1.2722 -1.8713 -0.2553
 1659TIP3   OH226467   0.862   5.075  16.874  0.3881 -0.0486  0.0206
 1659TIP3    H126468   0.914   5.088  16.954  0.0059  0.8727  0.1202
 1659TIP3    H226469   0.809   5.154  16.867  0.5651 -0.0404 -1.2627
 1660TIP3   OH226470   6.561   5.553   3.603 -0.2384  0.7415  0.3445
 1660TIP3    H126471   6.513   5.632   3.629  1.8498  2.1146  0.1434
 1660TIP3    H226472   6.532   5.536   3.513 -2.4007 -0.0724  1.1698
 1661TIP3   OH226473   1.542   0.909  11.543 -0.0157 -0.2834 -0.2538
 1661TIP3    H126474   1.546   0.951  11.457 -0.4162  0.4750  0.1003
 1661TIP3    H226475   1.591   0.967  11.601  1.0731 -1.2685 -0.1466
 1662TIP3   OH226476   6.332   5.166   2.610 -0.1666  0.1448 -0.1889
 1662TIP3    H126477   6.318   5.216   2.530  0.8178  0.8971  0.1085
 1662TIP3    H226478   6.244   5.157   2.648 -0.3769  1.4770 -0.3350
 1663TIP3   OH226479   2.372   0.764   0.061  0.1602 -0.1595 -0.4885
 1663TIP3    H126480   2.444   0.708   0.033  0.1634  0.6155 -2.1399
 1663TIP3    H226481   2.297   0.705   0.069  0.9801 -0.9834  1.3344
 1664TIP3   OH226482   2.867   6.285  12.736 -0.1754 -0.0676  0.0338
 1664TIP3    H126483   2.832   6.366  12.698 -0.1938 -0.2642 -0.3699
 1664TIP3    H226484   2.878   6.306  12.829 -0.8434  0.1753  0.0645
 1665TIP3   OH226485   0.588   0.374  14.766 -0.1183 -0.2810  0.1511
 1665TIP3    H126486   0.537   0.444  14.724  0.0637  0.0993  0.5569
 1665TIP3    H226487   0.575   0.298  14.709 -0.7761 -0.0699  0.0060
 1666TIP3   OH226488   0.121   4.971  15.951  0.3335 -0.1595  0.1456
 1666TIP3    H126489   0.095   4.924  15.872 -0.8025 -0.2190  0.5512
 1666TIP3    H226490   0.082   4.922  16.023  1.7828 -0.3955  0.7932
 1667TIP3   OH226491   1.106   1.052   2.280  0.5587 -0.3065 -0.4764
 1667TIP3    H126492   1.175   1.088   2.336 -0.2942 -0.8900  0.9981
 1667TIP3    H226493   1.036   1.118   2.282  0.7217 -0.1117 -1.2455
 1668TIP3   OH226494   1.054   3.517  14.328 -0.4213 -0.3194 -0.3466
 1668TIP3    H126495   1.009   3.485  14.406 -0.2235 -2.8302 -1.2024
 1668TIP3    H226496   0.983   3.536  14.266 -0.6531  2.7701  0.7501
 1669TIP3   OH226497   2.699   1.595  16.990 -0.0835 -0.5562 -0.3166
 1669TIP3    H126498   2.620   1.568  16.944 -0.3523  0.3308 -0.3949
 1669TIP3    H226499   2.700   1.543  17.070 -0.7786 -0.5284 -0.2887
 1670TIP3   OH226500   6.352   4.750  13.512  0.1488 -0.0949 -0.0777
 1670TIP3    H126501   6.263   4.714  13.515  0.4194 -0.7881 -0.2566
 1670TIP3    H226502   6.353   4.802  13.431  0.0012 -0.3496 -0.2478
 1671TIP3   OH226503   2.847   3.342   2.001  0.1779 -0.5288 -0.2041
 1671TIP3    H126504   2.779   3.283   1.967  1.3702 -2.3071  0.4343
 1671TIP3    H226505   2.926   3.316   1.954  1.1221 -0.7252  1.4969
 1672TIP3   OH226506   2.378   6.282  15.530  0.0511  0.2557  0.3646
 1672TIP3    H126507   2.387   6.188  15.544  1.0680 -0.0909 -2.2608
 1672TIP3    H226508   2.454   6.306  15.477 -1.9487  1.8693 -1.9408
 1673TIP3   OH226509   3.612   3.638   0.981  0.3909 -0.2512 -0.5833
 1673TIP3    H126510   3.521   3.610   0.991  0.9752 -1.5959  1.2120
 1673TIP3    H226511   3.607   3.734   0.974 -1.1716 -0.3259 -0.6259
 1674TIP3   OH226512   3.832   3.378  14.624  0.3195  0.2207 -0.2526
 1674TIP3    H126513   3.867   3.382  14.535 -1.9168  1.5976 -1.1211
 1674TIP3    H226514   3.784   3.295  14.626 -0.3360  0.5863 -0.6184
 1675TIP3   OH226515   1.285   5.163  16.452 -0.3283 -0.5484 -0.1697
 1675TIP3    H126516   1.298   5.129  16.363 -1.2005  0.9911 -0.9190
 1675TIP3    H226517   1.367   5.207  16.473 -0.4459 -0.1201 -0.5928
 1676TIP3   OH226518   0.389   0.519   1.196 -0.5504  0.6137 -0.0621
 1676TIP3    H126519   0.359   0.558   1.113  0.2022 -2.0221 -1.6434
 1676TIP3    H226520   0.383   0.590   1.259 -0.3914  2.9393 -2.5527
 1677TIP3   OH226521   2.393   0.711   1.716 -0.3395  0.0307 -0.1705
 1677TIP3    H126522   2.412   0.633   1.768  1.1073 -1.4545 -2.8210
 1677TIP3    H226523   2.346   0.678   1.639  0.2146  1.7518 -1.2801
 1678TIP3   OH226524   4.121   4.711  11.866 -0.0516  0.6903  0.0205
 1678TIP3    H126525   4.065   4.635  11.882 -1.5104  1.5620 -0.7516
 1678TIP3    H226526   4.183   4.711  11.938  0.4328 -1.6300 -0.3543
 1679TIP3   OH226527   1.869   2.289   2.813 -0.3352  0.3322 -0.5813
 1679TIP3    H126528   1.849   2.208   2.766  0.5871  1.4644 -2.9741
 1679TIP3    H226529   1.913   2.344   2.749  3.7073  0.7794  2.4143
 1680TIP3   OH226530   1.663   0.352   1.630 -0.4039  0.4262  0.0035
 1680TIP3    H126531   1.602   0.418   1.664 -1.1106 -1.2691  2.1423
 1680TIP3    H226532   1.745   0.399   1.617 -1.0507  1.8614  0.9574
 1681TIP3   OH226533   2.156   5.937   2.806  0.0706  0.0329  0.1501
 1681TIP3    H126534   2.168   5.849   2.842  1.6154 -0.2228 -0.9234
 1681TIP3    H226535   2.151   5.924   2.711 -1.3545  0.9530  0.0778
 1682TIP3   OH226536   2.815   1.597   3.025  0.0727 -0.1865  0.0299
 1682TIP3    H126537   2.828   1.508   3.057  0.8772 -0.6119 -1.4350
 1682TIP3    H226538   2.888   1.612   2.965 -0.8196  0.9640 -0.7898
 1683TIP3   OH226539   3.867   4.598   2.420 -0.3121 -0.5276 -0.3266
 1683TIP3    H126540   3.775   4.607   2.446 -1.3230 -1.9851 -3.1921
 1683TIP3    H226541   3.905   4.685   2.437 -2.2224  0.1102  0.8231
 1684TIP3   OH226542   6.113   2.431   6.033  0.0963  0.7224  0.6626
 1684TIP3    H126543   6.046   2.473   5.979 -1.4256  2.2706  3.6576
 1684TIP3    H226544   6.063   2.374   6.092  1.6375 -0.0565  1.2309
 1685TIP3   OH226545   5.889   4.792  11.960 -0.0236  0.3368 -0.1347
 1685TIP3    H126546   5.899   4.763  11.869 -1.2246 -0.7336  0.0491
 1685TIP3    H226547   5.976   4.780  11.999 -0.1517 -1.8654 -0.4153
 1686TIP3   OH226548   0.930   2.715   1.608 -0.5728  0.2333  0.0459
 1686TIP3    H126549   0.835   2.713   1.599 -0.3871  0.9338 -2.5143
 1686TIP3    H226550   0.954   2.806   1.588  0.4794  0.5646  2.6370
 1687TIP3   OH226551   6.438   3.633  12.310 -0.1294 -0.0645 -0.1629
 1687TIP3    H126552   6.349   3.653  12.339  0.3002 -0.3157  1.3215
 1687TIP3    H226553   6.433   3.543  12.279 -0.1253 -0.4473  0.9654
 1688TIP3   OH226554   0.619   5.134   2.680  0.4256  0.1644  0.4496
 1688TIP3    H126555   0.613   5.110   2.773  1.2402  0.4982  0.5880
 1688TIP3    H226556   0.694   5.194   2.675  0.0384  0.5969 -0.3299
 1689TIP3   OH226557   0.452   4.652   1.150  0.5397 -0.3290  0.0814
 1689TIP3    H126558   0.440   4.635   1.056  0.7595 -3.0737  0.5064
 1689TIP3    H226559   0.367   4.632   1.188  1.2994 -2.2369  0.8312
 1690TIP3   OH226560   6.694   0.526   3.753 -0.5132  0.0100  0.0048
 1690TIP3    H126561   6.623   0.589   3.753 -2.6521 -2.3331  0.5940
 1690TIP3    H226562   6.734   0.535   3.666 -1.6637  1.1606 -0.4234
 1691TIP3   OH226563   0.040   6.188  15.639  0.1767  0.9821  0.1681
 1691TIP3    H126564   0.020   6.179  15.546  0.8899  1.3694 -0.0250
 1691TIP3    H226565   0.054   6.281  15.653  1.1935  0.7970  0.4250
 1692TIP3   OH226566   2.926   0.193   0.549 -0.3446  0.1003 -0.9061
 1692TIP3    H126567   2.838   0.163   0.529 -0.0333 -0.1283 -2.0077
 1692TIP3    H226568   2.959   0.228   0.466  1.0471 -0.9606 -0.8245
 1693TIP3   OH226569   4.211   2.017  16.703  0.4086  0.0908  0.0105
 1693TIP3    H126570   4.301   2.019  16.736  1.0606  0.2102 -1.7229
 1693TIP3    H226571   4.163   2.077  16.760  0.8608 -1.8740  2.5093
 1694TIP3   OH226572   1.988   3.672   6.388  0.4708  0.8248  0.0143
 1694TIP3    H126573   2.044   3.684   6.465  0.5136 -0.9152  0.2841
 1694TIP3    H226574   2.015   3.587   6.353 -2.0614 -0.1024  0.2073
 1695TIP3   OH226575   4.894   4.731  12.679 -0.0373  0.6496  0.4116
 1695TIP3    H126576   4.925   4.641  12.670 -1.0350  0.0999  2.1471
 1695TIP3    H226577   4.950   4.782  12.621  1.6082 -0.8577  0.6368
 1696TIP3   OH226578   1.972   0.678  14.366 -1.5406 -0.1303 -0.0566
 1696TIP3    H126579   1.879   0.659  14.380 -1.7919  0.3219 -1.0271
 1696TIP3    H226580   2.004   0.705  14.452 -2.8114  1.7131 -0.1172
 1697TIP3   OH226581   4.321   6.523  15.790  0.2045 -0.2365  0.5589
 1697TIP3    H126582   4.258   6.452  15.778 -0.9877  1.3055 -2.6218
 1697TIP3    H226583   4.406   6.483  15.770 -0.0978 -1.4414  1.5820
 1698TIP3   OH226584   1.248   2.148   0.020 -0.2831 -0.0099  0.1456
 1698TIP3    H126585   1.266   2.180   0.108  0.6948  1.2562 -0.5017
 1698TIP3    H226586   1.153   2.149   0.013 -0.3984 -0.6118  1.3529
 1699TIP3   OH226587   5.574   0.384  12.318 -0.6975 -0.4869 -0.4544
 1699TIP3    H126588   5.563   0.424  12.232 -0.5025  0.7284  0.0740
 1699TIP3    H226589   5.605   0.456  12.374  0.8900 -1.6541  0.2205
 1700TIP3   OH226590   5.277   0.922   5.474  0.5212  0.0622 -0.1983
 1700TIP3    H126591   5.333   0.968   5.535  0.3197  0.0237  0.0169
 1700TIP3    H226592   5.316   0.938   5.388  1.6550 -1.1184  0.0820
 1701TIP3   OH226593   1.579   2.773   0.211 -0.2154 -0.1246 -0.0607
 1701TIP3    H126594   1.619   2.764   0.125 -0.2316  2.4756 -0.3778
 1701TIP3    H226595   1.650   2.757   0.272  0.4074  0.5102 -0.6029
 1702TIP3   OH226596   1.774   6.602  14.915 -0.5745 -0.0383 -0.1462
 1702TIP3    H126597   1.737   6.519  14.886  1.0893 -0.8834  0.0796
 1702TIP3    H226598   1.861   6.605  14.875 -0.4905  1.4468  0.1117
 1703TIP3   OH226599   1.550   0.372  12.401 -0.3390 -0.5395  0.0899
 1703TIP3    H126600   1.496   0.427  12.344  0.3484 -0.7891 -0.8118
 1703TIP3    H226601   1.499   0.364  12.482 -1.3422 -0.2181 -0.4995
 1704TIP3   OH226602   5.234   1.359   3.079 -0.4046  0.5000  0.4472
 1704TIP3    H126603   5.278   1.286   3.033 -0.9521  0.2329  0.3447
 1704TIP3    H226604   5.239   1.432   3.017 -1.9960 -0.1307 -0.4413
 1705TIP3   OH226605   2.752   1.156   4.811 -0.4817  0.2477 -0.8548
 1705TIP3    H126606   2.691   1.204   4.755  1.3738  3.0589 -0.5643
 1705TIP3    H226607   2.805   1.104   4.751 -1.8387 -0.6791 -1.2603
 1706TIP3   OH226608   6.648   0.253   3.472  0.4223 -0.0713  0.2071
 1706TIP3    H126609   6.577   0.292   3.524 -2.6372 -3.0021 -1.5500
 1706TIP3    H226610   6.655   0.309   3.395 -0.3784 -0.0192  0.1631
 1707TIP3   OH226611   2.185   0.068   0.054 -0.4129 -0.6301  0.0564
 1707TIP3    H126612   2.215   0.154   0.085 -0.5473  0.0549 -1.6722
 1707TIP3    H226613   2.221   0.061  -0.035 -0.6637 -2.2365  0.0751
 1708TIP3   OH226614   2.594   6.085   2.342 -0.1808 -0.1812 -0.4603
 1708TIP3    H126615   2.548   6.071   2.425  1.0713 -0.5516  0.1807
 1708TIP3    H226616   2.636   6.170   2.352 -0.8569  0.2288 -1.1051
 1709TIP3   OH226617   2.998   0.798  10.837  0.1350 -0.0287  0.4594
 1709TIP3    H126618   2.979   0.724  10.778 -1.5616  0.9970 -0.3048
 1709TIP3    H226619   3.068   0.846  10.792 -0.7512  0.4262 -0.4632
 1710TIP3   OH226620   1.687   0.460   1.211  0.0857  0.3628  0.5498
 1710TIP3    H126621   1.621   0.428   1.273  0.4670  0.4712  1.0180
 1710TIP3    H226622   1.730   0.531   1.258  0.5791  0.2475  0.2687
 1711TIP3   OH226623   2.991   6.446  13.114 -0.3685  0.1988  0.0494
 1711TIP3    H126624   2.992   6.434  13.209  0.2633  0.9378  0.1344
 1711TIP3    H226625   2.944   6.369  13.081  0.9420 -0.9753  0.8333
 1712TIP3   OH226626   4.678   6.701   3.193  0.1029  0.2871  0.1176
 1712TIP3    H126627   4.602   6.720   3.138  1.0583 -0.1057 -1.3710
 1712TIP3    H226628   4.650   6.724   3.281 -1.9979 -0.5471 -0.2930
 1713TIP3   OH226629   3.589   5.497  13.299  0.4041  0.0588  0.1811
 1713TIP3    H126630   3.595   5.459  13.212  0.2205  1.2659 -0.3768
 1713TIP3    H226631   3.496   5.516  13.311  0.5336  0.6526  0.2929
 1714TIP3   OH226632   5.196   3.804  15.479 -0.3786  0.4515  0.7678
 1714TIP3    H126633   5.209   3.773  15.569 -0.1960 -2.8965 -0.3234
 1714TIP3    H226634   5.201   3.899  15.485 -0.7185  0.3052  4.3489
 1715TIP3   OH226635   0.027   2.167   0.863 -0.8028  0.2327 -0.5222
 1715TIP3    H126636   0.067   2.126   0.940 -0.8823  1.1296  0.0025
 1715TIP3    H226637  -0.018   2.096   0.819  1.6814 -0.9032 -1.3339
 1716TIP3   OH226638   0.883   0.108   2.437 -0.2442 -0.4939 -0.3360
 1716TIP3    H126639   0.826   0.032   2.454 -2.8113  1.1382 -1.3203
 1716TIP3    H226640   0.866   0.167   2.511  1.8887 -0.9190  0.5304
 1717TIP3   OH226641   4.182   6.314   5.475 -0.0634 -0.0839 -0.1940
 1717TIP3    H126642   4.107   6.299   5.532 -2.5452  3.0067 -2.4425
 1717TIP3    H226643   4.144   6.327   5.388  3.1424  0.6483 -1.5657
 1718TIP3   OH226644   3.698   4.784   4.137 -0.1578 -0.6927 -0.1394
 1718TIP3    H126645   3.779   4.775   4.088 -0.2980 -0.7219 -0.3670
 1718TIP3    H226646   3.640   4.716   4.101 -0.0946 -1.0300  0.4001
 1719TIP3   OH226647   1.441   0.586  15.843 -0.0775  0.4644  0.1622
 1719TIP3    H126648   1.526   0.589  15.799  0.0939  0.9787  0.5234
 1719TIP3    H226649   1.462   0.575  15.936 -0.4621 -1.4593  0.0474
 1720TIP3   OH226650   4.103   0.227  12.584 -0.7203  0.1396  0.3642
 1720TIP3    H126651   4.121   0.321  12.581  0.7976 -0.1164  1.4252
 1720TIP3    H226652   4.146   0.196  12.663 -2.4004 -1.2200  0.7758
 1721TIP3   OH226653   4.311   5.872  17.217  0.1414  0.0588 -0.2409
 1721TIP3    H126654   4.400   5.848  17.245  0.7751  1.6287 -0.8772
 1721TIP3    H226655   4.280   5.795  17.169  1.6089 -0.0874 -1.0038
 1722TIP3   OH226656   4.378   5.794  14.110  0.1378  0.2873 -0.1211
 1722TIP3    H126657   4.341   5.880  14.129 -1.1744 -0.4931  0.9341
 1722TIP3    H226658   4.454   5.787  14.168 -0.8378 -0.0063  1.1330
 1723TIP3   OH226659   5.260   4.056  15.543  0.5129 -0.3224 -0.4022
 1723TIP3    H126660   5.354   4.044  15.551  0.8483  0.6838 -2.4211
 1723TIP3    H226661   5.247   4.151  15.544 -0.2543 -0.3821 -2.0006
 1724TIP3   OH226662   5.403   0.137   5.349  0.2652  0.1060  0.0152
 1724TIP3    H126663   5.414   0.051   5.389 -0.5759 -0.4673 -0.9881
 1724TIP3    H226664   5.492   0.173   5.346  0.4657 -0.1914  1.5823
 1725TIP3   OH226665   2.416   5.640  13.252  0.4160 -0.0846 -0.4570
 1725TIP3    H126666   2.489   5.585  13.282  0.9522  1.5021  1.1816
 1725TIP3    H226667   2.340   5.582  13.255  0.9073 -0.6513  1.6413
 1726TIP3   OH226668   3.710   2.412  14.308  0.1350 -0.4001 -0.2936
 1726TIP3    H126669   3.663   2.421  14.225 -1.1372 -1.1943  0.3177
 1726TIP3    H226670   3.757   2.495  14.318 -0.1128 -0.0990 -1.5552
 1727TIP3   OH226671   5.453   2.629   5.384  0.2026  0.3829  0.1358
 1727TIP3    H126672   5.460   2.634   5.479 -0.8902  1.8320  0.1483
 1727TIP3    H226673   5.544   2.629   5.353  0.5431  1.4542  1.1062
 1728TIP3   OH226674   0.681   6.738  16.200 -0.8615 -0.1285 -0.3223
 1728TIP3    H126675   0.678   6.687  16.119  1.6599  0.6994 -0.9774
 1728TIP3    H226676   0.705   6.674  16.268 -2.9074 -0.8073 -0.2109
 1729TIP3   OH226677   5.654   6.542   5.431 -0.1886  0.0043  0.0583
 1729TIP3    H126678   5.574   6.512   5.388 -0.1927 -0.6906  0.5246
 1729TIP3    H226679   5.705   6.585   5.362 -1.2485  1.0351 -0.0911
 1730TIP3   OH226680   0.382   6.280   5.092 -1.0128 -0.3064  0.3488
 1730TIP3    H126681   0.374   6.253   5.000 -0.2636  1.1596 -0.1676
 1730TIP3    H226682   0.293   6.300   5.119 -1.2493 -0.8279 -0.0334
 1731TIP3   OH226683   5.533   2.079   0.001  0.2243  0.0802  0.0069
 1731TIP3    H126684   5.518   2.168   0.034 -1.3317 -0.0720 -0.2518
 1731TIP3    H226685   5.521   2.023   0.077 -0.8586 -0.0719 -0.2758
 1732TIP3   OH226686   6.801   0.494  13.766 -0.3225  0.0794 -0.5536
 1732TIP3    H126687   6.836   0.531  13.684 -3.4556 -2.0088 -2.9618
 1732TIP3    H226688   6.781   0.570  13.820  0.1112  1.6030 -2.4650
 1733TIP3   OH226689   1.611   4.130   5.993  0.0378  0.1165 -0.4191
 1733TIP3    H126690   1.529   4.086   6.017 -0.9437  1.5719 -1.0568
 1733TIP3    H226691   1.670   4.110   6.065 -1.4668  0.6446  0.9912
 1734TIP3   OH226692   6.673   6.590  12.485  0.0637  0.1414  0.1744
 1734TIP3    H126693   6.632   6.513  12.445 -3.4035  0.9116  2.0529
 1734TIP3    H226694   6.712   6.637  12.411 -3.7109  0.0566 -2.0080
 1735TIP3   OH226695   0.268   5.719  14.193  0.3024 -0.1982 -0.6487
 1735TIP3    H126696   0.272   5.811  14.217 -1.8243 -0.0507 -0.7126
 1735TIP3    H226697   0.324   5.711  14.116 -0.2865  1.2425 -1.2381
 1736TIP3   OH226698   0.354   2.957  11.721  0.3621  0.2377  0.0568
 1736TIP3    H126699   0.319   2.986  11.636  1.5374 -2.5428 -1.4466
 1736TIP3    H226700   0.287   2.898  11.755 -0.1405  1.4133  1.1198
 1737TIP3   OH226701   1.782   3.433   3.631 -0.5165 -0.0994 -0.0758
 1737TIP3    H126702   1.835   3.512   3.644 -0.7744  0.0298  0.1907
 1737TIP3    H226703   1.723   3.455   3.559 -0.6740 -0.0060  0.0822
 1738TIP3   OH226704   2.734   3.401   5.251 -0.2778  0.0122 -0.0342
 1738TIP3    H126705   2.642   3.428   5.250  0.1357  1.5420  0.9052
 1738TIP3    H226706   2.731   3.306   5.263 -1.7141  0.1851  1.1940
 1739TIP3   OH226707   0.902   6.597   0.391 -0.2324 -0.0782 -0.3501
 1739TIP3    H126708   0.857   6.525   0.436  1.0485  0.2233  1.4784
 1739TIP3    H226709   0.907   6.568   0.300  0.0519 -2.2416  0.2999
 1740TIP3   OH226710   6.450   6.416   0.861 -0.2094  0.0914 -0.3081
 1740TIP3    H126711   6.470   6.340   0.916  0.4854  0.8166  0.4666
 1740TIP3    H226712   6.383   6.464   0.911  1.3227  1.4092  0.5366
 1741TIP3   OH226713   2.570   3.261  14.180 -0.4270  0.1540 -0.2003
 1741TIP3    H126714   2.483   3.281  14.213  0.4465 -0.1520  2.3547
 1741TIP3    H226715   2.619   3.343  14.190 -0.0575 -0.0281 -0.4739
 1742TIP3   OH226716   5.927   0.091   1.003  0.5817  0.1771 -0.3978
 1742TIP3    H126717   5.934   0.113   0.910 -1.7672  0.7981 -0.4486
 1742TIP3    H226718   5.841   0.049   1.012  0.7785  0.1261  1.4867
 1743TIP3   OH226719   5.736   2.840   3.153 -0.7508 -0.3153 -0.2419
 1743TIP3    H126720   5.699   2.871   3.236  1.1721 -0.4361  0.6893
 1743TIP3    H226721   5.753   2.747   3.168 -0.5048 -0.3634 -0.8093
 1744TIP3   OH226722   0.608   4.688  16.377 -0.1956  0.0884 -0.1472
 1744TIP3    H126723   0.698   4.657  16.374 -0.1552  0.2265 -0.3633
 1744TIP3    H226724   0.614   4.775  16.416 -0.3025 -0.1451  0.4025
 1745TIP3   OH226725   5.464   5.756   0.036 -0.2866 -0.0732  0.4066
 1745TIP3    H126726   5.488   5.802   0.116  0.2501  0.4080 -0.0220
 1745TIP3    H226727   5.531   5.783  -0.028  0.9781 -2.6743  0.5739
 1746TIP3   OH226728   4.709   2.314   2.939 -0.3089 -0.4556  0.3721
 1746TIP3    H126729   4.666   2.370   2.875  1.1639  0.7659  0.4454
 1746TIP3    H226730   4.725   2.232   2.891  0.0656  0.1648 -0.5769
 1747TIP3   OH226731   2.352   1.100   2.596  0.5020 -0.2112 -0.0635
 1747TIP3    H126732   2.336   1.064   2.509  0.0957 -0.5411  0.1463
 1747TIP3    H226733   2.267   1.095   2.640  0.8266 -0.5472  0.5374
 1748TIP3   OH226734   0.867   0.796   3.257 -0.5303  0.6627  0.5375
 1748TIP3    H126735   0.922   0.874   3.266  1.0195 -0.4203  0.4670
 1748TIP3    H226736   0.928   0.723   3.251 -1.9672 -0.5505  0.3197
 1749TIP3   OH226737   5.006   0.934   3.072 -0.4582  0.3507  0.7807
 1749TIP3    H126738   5.081   0.874   3.070  0.0295  0.9689 -2.7825
 1749TIP3    H226739   4.929   0.876   3.071  0.0137 -0.2815 -0.6368
 1750TIP3   OH226740   5.299   2.738  13.381  0.4976  0.2435  0.7445
 1750TIP3    H126741   5.214   2.697  13.393  0.7095 -0.6066 -0.5955
 1750TIP3    H226742   5.317   2.729  13.288  1.1434  2.2216  0.6485
 1751TIP3   OH226743   4.958   6.227  17.061 -0.6924 -0.1277 -0.5002
 1751TIP3    H126744   5.021   6.298  17.078 -1.9185  0.9233 -0.2122
 1751TIP3    H226745   4.933   6.196  17.148 -1.0993 -0.0579 -0.5888
 1752TIP3   OH226746   4.783   6.641  12.815 -0.0043  0.2493  0.1152
 1752TIP3    H126747   4.696   6.664  12.783 -0.3862  1.3859  1.9211
 1752TIP3    H226748   4.801   6.703  12.885  1.7586 -0.7427  0.5868
 1753TIP3   OH226749   2.385   0.736   0.831  0.7043 -0.8262  0.1052
 1753TIP3    H126750   2.407   0.760   0.741  0.3848 -2.2140 -0.3614
 1753TIP3    H226751   2.359   0.644   0.826  0.7861 -0.9553  1.6388
 1754TIP3   OH226752   6.600   0.559   0.543 -0.0171 -0.3035  0.2917
 1754TIP3    H126753   6.652   0.639   0.539 -1.5094  0.6421 -0.6333
 1754TIP3    H226754   6.646   0.503   0.606  1.0593  1.2648  0.9143
 1755TIP3   OH226755   2.007   2.718  15.855 -0.0893 -0.1683  0.0183
 1755TIP3    H126756   2.085   2.667  15.875 -0.2875 -0.5340 -0.1333
 1755TIP3    H226757   2.015   2.797  15.909  1.2599  0.6227 -1.3233
 1756TIP3   OH226758   0.512   6.507  13.543  0.1924  0.4084  0.4961
 1756TIP3    H126759   0.543   6.484  13.456  1.3719  1.2354  0.6759
 1756TIP3    H226760   0.452   6.580  13.528 -0.6126 -0.2979  0.2665
 1757TIP3   OH226761   5.383   5.431   5.076 -0.5996  0.1721 -0.1164
 1757TIP3    H126762   5.312   5.368   5.088 -0.2986  0.4285  3.6208
 1757TIP3    H226763   5.340   5.517   5.081 -0.2350  0.3140  0.5667
 1758TIP3   OH226764   2.161   3.471  16.886 -0.0316 -0.3356 -0.0525
 1758TIP3    H126765   2.123   3.509  16.807  2.2705  2.1348 -0.0729
 1758TIP3    H226766   2.158   3.376  16.872 -3.0573 -0.0846 -1.4264
 1759TIP3   OH226767   2.961   1.572  17.196  0.1609  0.6532  0.4669
 1759TIP3    H126768   2.882   1.537  17.237  0.1357  1.3688  1.0210
 1759TIP3    H226769   2.984   1.506  17.130  1.2121 -1.3879  2.8008
 1760TIP3   OH226770   0.199   2.562  14.354 -0.3675 -0.5952  0.6287
 1760TIP3    H126771   0.245   2.505  14.292 -0.1114 -1.3485  1.5002
 1760TIP3    H226772   0.203   2.515  14.438  2.2702  1.9372  2.0304
 1761TIP3   OH226773   6.115   5.042   3.469 -0.1824  0.3971 -0.2912
 1761TIP3    H126774   6.050   4.991   3.419 -0.5505  0.4925  0.0881
 1761TIP3    H226775   6.184   4.979   3.489 -1.3550 -0.3581  1.5080
 1762TIP3   OH226776   5.460   0.547   2.728 -0.1039  0.3990  0.2578
 1762TIP3    H126777   5.538   0.581   2.684 -0.0705 -0.0936 -0.0575
 1762TIP3    H226778   5.458   0.594   2.811  0.9121 -0.0931  0.5645
 1763TIP3   OH226779   4.561   3.507   6.727  0.3443 -0.6710  0.0398
 1763TIP3    H126780   4.556   3.428   6.673 -0.9602  0.8451 -2.1308
 1763TIP3    H226781   4.655   3.516   6.745  0.5033 -2.7928  0.4744
 1764TIP3   OH226782   1.178   5.772   1.973 -0.1077  0.2759 -0.0989
 1764TIP3    H126783   1.206   5.743   1.886  0.3521  0.6151 -0.0640
 1764TIP3    H226784   1.084   5.752   1.976 -0.0092 -0.2567 -0.4601
 1765TIP3   OH226785   2.755   0.595  12.368 -0.4963  0.0583 -0.2447
 1765TIP3    H126786   2.661   0.576  12.373 -0.6865  0.7589 -1.0591
 1765TIP3    H226787   2.782   0.607  12.459 -0.8841 -1.6017  0.0966
 1766TIP3   OH226788   3.114   6.220  15.019  0.2263 -0.5185 -0.1760
 1766TIP3    H126789   3.086   6.147  14.964  2.5843 -1.8364  0.3033
 1766TIP3    H226790   3.176   6.181  15.081  0.5396  1.6469  0.9229
 1767TIP3   OH226791   2.903   2.675   4.713  0.3046 -0.1536 -0.9343
 1767TIP3    H126792   2.967   2.722   4.768  0.4451 -0.4860 -0.8117
 1767TIP3    H226793   2.957   2.616   4.660  0.0517 -0.8923 -0.3792
 1768TIP3   OH226794   1.563   3.346  16.325  0.3046  0.5794  0.4898
 1768TIP3    H126795   1.487   3.376  16.275  0.2718 -0.5314 -0.1461
 1768TIP3    H226796   1.623   3.421  16.325  0.2880  0.6154 -1.1837
 1769TIP3   OH226797   4.932   2.442   3.561  0.4653  0.0745  0.2483
 1769TIP3    H126798   4.983   2.445   3.642 -1.1285  3.6668  1.1969
 1769TIP3    H226799   4.955   2.522   3.515 -1.8105  0.1423 -0.8443
 1770TIP3   OH226800   5.280   6.204  16.827  0.5898 -0.5378 -0.4095
 1770TIP3    H126801   5.313   6.189  16.915  2.3545 -1.1216 -1.1447
 1770TIP3    H226802   5.339   6.269  16.790  0.4522 -1.0157 -1.4987
 1771TIP3   OH226803   3.114   4.620  15.842  0.1940  0.7892  0.0638
 1771TIP3    H126804   3.039   4.586  15.891  0.5105 -0.9002 -0.5825
 1771TIP3    H226805   3.083   4.703  15.805 -2.0411 -0.7680 -1.7426
 1772TIP3   OH226806   3.118   6.705  15.082 -0.2805 -0.2506 -0.4891
 1772TIP3    H126807   3.066   6.625  15.098  0.7470 -0.9902 -0.7766
 1772TIP3    H226808   3.173   6.714  15.161  1.2793 -1.1578 -1.4397
 1773TIP3   OH226809   2.326   3.265   0.881  0.1642  0.2475  0.0549
 1773TIP3    H126810   2.416   3.239   0.862 -0.0826  0.2464 -1.1874
 1773TIP3    H226811   2.334   3.347   0.930  0.8491 -0.1326  0.5916
 1774TIP3   OH226812   3.018   0.257   4.188  0.4343 -0.8974 -0.1570
 1774TIP3    H126813   2.937   0.305   4.200  0.7638 -0.0300 -1.2562
 1774TIP3    H226814   3.060   0.256   4.274  0.6551  1.2216 -0.2163
 1775TIP3   OH226815   2.439   5.130  16.798 -0.3684 -0.3867 -0.6240
 1775TIP3    H126816   2.383   5.174  16.862  1.3247  2.1301 -0.8063
 1775TIP3    H226817   2.409   5.165  16.714 -0.0761 -0.8156 -0.9000
 1776TIP3   OH226818   4.008   3.992  14.766 -0.6298 -0.1449  0.4671
 1776TIP3    H126819   4.002   3.898  14.750  0.0798 -0.1034 -0.0756
 1776TIP3    H226820   3.920   4.018  14.795 -0.7948 -0.9932  0.7367
 1777TIP3   OH226821   1.175   2.099  11.573  0.8484 -0.0683  0.0952
 1777TIP3    H126822   1.154   2.035  11.505 -1.0101  2.1104 -1.4375
 1777TIP3    H226823   1.208   2.175  11.526 -0.8052  1.5984  1.5857
 1778TIP3   OH226824   2.457   4.546   0.360 -0.5250 -0.1496 -0.1486
 1778TIP3    H126825   2.524   4.610   0.338 -0.5084 -0.7556 -1.8766
 1778TIP3    H226826   2.498   4.461   0.345 -1.2946 -0.5456 -0.0519
 1779TIP3   OH226827   2.467   1.952  13.172 -0.1460 -0.4467  0.4772
 1779TIP3    H126828   2.430   1.869  13.141 -0.2992 -0.4702  0.7197
 1779TIP3    H226829   2.394   2.014  13.170 -0.3860 -0.6802  1.6676
 1780TIP3   OH226830   2.753   5.654  13.097  0.1649 -0.0698 -0.0498
 1780TIP3    H126831   2.725   5.576  13.049 -0.3887  0.6547 -0.9174
 1780TIP3    H226832   2.733   5.727  13.038  0.4724  0.7440  0.8415
 1781TIP3   OH226833   2.360   0.285  10.996 -0.5938 -0.0597  0.0309
 1781TIP3    H126834   2.434   0.344  11.009  0.9053 -2.4441  3.2664
 1781TIP3    H226835   2.294   0.315  11.059 -1.2647  0.3273 -0.8475
 1782TIP3   OH226836   5.120   3.108  12.373 -0.0654  0.3883  0.2120
 1782TIP3    H126837   5.025   3.103  12.385 -0.1959  1.7587 -0.1443
 1782TIP3    H226838   5.143   3.026  12.330 -0.8625 -0.6510  1.7271
 1783TIP3   OH226839   1.179   3.488   1.370  0.3003 -0.3631 -0.4436
 1783TIP3    H126840   1.086   3.487   1.349 -0.2586  0.6296  1.7574
 1783TIP3    H226841   1.215   3.411   1.326 -2.0962 -2.4119  1.0371
 1784TIP3   OH226842   5.064   5.313  14.036 -0.2487 -0.2776  0.0515
 1784TIP3    H126843   5.057   5.231  13.988 -1.6986 -1.2983  1.9528
 1784TIP3    H226844   4.974   5.346  14.041 -0.1710 -0.3255  2.2479
 1785TIP3   OH226845   0.879   1.774   4.896  0.1473  0.4399 -0.9461
 1785TIP3    H126846   0.965   1.757   4.936  0.5821  1.7524 -1.2763
 1785TIP3    H226847   0.820   1.713   4.939  1.0990  0.0681 -0.1346
 1786TIP3   OH226848   0.784   0.382  13.930  0.4533  0.1614 -0.2531
 1786TIP3    H126849   0.820   0.302  13.969  0.5304  0.6463  0.6861
 1786TIP3    H226850   0.851   0.410  13.867  1.2827  0.5149  0.7707
 1787TIP3   OH226851   1.260   3.430  11.556  0.0601  0.2167 -0.1210
 1787TIP3    H126852   1.200   3.375  11.606  0.9016 -0.2648  0.3756
 1787TIP3    H226853   1.224   3.431  11.467 -0.0158 -1.0561 -0.1141
 1788TIP3   OH226854   1.202   3.144  13.520 -0.5839  0.2799  0.4440
 1788TIP3    H126855   1.253   3.225  13.521 -0.7099  0.3705 -0.3714
 1788TIP3    H226856   1.233   3.095  13.444 -0.8390 -0.2267  0.6584
 1789TIP3   OH226857   0.005   0.133   2.718  0.1375  0.2427 -0.2500
 1789TIP3    H126858   0.002   0.122   2.814  0.3563 -0.6855 -0.3451
 1789TIP3    H226859   0.042   0.220   2.705 -1.9606  1.3076  0.5486
 1790TIP3   OH226860   3.794   1.354   5.095  0.4030  0.1505  0.3715
 1790TIP3    H126861   3.828   1.289   5.033 -1.7267 -1.3137  0.6956
 1790TIP3    H226862   3.805   1.438   5.050  1.8341 -0.5656 -0.6520
 1791TIP3   OH226863   3.291   6.524   0.227 -0.6924  0.3673  0.1644
 1791TIP3    H126864   3.379   6.490   0.239 -0.0749  1.4621 -1.1342
 1791TIP3    H226865   3.250   6.515   0.313  0.4922 -0.6817  0.6280
 1792TIP3   OH226866   4.434   5.788   2.799  0.1743  0.1567 -0.0002
 1792TIP3    H126867   4.461   5.880   2.792  2.1972 -0.4885 -0.9265
 1792TIP3    H226868   4.486   5.754   2.871 -0.6267 -0.2721  0.3866
 1793TIP3   OH226869   2.118   2.914  10.612  0.8398  0.0680 -0.0473
 1793TIP3    H126870   2.163   2.937  10.693  1.8380 -0.1548 -0.5338
 1793TIP3    H226871   2.081   2.997  10.581 -2.1243 -0.3356  2.1596
 1794TIP3   OH226872   4.259   0.200   4.971 -0.1051 -0.1982  0.4934
 1794TIP3    H126873   4.349   0.210   5.002  0.5114 -0.6427 -1.1034
 1794TIP3    H226874   4.223   0.289   4.970  0.5463  0.0621  0.4541
 1795TIP3   OH226875   2.613   3.032  12.323  0.1491  0.0745 -0.1541
 1795TIP3    H126876   2.571   3.087  12.257 -0.8814 -1.7538 -1.0713
 1795TIP3    H226877   2.597   2.943  12.293  1.4000 -0.7457  1.5335
 1796TIP3   OH226878   3.404   4.641   2.684 -0.6413  0.0208  0.3728
 1796TIP3    H126879   3.374   4.721   2.728 -0.0620  2.7051 -3.8517
 1796TIP3    H226880   3.333   4.620   2.623  0.3817 -1.1399 -0.4262
 1797TIP3   OH226881   4.551   2.416   0.544 -0.1046 -0.7516 -0.2424
 1797TIP3    H126882   4.556   2.447   0.453 -0.5469 -1.5566 -0.5419
 1797TIP3    H226883   4.610   2.474   0.592  1.1357 -1.1484 -1.2703
 1798TIP3   OH226884   2.866   1.581   0.531  0.4097  0.1314 -0.0744
 1798TIP3    H126885   2.789   1.637   0.539  0.1114 -0.1933 -0.6685
 1798TIP3    H226886   2.900   1.599   0.443  1.3269  0.6740  0.3777
 1799TIP3   OH226887   2.020   4.552  10.795  0.4687 -0.0351  0.0354
 1799TIP3    H126888   1.997   4.517  10.709 -0.3781  0.9241 -0.1438
 1799TIP3    H226889   2.114   4.537  10.803  0.2484 -1.7192 -0.3103
 1800TIP3   OH226890   0.546   2.578  14.253 -0.4344  0.3713  0.4334
 1800TIP3    H126891   0.549   2.621  14.338 -0.4590 -0.3991  0.8296
 1800TIP3    H226892   0.464   2.608  14.213  0.0169  1.4488  0.2883
 1801TIP3   OH226893   1.445   4.468  11.668 -0.4860  0.0085  0.0047
 1801TIP3    H126894   1.473   4.553  11.634  0.1455  0.2282  1.0840
 1801TIP3    H226895   1.362   4.452  11.624 -0.2589  0.8476 -0.7564
 1802TIP3   OH226896   6.364   4.603  15.033 -0.3891 -0.9006 -0.7487
 1802TIP3    H126897   6.426   4.530  15.028  0.8434  0.0915 -0.3372
 1802TIP3    H226898   6.419   4.681  15.029 -1.6234  0.0041 -0.3624
 1803TIP3   OH226899   1.189   2.818   2.629  0.4961  0.6834  0.2075
 1803TIP3    H126900   1.262   2.866   2.590  0.1878 -0.3355 -1.6875
 1803TIP3    H226901   1.174   2.745   2.569 -0.2683 -0.6970  2.0547
 1804TIP3   OH226902   5.788   0.495   3.835 -0.2130 -0.0849 -0.5169
 1804TIP3    H126903   5.844   0.555   3.883  0.3953  0.4144 -1.8137
 1804TIP3    H226904   5.699   0.513   3.867  0.1936  0.1588  0.4730
 1805TIP3   OH226905   4.264   5.928   4.901 -0.4027  0.0847 -0.0024
 1805TIP3    H126906   4.198   5.996   4.912 -0.6645  0.1520 -1.7501
 1805TIP3    H226907   4.233   5.876   4.827  1.4814  0.0992 -0.8418
 1806TIP3   OH226908   6.461   0.647   5.806 -0.6969  0.2439  0.4051
 1806TIP3    H126909   6.505   0.704   5.742  0.4652 -2.0592 -0.9248
 1806TIP3    H226910   6.528   0.584   5.832 -1.7264 -0.0507  2.4493
 1807TIP3   OH226911   5.807   0.723   1.559  0.3562  0.3182  0.8214
 1807TIP3    H126912   5.795   0.818   1.569 -0.0681  0.5664 -1.6864
 1807TIP3    H226913   5.892   0.705   1.600 -0.7743  1.3162  3.7270
 1808TIP3   OH226914   3.285   5.101  12.688 -0.3124 -0.8545  0.4517
 1808TIP3    H126915   3.373   5.139  12.692 -0.7105  0.0412  0.9345
 1808TIP3    H226916   3.282   5.054  12.605  0.4494 -0.4469  0.1983
 1809TIP3   OH226917   6.667   2.533  12.981 -0.3817  0.1713  0.0374
 1809TIP3    H126918   6.612   2.579  12.917 -0.9264  0.2938  0.5992
 1809TIP3    H226919   6.646   2.574  13.065  0.2458 -0.0770  0.3161
 1810TIP3   OH226920   5.635   0.125  17.066  0.3423 -0.1115 -0.0014
 1810TIP3    H126921   5.730   0.121  17.068  0.4167  0.9009 -1.1894
 1810TIP3    H226922   5.607   0.086  17.150  1.8399  1.6076  1.3304
 1811TIP3   OH226923   0.161   3.472   0.902  0.3099  0.2234 -0.1748
 1811TIP3    H126924   0.188   3.391   0.946 -0.5866 -0.5475 -1.0218
 1811TIP3    H226925   0.087   3.504   0.953 -0.0484 -0.0960 -0.4922
 1812TIP3   OH226926   0.726   0.653   4.394 -0.0934 -0.2511  0.2764
 1812TIP3    H126927   0.778   0.618   4.322  0.4773 -0.3353  0.7144
 1812TIP3    H226928   0.749   0.597   4.469  1.2389  1.3648  1.1090
 1813TIP3   OH226929   0.143   4.176  11.843  0.0599  0.7797  0.2983
 1813TIP3    H126930   0.188   4.196  11.761  0.2378 -0.6217  0.0546
 1813TIP3    H226931   0.055   4.213  11.831 -0.2964 -0.4664 -0.9893
 1814TIP3   OH226932   4.367   2.802  15.314 -0.1841 -0.1314 -0.0302
 1814TIP3    H126933   4.364   2.895  15.293  0.4482 -0.4699 -1.6582
 1814TIP3    H226934   4.388   2.799  15.408 -1.3582  1.3670  0.3019
 1815TIP3   OH226935   1.317   3.918   0.194 -0.2830  0.1653  0.5686
 1815TIP3    H126936   1.402   3.881   0.171 -0.6634 -0.7451  0.6211
 1815TIP3    H226937   1.322   3.932   0.289  0.4945  1.8936  0.2919
 1816TIP3   OH226938   0.482   1.289   6.702 -0.0330  1.0602 -0.3423
 1816TIP3    H126939   0.431   1.343   6.764 -0.6006 -0.8139  0.8485
 1816TIP3    H226940   0.511   1.215   6.754 -1.1994 -0.9799 -2.5180
 1817TIP3   OH226941   4.487   2.320  13.251  0.2386  0.2116 -0.9012
 1817TIP3    H126942   4.394   2.298  13.247 -0.2343  2.1452 -0.7674
 1817TIP3    H226943   4.521   2.299  13.164  0.0998 -2.1895 -0.4297
 1818TIP3   OH226944   3.202   2.747   5.837  0.5188  0.1525  0.4714
 1818TIP3    H126945   3.142   2.800   5.890 -0.6240  0.3041 -0.9434
 1818TIP3    H226946   3.245   2.689   5.900 -1.1673  0.0069  1.5141
 1819TIP3   OH226947   1.587   3.594   1.577  0.0749  0.0061  0.4566
 1819TIP3    H126948   1.646   3.591   1.653  1.2490 -0.3832 -0.4636
 1819TIP3    H226949   1.503   3.562   1.610  0.3122  0.7536  1.8307
 1820TIP3   OH226950   1.183   5.448   2.479  0.7786  0.4283  0.2661
 1820TIP3    H126951   1.157   5.490   2.397  0.1766 -1.3862 -0.4958
 1820TIP3    H226952   1.129   5.489   2.546  0.9154  1.5624 -0.3200
 1821TIP3   OH226953   6.706   4.273  11.349 -0.1661 -0.2849 -0.0880
 1821TIP3    H126954   6.689   4.180  11.362  1.0079 -0.6005 -0.6765
 1821TIP3    H226955   6.629   4.306  11.304 -1.2451 -0.6475  1.4432
 1822TIP3   OH226956   2.089   3.121   5.564 -0.2402 -0.2814 -0.1553
 1822TIP3    H126957   2.058   3.208   5.588 -1.0952 -0.1475 -1.7000
 1822TIP3    H226958   2.013   3.079   5.524  0.6634 -1.1191 -1.0064
 1823TIP3   OH226959   5.261   0.804   3.338  0.2032 -0.1023 -0.5616
 1823TIP3    H126960   5.173   0.825   3.368  0.7031  0.9328  0.2263
 1823TIP3    H226961   5.256   0.810   3.242 -0.5184  0.2060 -0.5078
 1824TIP3   OH226962   6.392   6.351   5.443 -0.0316  0.3252  0.8664
 1824TIP3    H126963   6.427   6.267   5.475  2.3280 -0.1790 -2.6416
 1824TIP3    H226964   6.429   6.416   5.502  0.0259 -0.9296  2.2496
 1825TIP3   OH226965   5.999   5.833  14.601  0.3865 -0.4767 -0.1889
 1825TIP3    H126966   5.994   5.800  14.512  0.0849  1.8218 -1.0576
 1825TIP3    H226967   5.924   5.794  14.646 -1.2987  0.8592 -1.8094
 1826TIP3   OH226968   4.992   0.975   5.032  0.0858  0.3589  0.2637
 1826TIP3    H126969   4.907   0.981   4.989 -0.5137 -1.0912  1.2095
 1826TIP3    H226970   4.994   1.052   5.089 -0.8808  0.0652  0.7161
 1827TIP3   OH226971   2.011   5.392  11.681 -0.8788  0.6079 -0.2484
 1827TIP3    H126972   1.959   5.350  11.749  0.8422  0.2104  0.8454
 1827TIP3    H226973   2.100   5.358  11.694  0.0163  2.6117 -0.9633
 1828TIP3   OH226974   0.554   5.192   4.441 -0.3258 -0.1475  0.2425
 1828TIP3    H126975   0.580   5.118   4.386 -0.0195 -0.7667  1.2051
 1828TIP3    H226976   0.621   5.259   4.425 -1.1730  0.3492 -1.4269
 1829TIP3   OH226977   4.781   5.166   4.093  0.1106 -0.1220 -0.0267
 1829TIP3    H126978   4.749   5.080   4.120 -1.4041  0.9113  1.5392
 1829TIP3    H226979   4.721   5.228   4.133  1.2782  1.6964 -1.0132
 1830TIP3   OH226980   2.778   1.120   4.011  0.0220 -0.5075  0.2536
 1830TIP3    H126981   2.781   1.090   3.920  1.1833 -2.0950  0.7798
 1830TIP3    H226982   2.719   1.196   4.010  2.4308  1.4443 -2.3710
 1831TIP3   OH226983   1.256   1.522   3.650  0.4788 -0.2542 -0.6410
 1831TIP3    H126984   1.281   1.432   3.628  0.0321 -0.2690 -1.1013
 1831TIP3    H226985   1.165   1.516   3.678  0.2520  0.1370 -1.2716
 1832TIP3   OH226986   5.624   3.117   1.726  0.5595 -0.1360 -0.3686
 1832TIP3    H126987   5.662   3.041   1.682  1.4087  0.0017  0.1242
 1832TIP3    H226988   5.541   3.084   1.762 -0.7082  0.0188 -2.9766
 1833TIP3   OH226989   1.148   5.262  16.175  0.0824 -0.2924  0.2885
 1833TIP3    H126990   1.079   5.227  16.230 -1.1561  0.3620 -0.8174
 1833TIP3    H226991   1.156   5.199  16.104 -0.9577  0.7437 -0.7816
 1834TIP3   OH226992   6.473   4.482  15.406  0.2536  0.6098  0.1907
 1834TIP3    H126993   6.450   4.574  15.392  1.1144  0.5839 -1.4616
 1834TIP3    H226994   6.496   4.477  15.499  1.0650  2.2472  0.0914
 1835TIP3   OH226995   6.303   3.654   5.485  0.1998 -0.5975  0.1565
 1835TIP3    H126996   6.395   3.668   5.509  0.1975 -0.0659 -0.1216
 1835TIP3    H226997   6.259   3.736   5.510  0.1511 -0.1336 -1.3661
 1836TIP3   OH226998   5.322   5.493   0.589  0.2604  0.0059 -0.4230
 1836TIP3    H126999   5.232   5.463   0.606 -0.0700  0.6686 -0.9776
 1836TIP3    H227000   5.312   5.559   0.521  0.6648  3.4506  2.7419
 1837TIP3   OH227001   6.558   6.097  15.534 -0.3413  0.0521  0.3181
 1837TIP3    H127002   6.525   6.067  15.619  1.9856 -0.6427  1.0323
 1837TIP3    H227003   6.577   6.017  15.486  0.5702  0.4120  0.0615
 1838TIP3   OH227004   6.119   2.576   3.726  0.4686 -0.3702  0.2317
 1838TIP3    H127005   6.144   2.669   3.722 -0.7677 -0.0488 -0.3898
 1838TIP3    H227006   6.074   2.567   3.810 -0.2210 -0.1834 -0.1096
 1839TIP3   OH227007   3.053   5.971   5.104  0.0488  0.3622  0.1531
 1839TIP3    H127008   3.079   5.885   5.135 -0.4009 -0.4018 -1.5253
 1839TIP3    H227009   3.128   6.002   5.052  0.0349  0.8085  0.3884
 1840TIP3   OH227010   5.365   0.865  12.433 -0.1820  0.5950 -0.1629
 1840TIP3    H127011   5.447   0.906  12.407  0.2339  0.1957  0.5158
 1840TIP3    H227012   5.317   0.854  12.351  0.8848 -0.1529 -0.6908
 1841TIP3   OH227013   0.584   5.329  11.455 -0.2352 -0.3823  0.2416
 1841TIP3    H127014   0.500   5.345  11.413 -0.8755 -0.3099  1.5430
 1841TIP3    H227015   0.605   5.239  11.431 -2.1650 -1.4541  2.4379
 1842TIP3   OH227016   4.624   0.403   0.573 -0.6354 -0.3741  0.0195
 1842TIP3    H127017   4.625   0.499   0.576  0.8722 -0.4533  2.1919
 1842TIP3    H227018   4.681   0.381   0.499  0.6644  0.3604  0.7887
 1843TIP3   OH227019   4.528   0.309   3.460  0.0754 -0.4621 -0.2072
 1843TIP3    H127020   4.538   0.298   3.366  0.3359 -0.0944 -0.2231
 1843TIP3    H227021   4.610   0.276   3.497  0.1737 -0.1448 -0.1428
 1844TIP3   OH227022   3.650   6.629  10.514  0.8720  0.4896  0.7100
 1844TIP3    H127023   3.587   6.641  10.585  2.7943  1.7102  2.2556
 1844TIP3    H227024   3.677   6.537  10.521 -1.3118 -0.2895 -0.5024
 1845TIP3   OH227025   1.297   1.965   2.825  0.1486  0.6319  0.7218
 1845TIP3    H127026   1.356   1.896   2.793  1.6342  2.7856 -1.3187
 1845TIP3    H227027   1.348   2.012   2.890  0.2970  1.7589 -0.1861
 1846TIP3   OH227028   2.970   6.532  11.692  0.0452  0.6106  0.0835
 1846TIP3    H127029   2.941   6.548  11.602  0.4829 -0.7183 -0.3044
 1846TIP3    H227030   2.905   6.576  11.747 -1.5291 -0.5638 -0.8178
 1847TIP3   OH227031   5.492   3.341   4.099 -0.4467 -0.5057 -0.0241
 1847TIP3    H127032   5.515   3.401   4.029 -0.0735 -0.4225  0.1654
 1847TIP3    H227033   5.400   3.358   4.116 -0.7171 -1.0076 -0.9558
 1848TIP3   OH227034   4.694   5.403  15.011 -0.0086 -0.1979  0.0435
 1848TIP3    H127035   4.788   5.422  15.007 -0.1437  0.3487 -0.4759
 1848TIP3    H227036   4.678   5.346  14.936 -0.2891  0.5443 -0.4605
 1849TIP3   OH227037   6.374   0.248  13.042  0.7386  0.0782  0.2172
 1849TIP3    H127038   6.328   0.265  12.960 -1.6691 -1.4978  1.1757
 1849TIP3    H227039   6.406   0.158  13.034  0.4712 -0.0969  0.9851
 1850TIP3   OH227040   5.989   3.209   1.915 -0.1230  0.0409 -0.2737
 1850TIP3    H127041   5.983   3.240   2.006 -0.6232  1.1128 -0.6755
 1850TIP3    H227042   5.918   3.253   1.869 -1.0152 -1.8992 -0.8081
 1851TIP3   OH227043   3.038   0.118   1.027 -0.0114 -0.2531  0.4104
 1851TIP3    H127044   3.101   0.189   1.026  0.3235 -0.5482  0.5573
 1851TIP3    H227045   3.069   0.059   1.096 -0.2729 -0.5510  0.2736
 1852TIP3   OH227046   6.278   3.963   2.637 -0.3570 -0.0612  0.0133
 1852TIP3    H127047   6.285   3.867   2.642  0.4935 -0.0735 -1.3077
 1852TIP3    H227048   6.264   3.981   2.545 -0.1989  1.1241  0.2187
 1853TIP3   OH227049   0.369   3.691   6.049 -0.4014 -0.1063 -0.6347
 1853TIP3    H127050   0.396   3.602   6.027 -1.4291 -1.2377  2.3577
 1853TIP3    H227051   0.300   3.711   5.986  0.2031 -1.2072 -1.6831
 1854TIP3   OH227052   4.588   3.407  13.224  0.1676  0.4107  0.4017
 1854TIP3    H127053   4.506   3.387  13.180  0.6575  1.7622 -1.1785
 1854TIP3    H227054   4.614   3.325  13.265 -0.6809 -0.6864 -1.2153
 1855TIP3   OH227055   5.551   1.536   5.622  0.0271 -0.0040  0.0918
 1855TIP3    H127056   5.463   1.540   5.661 -0.0170 -0.5677  0.0559
 1855TIP3    H227057   5.537   1.495   5.537  0.1405  1.1106 -0.4757
 1856TIP3   OH227058   0.931   4.668   1.010 -0.4465  0.5837 -0.3478
 1856TIP3    H127059   1.024   4.673   1.033 -0.3092  1.1206 -0.9920
 1856TIP3    H227060   0.931   4.660   0.914 -0.9740 -2.1346 -0.1653
 1857TIP3   OH227061   1.871   5.633   1.234  0.4969 -0.1737  0.0691
 1857TIP3    H127062   1.866   5.651   1.328  0.0719  1.7329 -0.2886
 1857TIP3    H227063   1.782   5.648   1.202  0.3049 -2.2176 -0.4199
 1858TIP3   OH227064   4.826   1.460   4.284  0.0071 -0.0473  0.1346
 1858TIP3    H127065   4.842   1.521   4.356 -0.8134 -1.2299  1.3259
 1858TIP3    H227066   4.740   1.422   4.304 -0.6282  0.2397 -1.9102
 1859TIP3   OH227067   3.307   6.327   4.584  0.1207  0.0664  0.1871
 1859TIP3    H127068   3.301   6.329   4.489  3.4906  0.0229 -0.0796
 1859TIP3    H227069   3.351   6.408   4.607  1.1343 -0.8406  1.5280
 1860TIP3   OH227070   3.349   6.393   0.897 -0.4131  0.8742 -0.3919
 1860TIP3    H127071   3.432   6.408   0.852 -1.4929 -1.4381 -3.3151
 1860TIP3    H227072   3.360   6.308   0.940 -0.9524  0.9626 -0.0677
 1861TIP3   OH227073   0.570   5.912  12.724  0.0722  0.5527 -0.0300
 1861TIP3    H127074   0.602   5.977  12.662 -1.0147  0.6370 -0.5264
 1861TIP3    H227075   0.486   5.948  12.755  0.2378  0.1565  0.9151
 1862TIP3   OH227076   5.970   4.559   0.208 -0.1388 -0.6212 -0.2295
 1862TIP3    H127077   5.902   4.626   0.219 -1.5259 -1.7851 -1.5705
 1862TIP3    H227078   5.992   4.562   0.114  0.3575 -1.5154 -0.1463
 1863TIP3   OH227079   0.386   1.897  16.610  0.7354  0.3139  0.2947
 1863TIP3    H127080   0.318   1.841  16.572  0.6350 -0.9175  2.2181
 1863TIP3    H227081   0.365   1.985  16.578 -0.0063 -0.5050 -1.5422
 1864TIP3   OH227082   0.017   0.429  14.282 -0.2882  0.1935  0.2715
 1864TIP3    H127083   0.010   0.341  14.245 -4.0104  0.9816 -1.1517
 1864TIP3    H227084   0.076   0.475  14.222  2.1703 -1.4019  1.3509
 1865TIP3   OH227085   4.930   6.335  13.140 -0.6524  0.1103  0.1590
 1865TIP3    H127086   5.009   6.375  13.176 -0.3570  0.5720 -0.9972
 1865TIP3    H227087   4.873   6.322  13.216  0.2313  0.4569  0.8879
 1866TIP3   OH227088   3.019   2.161   4.032 -0.2590 -0.2759  0.8144
 1866TIP3    H127089   3.076   2.228   4.070  0.1528 -0.8334  1.1787
 1866TIP3    H227090   2.936   2.207   4.015  0.3578  0.5876  0.0748
 1867TIP3   OH227091   1.857   3.733   2.763  0.0485  0.1965 -0.0665
 1867TIP3    H127092   1.793   3.749   2.833 -1.9872 -3.1441 -1.0679
 1867TIP3    H227093   1.928   3.685   2.806  1.2019  2.5123  0.7038
 1868TIP3   OH227094   5.535   3.964  12.169 -0.1934  0.2433 -0.1835
 1868TIP3    H127095   5.630   3.964  12.163 -0.2213  1.4861 -0.8769
 1868TIP3    H227096   5.507   3.886  12.122  0.4802 -0.1504  0.0679
 1869TIP3   OH227097   1.261   3.902  12.906  0.4532 -0.5527 -0.3087
 1869TIP3    H127098   1.334   3.907  12.967 -0.2090  1.3601  0.3460
 1869TIP3    H227099   1.184   3.890  12.961 -0.0334  0.1714 -0.8295
 1870TIP3   OH227100   2.251   3.122  16.768  0.3214  0.4622  0.6121
 1870TIP3    H127101   2.339   3.131  16.804  0.4614  0.0511  0.3844
 1870TIP3    H227102   2.208   3.058  16.824  1.3590 -2.0776 -1.3906
 1871TIP3   OH227103   2.357   2.914  12.641  0.3810 -0.7015  0.1850
 1871TIP3    H127104   2.308   2.981  12.593  1.6954 -1.7372 -2.7020
 1871TIP3    H227105   2.379   2.955  12.725 -0.1758  1.9094 -0.9197
 1872TIP3   OH227106   3.941   6.172  15.287  0.0021 -0.0063 -0.1833
 1872TIP3    H127107   4.008   6.106  15.268 -0.4198 -0.4096 -0.2630
 1872TIP3    H227108   3.914   6.155  15.377  0.3932  0.5044  0.0373
 1873TIP3   OH227109   6.611   5.817   6.195 -0.2142  0.1720  0.0750
 1873TIP3    H127110   6.605   5.731   6.237  1.3390  0.0668  0.0924
 1873TIP3    H227111   6.652   5.874   6.261 -0.6902  0.7871 -0.1518
 1874TIP3   OH227112   1.648   4.832  12.995 -0.3812 -0.3609  0.5658
 1874TIP3    H127113   1.721   4.868  12.944 -0.0120 -1.3039  0.4063
 1874TIP3    H227114   1.608   4.908  13.037 -0.7492  0.4507 -1.2160
 1875TIP3   OH227115   6.510   2.383  12.763  0.5643 -0.0533  0.0030
 1875TIP3    H127116   6.587   2.436  12.741 -0.6730  1.0412 -1.7832
 1875TIP3    H227117   6.456   2.441  12.817  0.6086 -0.5504  0.5872
 1876TIP3   OH227118   0.413   5.305   0.639 -0.2517  0.5828  0.3620
 1876TIP3    H127119   0.465   5.383   0.616  1.0649 -0.2453  0.4834
 1876TIP3    H227120   0.478   5.238   0.661 -1.2919 -1.1504 -1.6273
 1877TIP3   OH227121   6.152   0.643   3.761  0.4201  0.2245  0.1936
 1877TIP3    H127122   6.091   0.656   3.834  0.0486  0.3619 -0.1390
 1877TIP3    H227123   6.105   0.586   3.700  1.3823 -1.3005  0.8486
 1878TIP3   OH227124   1.727   3.053   3.171 -0.2844 -0.0475 -0.5665
 1878TIP3    H127125   1.655   3.062   3.109 -0.8092  0.1663  0.0646
 1878TIP3    H227126   1.703   3.110   3.244  1.6946  1.9734 -1.4301
 1879TIP3   OH227127   3.562   0.541   1.726  0.3132 -1.2085  0.5240
 1879TIP3    H127128   3.621   0.500   1.663  2.4682 -0.3153  1.8904
 1879TIP3    H227129   3.557   0.477   1.798 -2.8591 -2.6361 -0.8805
 1880TIP3   OH227130   6.635   0.659  15.064 -1.0014 -0.0015 -0.5453
 1880TIP3    H127131   6.594   0.596  15.124  0.1025  0.1399  0.3650
 1880TIP3    H227132   6.715   0.616  15.035 -0.3781  0.8699 -0.1290
 1881TIP3   OH227133   3.970   1.568  12.915 -0.3888 -0.6580  0.4862
 1881TIP3    H127134   4.048   1.534  12.870 -0.6251  0.0530 -0.4859
 1881TIP3    H227135   3.945   1.498  12.975 -0.1954 -1.7402 -0.6690
 1882TIP3   OH227136   3.616   4.769   5.164  0.5812  0.2620 -0.2061
 1882TIP3    H127137   3.538   4.783   5.218  1.2572  0.5646  0.7194
 1882TIP3    H227138   3.674   4.842   5.187  0.2180  1.3247 -2.5930
 1883TIP3   OH227139   3.013   1.445  11.842 -0.1430  0.1105  0.0372
 1883TIP3    H127140   3.062   1.484  11.914 -1.2206  0.9505  0.3380
 1883TIP3    H227141   3.078   1.396  11.792  1.1421  1.7830  0.0192
 1884TIP3   OH227142   3.078   1.298   3.767  0.0184  0.5270 -0.3616
 1884TIP3    H127143   3.003   1.328   3.714  1.0125  2.9841 -0.4587
 1884TIP3    H227144   3.038   1.256   3.843 -1.4768 -4.4592 -3.6773
 1885TIP3   OH227145   0.549   0.890   2.145 -0.3626  0.0735  0.2065
 1885TIP3    H127146   0.504   0.836   2.210  0.1022  0.9455  1.2673
 1885TIP3    H227147   0.621   0.835   2.114 -2.0994 -1.3348 -1.4968
 1886TIP3   OH227148   2.137   2.791   2.995  0.2397 -0.2798  0.0880
 1886TIP3    H127149   2.059   2.845   3.000  0.5748  0.1971  0.1985
 1886TIP3    H227150   2.116   2.713   3.047 -1.2290 -1.5108 -2.2652
 1887TIP3   OH227151   4.088   6.550   5.841 -0.2531 -0.1739  0.1454
 1887TIP3    H127152   4.004   6.521   5.876 -0.9286 -0.3575 -1.5759
 1887TIP3    H227153   4.094   6.642   5.866  0.1816 -0.7847  2.3952
 1888TIP3   OH227154   2.255   1.813  16.195 -0.3827 -0.1491  0.5860
 1888TIP3    H127155   2.205   1.857  16.263 -1.6322  0.7282 -0.8584
 1888TIP3    H227156   2.191   1.757  16.150  0.5687 -1.2362  0.5539
 1889TIP3   OH227157   1.065   5.722  10.884 -0.1336  0.0055 -0.5769
 1889TIP3    H127158   0.982   5.692  10.848 -0.1886  0.6765 -1.0248
 1889TIP3    H227159   1.131   5.690  10.822 -0.2438  1.3234 -1.3995
 1890TIP3   OH227160   2.465   5.151   2.471 -0.1956  0.2261 -0.1286
 1890TIP3    H127161   2.505   5.090   2.409 -1.6498  1.7704 -2.6364
 1890TIP3    H227162   2.524   5.227   2.471 -0.2362  0.2568  0.3119
 1891TIP3   OH227163   6.784   1.140   4.880 -0.1832 -0.3046 -0.5463
 1891TIP3    H127164   6.778   1.103   4.968  1.1541  0.2049 -0.2219
 1891TIP3    H227165   6.723   1.213   4.879 -0.4558 -0.5276 -0.1614
 1892TIP3   OH227166   4.692   1.264   5.699  0.3433  0.0009  0.1274
 1892TIP3    H127167   4.787   1.273   5.690  0.1638  1.1537 -0.6634
 1892TIP3    H227168   4.662   1.239   5.612 -0.2262  0.9112  0.0593
 1893TIP3   OH227169   4.751   4.323   1.175  1.7004  0.3523 -0.5138
 1893TIP3    H127170   4.816   4.253   1.179 -1.1318 -2.4524 -0.6778
 1893TIP3    H227171   4.715   4.328   1.264 -0.2892 -0.7038 -1.2034
 1894TIP3   OH227172   4.110   5.667  14.951  0.3703  0.2999 -0.8304
 1894TIP3    H127173   4.027   5.620  14.958  0.5674  0.2647  1.6317
 1894TIP3    H227174   4.152   5.630  14.874 -0.1922 -2.4475  0.1255
 1895TIP3   OH227175   6.491   2.101   3.824 -0.1410  0.5977  0.0057
 1895TIP3    H127176   6.567   2.146   3.786  0.5435 -0.7344 -0.2435
 1895TIP3    H227177   6.435   2.171   3.857  1.0800  1.6103 -0.0478
 1896TIP3   OH227178   2.325   4.097  13.830  0.0407  0.3087 -0.2177
 1896TIP3    H127179   2.316   4.164  13.898 -0.9831  0.4822 -0.5267
 1896TIP3    H227180   2.412   4.114  13.792  0.0277  1.1027  0.0861
 1897TIP3   OH227181   2.092   3.273   4.735  0.4399 -0.0703  0.7891
 1897TIP3    H127182   2.042   3.237   4.808  1.2034 -0.3224  1.1974
 1897TIP3    H227183   2.085   3.368   4.745 -0.9382 -0.0928  0.1594
 1898TIP3   OH227184   4.648   3.807  11.389 -0.1550  0.2565  0.0928
 1898TIP3    H127185   4.669   3.714  11.377 -1.7390 -0.1494  0.3592
 1898TIP3    H227186   4.635   3.817  11.483  0.2107  0.7920  0.0864
 1899TIP3   OH227187   4.367   3.994  12.593  0.1766 -0.1082  0.3823
 1899TIP3    H127188   4.419   3.933  12.645  0.4384 -0.2151  0.0007
 1899TIP3    H227189   4.426   4.021  12.522 -0.5071 -0.7393 -0.4339
 1900TIP3   OH227190   2.516   0.227   1.976 -1.2060 -0.2640  0.0051
 1900TIP3    H127191   2.441   0.198   2.029 -2.0441  0.4998 -0.7485
 1900TIP3    H227192   2.564   0.146   1.957 -1.7454 -0.7432  0.6379
 1901TIP3   OH227193   0.736   1.334   2.871  0.4080  0.5464 -0.1057
 1901TIP3    H127194   0.721   1.395   2.798  0.0486  2.3662  1.4420
 1901TIP3    H227195   0.830   1.343   2.890  0.6534 -0.4614 -0.7767
 1902TIP3   OH227196   3.092   0.151  11.995  0.3037 -0.3260 -0.3554
 1902TIP3    H127197   3.154   0.082  12.018 -0.6149 -1.5095 -1.3710
 1902TIP3    H227198   3.125   0.229  12.040  0.8161 -1.6472  1.6180
 1903TIP3   OH227199   3.292   6.804   4.001  0.3970 -0.6884  0.2018
 1903TIP3    H127200   3.385   6.782   3.996  0.2547 -1.3261  0.2636
 1903TIP3    H227201   3.279   6.836   4.090  0.4505 -1.1343  0.3732
 1904TIP3   OH227202   4.450   6.752  13.623 -0.1129  0.1220 -0.0382
 1904TIP3    H127203   4.424   6.723  13.711  0.5028  1.3567  0.5735
 1904TIP3    H227204   4.537   6.715  13.610 -0.5907 -0.8433 -0.5206
 1905TIP3   OH227205   2.320   1.734   0.071  0.2548  0.1594 -0.7779
 1905TIP3    H127206   2.327   1.709   0.163  1.2255  0.5833 -0.7303
 1905TIP3    H227207   2.240   1.692   0.041 -0.6635  0.9193  0.5583
 1906TIP3   OH227208   5.096   6.662   2.011  0.4333 -0.1416  0.0248
 1906TIP3    H127209   5.104   6.640   2.104 -0.5608 -0.9644 -0.0752
 1906TIP3    H227210   5.105   6.578   1.966 -0.6449  0.0342 -0.5304
 1907TIP3   OH227211   0.187   4.567  14.286  0.2134  0.1493  0.3177
 1907TIP3    H127212   0.208   4.552  14.194  2.1185  0.4913  0.6817
 1907TIP3    H227213   0.204   4.484  14.329 -1.0725 -0.1299  0.3101
 1908TIP3   OH227214   0.841   1.147  11.896 -0.2104 -0.4681  0.2147
 1908TIP3    H127215   0.871   1.056  11.902 -1.1863 -0.8396 -0.4417
 1908TIP3    H227216   0.751   1.140  11.864 -0.1014  0.7529 -0.3701
 1909TIP3   OH227217   4.848   6.685   6.468 -0.0095  0.1740 -0.0363
 1909TIP3    H127218   4.924   6.638   6.499 -0.5897 -0.9308 -0.2619
 1909TIP3    H227219   4.816   6.733   6.544  1.1126  0.9316 -0.0356
 1910TIP3   OH227220   5.298   6.756  13.308 -0.2283 -0.1336  0.0555
 1910TIP3    H127221   5.336   6.758  13.396  0.7996 -1.5512 -0.3498
 1910TIP3    H227222   5.362   6.803  13.253 -0.9984  0.9959  0.0913
 1911TIP3   OH227223   5.001   5.921   2.668 -0.2899  0.2724 -0.6544
 1911TIP3    H127224   5.024   5.830   2.652  0.9296  0.5297 -0.4448
 1911TIP3    H227225   5.053   5.970   2.604 -2.4364  0.7172 -2.1374
 1912TIP3   OH227226   3.655   4.653  13.799 -0.1113  0.1683  0.1234
 1912TIP3    H127227   3.699   4.643  13.714  0.2345  2.1682  0.0246
 1912TIP3    H227228   3.716   4.613  13.862  0.7548  0.7774 -0.3056
 1913TIP3   OH227229   6.061   4.284  17.245 -0.5239 -0.4513 -0.2921
 1913TIP3    H127230   6.063   4.233  17.164 -0.4588  1.0303 -1.2370
 1913TIP3    H227231   6.018   4.366  17.221 -0.6616 -0.0647  1.2171
 1914TIP3   OH227232   1.888   5.104   4.491 -0.2892  0.6513  0.1195
 1914TIP3    H127233   1.799   5.113   4.456 -0.3095  0.9776  0.2566
 1914TIP3    H227234   1.918   5.194   4.505  0.7173  0.6206 -1.5844
 1915TIP3   OH227235   4.218   5.335   5.681 -0.1903  0.3054  0.3141
 1915TIP3    H127236   4.231   5.313   5.773 -0.9894 -1.7828 -0.0485
 1915TIP3    H227237   4.208   5.430   5.680  2.3037  0.6381  2.0725
 1916TIP3   OH227238   0.274   1.977   4.216 -0.2838  0.5418 -0.1813
 1916TIP3    H127239   0.298   2.053   4.269  0.3774 -0.1382  0.5283
 1916TIP3    H227240   0.220   1.923   4.274 -0.5952  0.3838 -0.6139
 1917TIP3   OH227241   4.467   3.575   4.079  0.0278 -0.1757  0.4275
 1917TIP3    H127242   4.380   3.573   4.039  0.5006 -2.2804 -0.6050
 1917TIP3    H227243   4.467   3.653   4.134 -2.1563  0.4059 -0.3460
 1918TIP3   OH227244   1.852   6.094  11.649  0.3050  0.0957 -0.8497
 1918TIP3    H127245   1.833   6.126  11.561  0.6798  0.2510 -0.8777
 1918TIP3    H227246   1.787   6.136  11.706 -0.4313 -0.6044 -1.1638
 1919TIP3   OH227247   3.430   4.519  14.391  0.4780  0.0862 -0.4328
 1919TIP3    H127248   3.449   4.606  14.356 -1.6767  1.2578  1.2231
 1919TIP3    H227249   3.516   4.478  14.400  1.5449  2.1228 -1.0521
 1920TIP3   OH227250   5.897   4.850  11.524 -0.1424 -0.0219  0.4173
 1920TIP3    H127251   5.821   4.909  11.530  1.5540  2.1066  2.0010
 1920TIP3    H227252   5.897   4.820  11.433 -1.3026  2.1514 -0.3546
 1921TIP3   OH227253   1.015   5.170  15.421  0.0662 -0.2380 -0.2732
 1921TIP3    H127254   0.945   5.139  15.478  0.5991  0.5085  0.7963
 1921TIP3    H227255   1.007   5.116  15.342 -0.8520 -1.0805  0.3869
 1922TIP3   OH227256   2.706   5.245  12.246 -0.2072  0.4579 -0.0322
 1922TIP3    H127257   2.689   5.268  12.337  0.1864 -0.4707  0.2810
 1922TIP3    H227258   2.758   5.164  12.250  0.0530  0.5578 -1.0694
 1923TIP3   OH227259   2.011   6.532  11.835 -0.0171 -0.0260  0.2170
 1923TIP3    H127260   2.081   6.485  11.790  1.3676  1.2330  1.0364
 1923TIP3    H227261   2.035   6.529  11.927 -2.5735 -2.1084  0.8864
 1924TIP3   OH227262   2.485   2.792  15.649 -0.3927 -0.5223  0.2242
 1924TIP3    H127263   2.557   2.774  15.589 -0.3699 -0.1404  0.1348
 1924TIP3    H227264   2.407   2.794  15.593 -0.3435  0.0520  0.1736
 1925TIP3   OH227265   2.902   6.397  10.705  0.0548 -0.1587 -0.1824
 1925TIP3    H127266   2.856   6.315  10.690  2.1587 -1.2056 -1.2282
 1925TIP3    H227267   2.841   6.451  10.755 -1.2106 -2.5126  0.8875
 1926TIP3   OH227268   1.923   0.494   1.731 -0.1496 -0.1260 -0.6437
 1926TIP3    H127269   1.948   0.583   1.755 -1.2753  0.2764 -0.9794
 1926TIP3    H227270   1.992   0.465   1.671  0.7402  0.1518  0.2163
 1927TIP3   OH227271   2.347   0.179   6.356 -0.4185 -0.2779 -0.0972
 1927TIP3    H127272   2.424   0.181   6.300  0.4321 -0.1179  1.0644
 1927TIP3    H227273   2.332   0.270   6.380  0.4662 -0.5366  1.5758
 1928TIP3   OH227274   0.225   2.828   6.556  0.1647  0.1870 -0.4351
 1928TIP3    H127275   0.292   2.797   6.617  0.3018 -0.9383 -1.1366
 1928TIP3    H227276   0.195   2.911   6.593  0.0584 -0.5983  1.2993
 1929TIP3   OH227277   4.640   1.899   1.413  0.3811  0.5114  0.3580
 1929TIP3    H127278   4.648   1.927   1.505 -1.4372 -0.3116  0.7919
 1929TIP3    H227279   4.602   1.812   1.418  1.4136 -0.0471 -1.1671
 1930TIP3   OH227280   2.869   1.668  11.740 -0.1484  0.5339 -0.2073
 1930TIP3    H127281   2.926   1.594  11.760  1.0023  1.1296 -1.2684
 1930TIP3    H227282   2.816   1.679  11.819 -0.4114 -1.4840 -0.0713
 1931TIP3   OH227283   5.756   0.486   6.737 -0.2055  0.3220  0.4060
 1931TIP3    H127284   5.779   0.501   6.829 -2.2444  0.3188  0.9402
 1931TIP3    H227285   5.766   0.391   6.725  0.2864  0.3532  0.5540
 1932TIP3   OH227286   0.083   1.665  13.788  0.0476 -0.0864  0.1881
 1932TIP3    H127287   0.027   1.716  13.728 -1.6287  1.0748  2.6272
 1932TIP3    H227288   0.157   1.723  13.806  0.1220 -0.0886 -0.1141
 1933TIP3   OH227289   5.591   2.318  12.002  0.2775 -0.7411 -0.3392
 1933TIP3    H127290   5.528   2.365  12.057 -0.0404 -0.2390 -1.1360
 1933TIP3    H227291   5.553   2.230  11.993  0.8984 -1.1868  1.1862
 1934TIP3   OH227292   0.990   3.182   3.804  0.2443  0.1770  0.4387
 1934TIP3    H127293   1.047   3.229   3.743 -1.1254  0.9662 -0.2661
 1934TIP3    H227294   0.919   3.244   3.823 -0.4233 -0.8153  1.2126
 1935TIP3   OH227295   2.877   5.461   0.110 -0.0564 -0.0532 -0.2285
 1935TIP3    H127296   2.846   5.510   0.034  2.0959 -0.8748 -1.7009
 1935TIP3    H227297   2.888   5.371   0.077  1.8215 -0.2083  0.7806
 1936TIP3   OH227298   3.610   6.510   0.693 -0.1322 -0.7739  0.5210
 1936TIP3    H127299   3.624   6.443   0.626  1.1240  0.8056 -0.8427
 1936TIP3    H227300   3.698   6.543   0.712 -0.7083  0.2868  1.3765
 1937TIP3   OH227301   2.463   3.087  16.966 -0.3309  0.1427  0.2928
 1937TIP3    H127302   2.415   3.026  17.023  1.0260  1.7098  3.2651
 1937TIP3    H227303   2.555   3.060  16.976  0.0059  1.0270 -0.4475
 1938TIP3   OH227304   0.997   0.424  16.918 -0.0023  0.2524 -0.1031
 1938TIP3    H127305   1.017   0.453  17.007 -3.8375 -0.6851  1.1806
 1938TIP3    H227306   0.982   0.505  16.869 -0.9846  0.7283  0.9577
 1939TIP3   OH227307   0.013   5.295   3.325 -0.0022  0.6363  0.4035
 1939TIP3    H127308   0.059   5.226   3.276  0.9249 -0.1555  2.3132
 1939TIP3    H227309   0.072   5.314   3.399 -1.2476  1.9612  1.0683
 1940TIP3   OH227310   2.286   0.851  16.321 -0.1840  0.2421  0.0487
 1940TIP3    H127311   2.203   0.807  16.337 -0.8231  1.0896 -0.8439
 1940TIP3    H227312   2.344   0.820  16.390 -0.6253 -1.9871 -0.5506
 1941TIP3   OH227313   1.779   1.948   3.600  0.3246 -0.4298 -0.1203
 1941TIP3    H127314   1.748   2.021   3.546  1.2710  0.3458  0.3721
 1941TIP3    H227315   1.743   1.870   3.558 -0.7838  0.3243 -0.5929
 1942TIP3   OH227316   0.969   3.522  16.078  0.5894 -0.0399 -0.2088
 1942TIP3    H127317   0.911   3.490  16.147 -0.1251  0.9940 -0.3159
 1942TIP3    H227318   0.994   3.443  16.029  1.9906 -0.9343  1.8777
 1943TIP3   OH227319   1.454   1.359   5.977 -0.1721  0.1166 -0.6220
 1943TIP3    H127320   1.459   1.305   6.056  1.8120 -0.4896 -1.1426
 1943TIP3    H227321   1.395   1.311   5.920  0.4075 -0.7603 -0.5005
 1944TIP3   OH227322   0.979   3.843  14.410 -0.4395 -0.0557 -0.1168
 1944TIP3    H127323   0.934   3.760  14.427 -0.3371 -0.1785 -0.4342
 1944TIP3    H227324   0.971   3.855  14.315 -2.3545  1.3702  0.1741
 1945TIP3   OH227325   4.295   5.914  15.814  0.0681 -0.8791 -0.0828
 1945TIP3    H127326   4.236   5.978  15.854  0.0814 -0.9750  0.0854
 1945TIP3    H227327   4.265   5.829  15.845 -0.1243 -0.9801 -0.5325
 1946TIP3   OH227328   1.400   4.853   1.831 -0.6696  0.3759 -0.0910
 1946TIP3    H127329   1.318   4.816   1.863  0.1535  0.5241  2.2643
 1946TIP3    H227330   1.468   4.796   1.867  0.3829  1.6630  0.0065
 1947TIP3   OH227331   4.580   1.036  12.492 -0.2250  0.3176 -0.1171
 1947TIP3    H127332   4.642   0.969  12.464  0.6654  0.0885  2.2480
 1947TIP3    H227333   4.523   1.051  12.416  1.1361 -1.3001 -1.4745
 1948TIP3   OH227334   3.854   0.049  13.262 -0.8356 -0.1463  0.4690
 1948TIP3    H127335   3.784   0.114  13.263  0.3976  1.2030  0.6126
 1948TIP3    H227336   3.897   0.059  13.346 -1.2091 -1.8150  0.8745
 1949TIP3   OH227337   2.488   1.181   5.826  0.0480  0.0665  0.3346
 1949TIP3    H127338   2.471   1.275   5.817  0.3350  0.1336  0.4875
 1949TIP3    H227339   2.583   1.174   5.822  0.2530  0.1333  3.6017
 1950TIP3   OH227340   0.471   1.967   6.361 -0.6886  0.2114  0.3613
 1950TIP3    H127341   0.469   1.922   6.445  2.0074 -1.2887 -0.3342
 1950TIP3    H227342   0.494   2.057   6.383  1.0066 -0.3947  1.1770
 1951TIP3   OH227343   6.325   3.550   0.314 -0.2244 -0.4624 -0.7343
 1951TIP3    H127344   6.407   3.595   0.337 -0.8676  0.8313 -0.9296
 1951TIP3    H227345   6.268   3.619   0.282 -2.5220 -0.7808  2.3575
 1952TIP3   OH227346   5.947   4.292  12.906  0.0017  0.2531  0.5712
 1952TIP3    H127347   5.867   4.274  12.857  1.2563 -1.2401 -0.9803
 1952TIP3    H227348   5.986   4.206  12.922  1.1358  0.9376  1.5706
 1953TIP3   OH227349   6.493   5.019   2.384  0.4702  0.2775  0.0012
 1953TIP3    H127350   6.527   5.104   2.410  0.3926  0.5346 -0.7118
 1953TIP3    H227351   6.431   5.039   2.313  0.2408 -0.3424  0.0247
 1954TIP3   OH227352   4.164   6.116   2.071  0.0506 -0.4655  0.6020
 1954TIP3    H127353   4.206   6.187   2.120  1.3088  0.8040 -2.2197
 1954TIP3    H227354   4.110   6.161   2.006 -0.1087 -2.1068 -0.4219
 1955TIP3   OH227355   5.706   2.837  13.533 -0.6307 -0.0247 -0.4023
 1955TIP3    H127356   5.741   2.752  13.506 -2.2392 -0.9908  0.5080
 1955TIP3    H227357   5.648   2.817  13.606 -1.4346  1.7977 -0.5227
 1956TIP3   OH227358   0.346   5.718   3.038 -0.0367  0.5180 -0.1666
 1956TIP3    H127359   0.256   5.710   3.069 -0.1009  0.4101 -0.3785
 1956TIP3    H227360   0.341   5.699   2.944  0.3026 -0.0669 -0.0678
 1957TIP3   OH227361   4.518   4.442   2.148  0.5818  0.1854  0.3690
 1957TIP3    H127362   4.596   4.402   2.109  0.2242  0.6129 -0.8353
 1957TIP3    H227363   4.549   4.524   2.186  1.2520 -1.0496  2.5282
 1958TIP3   OH227364   2.491   3.177  12.037  0.1799  0.2765  0.3336
 1958TIP3    H127365   2.425   3.114  12.066 -0.8223  0.4072 -1.5545
 1958TIP3    H227366   2.453   3.263  12.055  0.4053  0.3510  0.4633
 1959TIP3   OH227367   2.477   5.131   4.062 -0.0608 -0.4872 -0.0744
 1959TIP3    H127368   2.395   5.128   4.012  0.0848  0.7278 -0.4096
 1959TIP3    H227369   2.545   5.135   3.995  0.1642  0.6027  0.1983
 1960TIP3   OH227370   4.159   0.407  15.575 -0.1915  0.1855  0.0202
 1960TIP3    H127371   4.064   0.410  15.590 -0.5382  1.7883 -2.2574
 1960TIP3    H227372   4.168   0.414  15.480  2.2473  0.3686  0.2430
 1961TIP3   OH227373   0.320   3.802  15.806 -0.1042  0.7007 -0.0764
 1961TIP3    H127374   0.334   3.791  15.712 -1.0814 -2.1857  0.0877
 1961TIP3    H227375   0.226   3.791  15.818  0.5091 -3.1431  1.7294
 1962TIP3   OH227376   2.451   0.014   3.743 -0.0763  0.0454 -0.7217
 1962TIP3    H127377   2.378   0.031   3.802  0.7847 -1.3995  0.7937
 1962TIP3    H227378   2.529   0.032   3.795  0.7085 -1.7137 -1.2581
 1963TIP3   OH227379   5.339   5.396  14.008 -0.0580 -0.8071 -0.3357
 1963TIP3    H127380   5.254   5.360  13.984 -0.1001  0.0890 -1.5411
 1963TIP3    H227381   5.325   5.490  14.014  0.7808 -0.6838 -0.2318
 1964TIP3   OH227382   0.128   4.915   3.483 -0.7364 -0.1780  0.9570
 1964TIP3    H127383   0.064   4.890   3.416 -0.2078 -0.6197  0.6121
 1964TIP3    H227384   0.075   4.950   3.555 -1.3047  0.4905  0.2328
 1965TIP3   OH227385   3.152   2.205   5.373 -0.7233  0.6003  0.0509
 1965TIP3    H127386   3.068   2.228   5.332 -0.0743  1.5517 -0.7768
 1965TIP3    H227387   3.130   2.137   5.437 -2.1988  1.2418  0.2350
 1966TIP3   OH227388   0.148   3.458   6.103 -0.1867  0.1740 -0.1272
 1966TIP3    H127389   0.103   3.437   6.021 -0.6989  0.7699  0.0004
 1966TIP3    H227390   0.083   3.440   6.171  1.0596 -2.8972  0.3748
 1967TIP3   OH227391   4.880   1.826   0.433  0.3857  0.2207 -0.0060
 1967TIP3    H127392   4.842   1.765   0.371  0.8894 -0.3167  0.2119
 1967TIP3    H227393   4.813   1.894   0.445  0.0212 -0.0343 -0.6102
 1968TIP3   OH227394   6.541   0.420  13.765 -0.3377 -0.5726 -0.4982
 1968TIP3    H127395   6.499   0.451  13.685 -1.8662  2.2699  1.3102
 1968TIP3    H227396   6.632   0.447  13.756 -0.3036 -1.0174 -1.6101
 1969TIP3   OH227397   2.181   6.445  15.257  0.2222  0.2506 -0.1247
 1969TIP3    H127398   2.141   6.374  15.207  1.7033 -0.0477 -0.9098
 1969TIP3    H227399   2.158   6.524  15.208 -0.5954  0.2291  0.2113
 1970TIP3   OH227400   0.123   5.504   2.573 -0.2646 -0.4809  0.0156
 1970TIP3    H127401   0.114   5.438   2.642 -1.3883 -0.4204 -0.0740
 1970TIP3    H227402   0.145   5.453   2.495  0.8798 -0.5591  0.3795
 1971TIP3   OH227403   5.483   4.212   1.966 -0.0578  0.6223 -0.0291
 1971TIP3    H127404   5.411   4.150   1.952 -1.0862  1.8134 -0.0206
 1971TIP3    H227405   5.553   4.180   1.907 -0.7572 -0.2434 -0.4081
 1972TIP3   OH227406   6.224   2.247  11.442 -0.0131  0.0423 -0.1812
 1972TIP3    H127407   6.227   2.157  11.472  0.5527  0.1160 -0.0207
 1972TIP3    H227408   6.302   2.258  11.387  0.4898  0.7379  0.6575
 1973TIP3   OH227409   1.037   5.579   2.697 -0.0536  0.7331  0.2354
 1973TIP3    H127410   0.946   5.608   2.699 -0.4183 -0.4877  1.0740
 1973TIP3    H227411   1.061   5.566   2.788 -0.0626 -2.1270 -0.1311
 1974TIP3   OH227412   1.035   5.026   5.240  0.1264  0.4409 -0.2003
 1974TIP3    H127413   1.096   5.048   5.169  0.5024  1.2694  0.3700
 1974TIP3    H227414   1.091   5.013   5.317 -0.5524  3.7560  0.9335
 1975TIP3   OH227415   5.264   3.936   4.326 -0.4646 -0.2961 -0.1384
 1975TIP3    H127416   5.271   3.976   4.412  1.3743  1.0971 -0.8812
 1975TIP3    H227417   5.179   3.965   4.292 -0.7949 -0.1177  0.8447
 1976TIP3   OH227418   2.251   6.174  11.875  0.0513 -0.0569  0.9010
 1976TIP3    H127419   2.333   6.222  11.865  0.1850 -0.5163 -0.2613
 1976TIP3    H227420   2.183   6.240  11.862  0.2335 -0.2464 -1.0848
 1977TIP3   OH227421   2.440   0.545  12.040 -0.1127  0.3241 -0.0001
 1977TIP3    H127422   2.535   0.541  12.044 -0.1124 -0.3063 -0.5919
 1977TIP3    H227423   2.416   0.614  12.102  0.8245  1.7085 -1.1725
 1978TIP3   OH227424   2.473   5.393   4.455 -0.7370  0.3005  0.3018
 1978TIP3    H127425   2.558   5.355   4.432  0.2919  2.5834  0.1897
 1978TIP3    H227426   2.430   5.326   4.508 -0.0320 -2.0150 -1.9624
 1979TIP3   OH227427   6.569   2.700  12.224  0.2671  0.5205  0.4792
 1979TIP3    H127428   6.557   2.715  12.317 -0.7847  0.2629  0.3857
 1979TIP3    H227429   6.546   2.608  12.210  2.4705 -0.0451  0.3106
 1980TIP3   OH227430   1.688   1.701   3.535 -0.4665  0.3667  0.4385
 1980TIP3    H127431   1.638   1.698   3.616  0.1633  0.0339  0.8174
 1980TIP3    H227432   1.762   1.642   3.550 -0.0938  0.6635 -0.2039
 1981TIP3   OH227433   5.610   3.217   0.084  0.0152 -0.8356  0.3737
 1981TIP3    H127434   5.680   3.267   0.043 -1.0411  1.5656  1.3471
 1981TIP3    H227435   5.646   3.190   0.169  0.0180 -0.2407  0.5635
 1982TIP3   OH227436   4.012   6.207   5.248 -0.1072 -0.0947  0.0451
 1982TIP3    H127437   4.025   6.169   5.161  1.7563 -0.0538  0.2773
 1982TIP3    H227438   4.029   6.134   5.308  0.6022  0.3761  0.4208
 1983TIP3   OH227439   1.556   1.548  10.629 -0.0353 -0.0830  0.6130
 1983TIP3    H127440   1.468   1.513  10.635  0.6778 -1.9625  0.4404
 1983TIP3    H227441   1.598   1.524  10.712  0.1681  1.2013  0.8864
 1984TIP3   OH227442   5.662   2.621   1.014  0.2826  0.0199 -0.4814
 1984TIP3    H127443   5.614   2.625   0.932 -0.4370  1.9460  0.0174
 1984TIP3    H227444   5.660   2.711   1.048  0.9593 -0.6589  1.4154
 1985TIP3   OH227445   4.786   1.848   5.532 -0.4545  0.1327  0.0941
 1985TIP3    H127446   4.808   1.766   5.575  0.4657  0.4507  0.2385
 1985TIP3    H227447   4.697   1.867   5.561 -0.5970 -0.7001  0.2240
 1986TIP3   OH227448   6.499   0.080  11.525 -0.2146 -0.0933  0.0505
 1986TIP3    H127449   6.551   0.100  11.603 -0.0058 -1.1685  0.2019
 1986TIP3    H227450   6.434   0.150  11.521 -0.2258 -0.0245  1.1821
 1987TIP3   OH227451   3.811   1.944   3.994  0.2017 -0.1787 -0.3823
 1987TIP3    H127452   3.752   1.887   3.946 -0.4257 -2.1341  2.6028
 1987TIP3    H227453   3.755   1.993   4.054  1.1659  0.8858 -0.3150
 1988TIP3   OH227454   4.970   2.085  14.972 -0.4095 -0.4006 -0.0373
 1988TIP3    H127455   4.917   2.139  15.030 -1.5818  0.0238 -1.4729
 1988TIP3    H227456   5.056   2.128  14.970 -0.9589  0.6794 -0.1978
 1989TIP3   OH227457   3.759   4.581  14.825  0.8264  0.1841  0.5664
 1989TIP3    H127458   3.749   4.512  14.891 -1.7564 -0.1356 -0.0919
 1989TIP3    H227459   3.686   4.641  14.842  0.8059  0.7019 -1.2565
 1990TIP3   OH227460   2.873   4.501  13.111  0.5679  0.0390  0.1811
 1990TIP3    H127461   2.887   4.553  13.191  0.9411 -1.0987  0.8617
 1990TIP3    H227462   2.953   4.512  13.060  1.2389 -1.0133  0.9842
 1991TIP3   OH227463   5.938   3.561   5.546  0.5722  0.2576  0.3426
 1991TIP3    H127464   5.884   3.513   5.484  1.9846  0.8473 -1.3850
 1991TIP3    H227465   5.909   3.652   5.538  0.3307  0.2474  1.0197
 1992TIP3   OH227466   5.623   5.763   3.829  0.8994  0.1461  0.0306
 1992TIP3    H127467   5.649   5.793   3.916  1.6525 -1.7219  0.4594
 1992TIP3    H227468   5.626   5.668   3.834  0.5306  0.0145 -1.9183
 1993TIP3   OH227469   5.090   5.973  11.268 -0.0359  0.2145  0.3427
 1993TIP3    H127470   5.107   5.880  11.285 -1.5347  0.1049  1.3204
 1993TIP3    H227471   5.090   5.980  11.173  2.5171 -0.3082  0.2631
 1994TIP3   OH227472   3.019   5.484  15.107  0.7139 -0.5109  0.2614
 1994TIP3    H127473   3.064   5.405  15.076  1.3464  0.2382 -0.7739
 1994TIP3    H227474   3.080   5.555  15.087  0.1697  0.2372  1.2412
 1995TIP3   OH227475   1.200   4.642   1.049  0.8167 -0.3242 -0.3193
 1995TIP3    H127476   1.286   4.683   1.059  1.0513 -0.7698 -0.4776
 1995TIP3    H227477   1.217   4.549   1.065  0.0454 -0.1822  1.4010
 1996TIP3   OH227478   2.706   0.760  14.110  0.8634  0.1730  0.4013
 1996TIP3    H127479   2.674   0.845  14.082 -2.2003 -1.6501 -1.9777
 1996TIP3    H227480   2.679   0.752  14.201  0.2824  1.3499  0.3311
 1997TIP3   OH227481   3.204   4.515  13.399 -0.4108 -0.1272 -0.5075
 1997TIP3    H127482   3.203   4.423  13.372  1.2880 -0.2048 -0.3343
 1997TIP3    H227483   3.172   4.563  13.323 -1.1404 -0.8296 -0.6605
 1998TIP3   OH227484   3.574   3.562   4.078 -0.3496  0.4095  0.0064
 1998TIP3    H127485   3.524   3.618   4.137  1.6935  3.6613 -1.1790
 1998TIP3    H227486   3.664   3.565   4.112  0.1742 -0.6025 -1.2065
 1999TIP3   OH227487   1.618   1.710  14.020 -0.0812  0.0777 -0.1043
 1999TIP3    H127488   1.573   1.731  13.939 -0.8883 -0.4402  0.2008
 1999TIP3    H227489   1.711   1.714  13.998 -0.2491  1.8510 -0.5631
 2000TIP3   OH227490   5.609   1.887   0.251  0.5144  0.7334 -0.3610
 2000TIP3    H127491   5.624   1.947   0.325 -2.4568  2.5201 -1.1357
 2000TIP3    H227492   5.685   1.899   0.195  1.1990  1.8489  0.7702
 2001TIP3   OH227493   4.620   6.102  16.042 -0.2616 -0.3882  0.1087
 2001TIP3    H127494   4.576   6.184  16.064  0.0760  0.3158 -1.8213
 2001TIP3    H227495   4.713   6.122  16.055 -0.2003 -0.5716 -0.0652
 2002TIP3   OH227496   5.361   6.235   5.167 -0.1422  0.0014 -0.4209
 2002TIP3    H127497   5.274   6.258   5.200 -0.4018 -1.5072  0.0034
 2002TIP3    H227498   5.421   6.257   5.239 -0.3627 -0.4960 -0.0870
 2003TIP3   OH227499   5.781   4.430   6.250 -0.3193 -1.1262 -0.2529
 2003TIP3    H127500   5.756   4.339   6.267  0.4181 -1.3432 -0.3299
 2003TIP3    H227501   5.839   4.453   6.323  0.6146 -1.1600 -0.9880
 2004TIP3   OH227502   0.747   5.214   4.977  0.3141 -0.5909  0.0860
 2004TIP3    H127503   0.798   5.259   4.909  2.1137 -1.0035  1.1550
 2004TIP3    H227504   0.757   5.121   4.957  2.1218 -0.7890  1.7805
 2005TIP3   OH227505   3.154   1.877   5.829 -0.1229 -0.0690 -0.2122
 2005TIP3    H127506   3.065   1.856   5.801 -0.5818  0.5175  0.7624
 2005TIP3    H227507   3.143   1.918   5.915  1.0444  0.5843 -0.3608
 2006TIP3   OH227508   4.201   5.886   0.337 -0.3817  0.5905 -0.0087
 2006TIP3    H127509   4.290   5.921   0.349 -0.3111  0.9737 -1.5555
 2006TIP3    H227510   4.213   5.791   0.340 -0.0086  0.6436  0.3626
 2007TIP3   OH227511   3.640   1.235  11.298 -0.0950  0.0170  0.0384
 2007TIP3    H127512   3.602   1.309  11.251  0.5437 -0.2557 -0.9334
 2007TIP3    H227513   3.568   1.172  11.306 -0.3481  0.2847 -0.1300
 2008TIP3   OH227514   3.220   2.080  12.827 -0.2268  0.6126  0.7651
 2008TIP3    H127515   3.234   2.011  12.892  0.9504  0.4370  0.3395
 2008TIP3    H227516   3.180   2.151  12.876 -2.7487 -0.8629  0.9370
 2009TIP3   OH227517   4.310   0.601   6.061 -0.6084 -0.0343 -0.2050
 2009TIP3    H127518   4.347   0.680   6.021  2.9561 -0.0336  2.8458
 2009TIP3    H227519   4.326   0.532   5.996  0.9554  0.8049 -0.7496
 2010TIP3   OH227520   2.186   3.672   2.602  0.2628  0.1167  1.3439
 2010TIP3    H127521   2.157   3.648   2.689  0.9304 -3.0452  0.7593
 2010TIP3    H227522   2.267   3.622   2.589 -0.8164 -0.9550 -1.7543
 2011TIP3   OH227523   1.341   5.209   2.058 -0.2988 -0.6501  0.4537
 2011TIP3    H127524   1.322   5.242   2.146 -0.0462 -0.3987  0.4142
 2011TIP3    H227525   1.415   5.150   2.070  0.6087  0.4256  0.2116
 2012TIP3   OH227526   3.325   6.727  11.723 -0.4211 -0.2682 -0.8331
 2012TIP3    H127527   3.376   6.744  11.643  1.4659  1.2588  0.6559
 2012TIP3    H227528   3.352   6.639  11.750  0.9407  0.2844 -0.3978
 2013TIP3   OH227529   3.688   3.291   4.652  0.0327 -0.4360 -0.5529
 2013TIP3    H127530   3.688   3.227   4.581  0.5638 -0.3789 -0.6071
 2013TIP3    H227531   3.769   3.341   4.640 -0.3406  0.1953 -0.4654
 2014TIP3   OH227532   1.215   3.924  15.562  0.0061 -0.2540 -0.4503
 2014TIP3    H127533   1.251   4.003  15.603 -0.6364  0.2694 -0.8893
 2014TIP3    H227534   1.253   3.923  15.474 -0.3466 -0.1785 -0.6064
 2015TIP3   OH227535   6.351   4.352   0.439  0.8769 -0.2956 -0.5558
 2015TIP3    H127536   6.369   4.376   0.348  1.7965  0.5351 -0.1655
 2015TIP3    H227537   6.270   4.399   0.460  1.6309  0.9440 -0.3950
 2016TIP3   OH227538   5.577   5.835   2.890  0.6024 -0.2837 -0.1202
 2016TIP3    H127539   5.670   5.813   2.884  0.2949 -1.4582 -0.8134
 2016TIP3    H227540   5.535   5.756   2.924 -0.1244  0.2843  0.3217
 2017TIP3   OH227541   4.818   6.537   2.187 -0.3868 -0.0179  0.3301
 2017TIP3    H127542   4.732   6.497   2.201 -0.9385  1.1348  0.2285
 2017TIP3    H227543   4.811   6.582   2.104  0.4286 -0.1923  0.1602
 2018TIP3   OH227544   4.975   6.063  15.557 -0.1347 -0.4250 -0.1251
 2018TIP3    H127545   5.032   6.133  15.526 -2.2369  1.5623  0.3467
 2018TIP3    H227546   4.934   6.028  15.478  0.2578 -0.5305 -0.2811
 2019TIP3   OH227547   2.753   4.119  15.373 -0.0616 -0.0533  0.4228
 2019TIP3    H127548   2.667   4.136  15.334 -0.7197 -1.9512  1.0028
 2019TIP3    H227549   2.750   4.164  15.458 -0.7994 -0.7995  0.8011
 2020TIP3   OH227550   6.724   2.708  14.393  0.5279  0.1025 -0.8249
 2020TIP3    H127551   6.789   2.665  14.337  1.5553  1.0737 -0.3859
 2020TIP3    H227552   6.683   2.637  14.442  0.4299 -0.6384 -1.9631
 2021TIP3   OH227553   1.412   2.936   3.157  0.1375  0.2321 -0.3435
 2021TIP3    H127554   1.422   3.032   3.162 -2.3511  0.5037  0.0900
 2021TIP3    H227555   1.422   2.907   3.248  1.8137 -0.0662 -0.5924
 2022TIP3   OH227556   3.040   4.416  13.632  0.2393  0.2129  0.2096
 2022TIP3    H127557   3.103   4.440  13.564 -0.6196 -0.3874 -0.7926
 2022TIP3    H227558   2.974   4.485  13.628 -0.7565 -0.7851 -0.7847
 2023TIP3   OH227559   4.190   1.211   1.631 -0.4457 -0.3067 -0.0349
 2023TIP3    H127560   4.114   1.200   1.688  0.4999 -0.7898  1.1691
 2023TIP3    H227561   4.254   1.257   1.686 -0.1083  0.7144 -1.2571
 2024TIP3   OH227562   4.622   4.573  10.841 -0.1889 -0.2933  0.2890
 2024TIP3    H127563   4.560   4.645  10.828 -0.3681 -0.1258  1.9407
 2024TIP3    H227564   4.607   4.515  10.767 -0.5633  0.9991 -0.6673
 2025TIP3   OH227565   4.778   1.482   0.991  0.5607 -0.3371  0.9902
 2025TIP3    H127566   4.808   1.557   0.940  1.5464 -2.8670 -2.2843
 2025TIP3    H227567   4.802   1.504   1.082 -0.3131  3.7990  0.3092
 2026TIP3   OH227568   6.795   4.020  11.585  0.5256 -0.0617  0.0357
 2026TIP3    H127569   6.884   4.055  11.588  0.3030  0.5679 -0.5299
 2026TIP3    H227570   6.788   3.982  11.497  1.1840 -2.6936  1.0538
 2027TIP3   OH227571   1.570   1.047  11.302  0.4465 -0.0979 -0.1518
 2027TIP3    H127572   1.576   1.040  11.207  3.2887 -0.8523  0.0315
 2027TIP3    H227573   1.567   1.141  11.319  0.4523  0.0539 -0.9771
 2028TIP3   OH227574   5.341   3.148  15.906 -0.4544  0.7261 -0.6457
 2028TIP3    H127575   5.420   3.200  15.918 -1.5856  2.2135  0.5082
 2028TIP3    H227576   5.357   3.098  15.826  1.4809  1.3109 -0.6450
 2029TIP3   OH227577   1.337   4.130  11.695 -0.2858  0.0217 -0.0208
 2029TIP3    H127578   1.304   4.073  11.625  1.3884  0.7843 -1.4518
 2029TIP3    H227579   1.431   4.137  11.679 -0.0143  0.9454  1.7877
 2030TIP3   OH227580   3.155   3.677  16.446 -0.6840  0.7012  0.0525
 2030TIP3    H127581   3.242   3.651  16.477 -0.3469  2.0936  0.2846
 2030TIP3    H227582   3.134   3.755  16.497 -2.4088 -0.0543  0.5508
 2031TIP3   OH227583   3.128   2.981  13.924  0.1514 -0.1898  0.1496
 2031TIP3    H127584   3.205   3.016  13.879  1.5877 -1.7662  1.2583
 2031TIP3    H227585   3.140   2.886  13.920 -2.4116 -0.4937 -0.7559
 2032TIP3   OH227586   6.324   0.308  11.500 -0.0022 -0.4146  0.6872
 2032TIP3    H127587   6.260   0.377  11.520  2.1196  1.3965  1.5481
 2032TIP3    H227588   6.364   0.336  11.418  1.5521 -0.0799  1.5446
 2033TIP3   OH227589   2.706   0.605   3.237 -0.2495  0.2393 -0.1687
 2033TIP3    H127590   2.651   0.664   3.184  1.9496  2.7260  0.2066
 2033TIP3    H227591   2.753   0.553   3.172 -0.7789  0.2427 -0.5634
 2034TIP3   OH227592   6.598   3.328  16.531 -0.3617  0.3506 -0.5186
 2034TIP3    H127593   6.684   3.287  16.531 -0.4510  0.1471 -1.4704
 2034TIP3    H227594   6.536   3.254  16.537 -0.4731  0.4817 -0.0480
 2035TIP3   OH227595   3.255   3.171  15.432  0.3818  0.0040  0.2538
 2035TIP3    H127596   3.236   3.264  15.422 -0.6687 -0.1594  0.6621
 2035TIP3    H227597   3.339   3.168  15.477 -0.2066  0.7623  1.4314
 2036TIP3   OH227598   5.379   3.253  13.847 -0.0147  0.0332  0.7576
 2036TIP3    H127599   5.376   3.347  13.833 -2.3843 -0.0737  0.3231
 2036TIP3    H227600   5.471   3.233  13.862  0.8765  2.0432 -1.7793
 2037TIP3   OH227601   5.163   6.057   2.855  0.0593 -0.0108  0.1344
 2037TIP3    H127602   5.241   6.079   2.804 -1.1934  1.8280 -1.0605
 2037TIP3    H227603   5.094   6.043   2.789 -0.9931 -0.0263  1.2217
 2038TIP3   OH227604   0.805   2.771  14.239 -0.1782  0.9505  0.3838
 2038TIP3    H127605   0.829   2.680  14.258 -0.1795  1.1285  1.2548
 2038TIP3    H227606   0.795   2.774  14.143  0.5290  0.2143  0.2842
 2039TIP3   OH227607   2.333   2.941  14.906  0.1784 -0.0860  0.0009
 2039TIP3    H127608   2.369   3.021  14.947 -0.7536  1.4365 -2.0783
 2039TIP3    H227609   2.402   2.911  14.848  1.1074 -1.6788  1.8770
 2040TIP3   OH227610   6.759   6.096  14.937 -0.0948  0.3348  0.0044
 2040TIP3    H127611   6.776   6.002  14.938  0.4562  0.4408  0.5404
 2040TIP3    H227612   6.730   6.114  14.847 -1.0148 -0.4898  0.1346
 2041TIP3   OH227613   1.300   6.125  13.146 -0.2812 -0.0527 -0.1798
 2041TIP3    H127614   1.334   6.194  13.090 -0.4351  1.8105  1.9445
 2041TIP3    H227615   1.222   6.163  13.186 -0.7287 -1.6855  0.5328
 2042TIP3   OH227616   1.855   5.159  12.116 -0.7575  0.4672 -0.0016
 2042TIP3    H127617   1.787   5.104  12.153  1.4309 -0.7171  2.4538
 2042TIP3    H227618   1.895   5.202  12.192  1.5070  0.7800 -1.3052
 2043TIP3   OH227619   3.261   5.299   2.932  0.0565  0.1390  0.5131
 2043TIP3    H127620   3.254   5.300   2.837  0.2764 -1.8270  0.4475
 2043TIP3    H227621   3.198   5.232   2.960  1.1272 -0.4402  1.6082
 2044TIP3   OH227622   3.009   2.488   2.950  0.2620 -0.2723 -0.2376
 2044TIP3    H127623   3.084   2.547   2.944 -0.5910  0.7864 -0.5851
 2044TIP3    H227624   2.936   2.544   2.976 -0.1756 -1.4892  1.2532
 2045TIP3   OH227625   5.561   0.311   3.279 -0.6044 -0.2863 -0.1356
 2045TIP3    H127626   5.483   0.271   3.240 -0.5821 -0.4747  0.0074
 2045TIP3    H227627   5.526   0.373   3.344 -0.6497  0.6719 -1.0717
 2046TIP3   OH227628   0.617   4.159  16.771  0.4258 -0.0488  0.2931
 2046TIP3    H127629   0.606   4.101  16.846  2.4707 -0.7685  0.0750
 2046TIP3    H227630   0.593   4.246  16.805 -0.4746 -0.6540  1.2480
 2047TIP3   OH227631   4.200   6.087   0.050 -0.3737 -0.2881 -0.2351
 2047TIP3    H127632   4.244   6.013   0.008  0.8048  1.3986 -2.0511
 2047TIP3    H227633   4.147   6.127  -0.019 -2.9352 -0.8631  1.3481
 2048TIP3   OH227634   3.624   0.975   1.952 -0.0114  0.6456  0.1255
 2048TIP3    H127635   3.538   0.962   1.991  0.1042  0.2247  0.2456
 2048TIP3    H227636   3.607   0.980   1.858  0.2677 -3.8682 -0.2978
 2049TIP3   OH227637   2.392   2.880   2.040 -0.1835 -0.2950  0.0430
 2049TIP3    H127638   2.376   2.786   2.039 -1.7846 -0.0422  0.0421
 2049TIP3    H227639   2.475   2.890   2.085  0.5655 -1.7893 -0.9830
 2050TIP3   OH227640   0.692   0.715   3.935 -0.2960 -0.3078  0.2679
 2050TIP3    H127641   0.677   0.732   4.028  0.7607 -0.8712  0.5490
 2050TIP3    H227642   0.620   0.658   3.909  1.2896 -3.0009  1.6004
 2051TIP3   OH227643   4.256   3.579   6.102  0.4711 -0.4630 -0.1573
 2051TIP3    H127644   4.202   3.656   6.084  0.2047 -1.1264 -2.3682
 2051TIP3    H227645   4.193   3.510   6.122  0.6931 -0.2405  1.3719
 2052TIP3   OH227646   5.640   0.046   4.840 -0.1238 -0.2571  0.1168
 2052TIP3    H127647   5.594   0.112   4.788  0.1630 -1.4955 -1.7639
 2052TIP3    H227648   5.612   0.062   4.930 -1.1539  1.5111 -0.4988
 2053TIP3   OH227649   4.157   5.145  12.060 -0.2367  0.5355  0.1155
 2053TIP3    H127650   4.183   5.094  11.984 -0.3252  1.0136 -0.2426
 2053TIP3    H227651   4.107   5.084  12.114 -0.7478  0.3685 -0.5310
 2054TIP3   OH227652   4.742   1.676  16.287  0.3023  0.3136  0.0314
 2054TIP3    H127653   4.794   1.646  16.362  1.1859  0.9294 -0.3265
 2054TIP3    H227654   4.805   1.685  16.216 -0.7297 -1.4675 -1.1520
 2055TIP3   OH227655   1.969   2.639   3.596 -0.0900 -0.3807  0.1170
 2055TIP3    H127656   1.906   2.708   3.571  0.3946 -0.0989 -0.3282
 2055TIP3    H227657   1.917   2.577   3.647 -0.4968  0.4054  0.6765
 2056TIP3   OH227658   5.480   1.482   5.931 -0.0920  0.2745  0.2697
 2056TIP3    H127659   5.566   1.499   5.893  0.2896 -0.6704  0.6934
 2056TIP3    H227660   5.491   1.499   6.025 -0.6100  1.0600  0.1847
 2057TIP3   OH227661   2.073   2.029  14.516  0.4084  0.1947  0.4435
 2057TIP3    H127662   2.024   2.104  14.482  0.8412 -0.1370 -0.9331
 2057TIP3    H227663   2.146   2.018  14.455 -0.4138 -2.2047 -0.1684
 2058TIP3   OH227664   5.421   4.826  13.857 -0.3560 -0.4560 -0.1937
 2058TIP3    H127665   5.491   4.884  13.827  0.5431 -1.3979  0.0648
 2058TIP3    H227666   5.414   4.759  13.789 -0.0372 -1.1587  0.4564
 2059TIP3   OH227667   4.336   1.465  15.511  1.0061 -0.1429 -0.6429
 2059TIP3    H127668   4.322   1.399  15.443  1.1228 -0.4090 -0.4081
 2059TIP3    H227669   4.375   1.539  15.465 -0.7226  0.4340 -1.2318
 2060TIP3   OH227670   3.387   5.136   0.894  0.5677  0.3916 -0.8020
 2060TIP3    H127671   3.296   5.139   0.863  0.2207 -1.9644 -0.1445
 2060TIP3    H227672   3.435   5.094   0.823  0.5095 -1.3486  0.1562
 2061TIP3   OH227673   5.053   2.778  11.916  0.4121 -0.3859 -0.9554
 2061TIP3    H127674   4.991   2.760  11.846  1.3142  0.1645 -1.9239
 2061TIP3    H227675   5.138   2.785  11.871  0.8387  1.0861  0.0263
 2062TIP3   OH227676   6.269   2.846  14.464  0.2819  0.2823  0.0747
 2062TIP3    H127677   6.228   2.902  14.530  0.0855 -1.2690  1.3096
 2062TIP3    H227678   6.360   2.840  14.492  0.4885  0.6355 -0.5132
 2063TIP3   OH227679   0.088   2.078   3.533 -0.6382 -0.2174 -0.0420
 2063TIP3    H127680   0.101   2.005   3.594  0.9633 -0.4201 -0.6046
 2063TIP3    H227681  -0.007   2.091   3.532 -1.0943 -3.1498 -0.9024
 2064TIP3   OH227682   6.107   4.781  16.114 -0.7022 -0.2232 -0.0703
 2064TIP3    H127683   6.083   4.870  16.090  1.3560  0.1494 -0.7890
 2064TIP3    H227684   6.202   4.782  16.120 -0.4547 -2.9050 -2.3767
 2065TIP3   OH227685   1.541   6.513  11.911  0.0719  0.4267 -0.9632
 2065TIP3    H127686   1.616   6.572  11.902 -0.2423  0.9631 -0.0589
 2065TIP3    H227687   1.563   6.438  11.856  1.3733  0.4921 -0.5428
 2066TIP3   OH227688   2.029   4.876   1.128  0.1760 -0.4650 -0.4152
 2066TIP3    H127689   1.977   4.868   1.048 -0.0085  0.3285 -0.3792
 2066TIP3    H227690   2.119   4.863   1.099 -0.0459 -1.8893 -0.4709
 2067TIP3   OH227691   5.384   4.700   4.822  0.3800 -0.1957 -0.4328
 2067TIP3    H127692   5.416   4.610   4.826  0.4438 -0.1219  1.2063
 2067TIP3    H227693   5.460   4.751   4.794  0.2833 -0.6755 -1.5799
 2068TIP3   OH227694   5.720   4.420  13.414  0.4263  0.2837 -0.2943
 2068TIP3    H127695   5.739   4.398  13.323  2.3157 -0.4770  0.2522
 2068TIP3    H227696   5.638   4.374  13.433  1.1856 -1.3925 -0.9543
 2069TIP3   OH227697   2.643   2.568  13.131 -0.0413 -0.8200  0.1279
 2069TIP3    H127698   2.635   2.649  13.180  1.5686  0.6923 -2.0378
 2069TIP3    H227699   2.586   2.506  13.177 -1.3210  1.5307  1.7748
 2070TIP3   OH227700   6.674   2.360   2.593 -0.1189  0.1722  0.0866
 2070TIP3    H127701   6.593   2.318   2.623  0.1615  0.3689  1.1562
 2070TIP3    H227702   6.669   2.450   2.625  0.8384 -0.0114  0.7884
 2071TIP3   OH227703   2.747   0.945   2.410  0.3498 -0.2314  0.0007
 2071TIP3    H127704   2.761   1.025   2.359  0.5488 -0.3832 -0.1825
 2071TIP3    H227705   2.682   0.970   2.476 -1.2410 -0.5210 -1.4413
 2072TIP3   OH227706   3.748   0.367   0.600  0.6589  0.3159 -0.2586
 2072TIP3    H127707   3.660   0.377   0.635  1.2932 -2.2994  2.3227
 2072TIP3    H227708   3.785   0.455   0.598 -1.4107  1.2059  0.2760
 2073TIP3   OH227709   4.151   3.197   5.216  0.9218 -0.2833  0.6471
 2073TIP3    H127710   4.066   3.240   5.213  0.8350 -0.4366  0.9245
 2073TIP3    H227711   4.187   3.210   5.128  0.5529 -0.3377  0.4852
 2074TIP3   OH227712   4.598   0.305  16.293  0.0488 -0.3685 -0.3735
 2074TIP3    H127713   4.507   0.286  16.316  0.2106 -2.4295 -1.3039
 2074TIP3    H227714   4.594   0.340  16.204  0.1919 -1.1499 -0.7009
 2075TIP3   OH227715   2.330   2.352   4.773  0.5004  0.2371 -0.1616
 2075TIP3    H127716   2.346   2.446   4.760  0.1550  1.0949  4.6447
 2075TIP3    H227717   2.239   2.340   4.747  1.1407  0.7196 -2.8170
 2076TIP3   OH227718   1.116   1.421  11.000  0.2557  0.0075 -0.4123
 2076TIP3    H127719   1.108   1.356  10.931  1.0986 -0.5085 -0.0239
 2076TIP3    H227720   1.074   1.500  10.964  1.0401 -0.1386 -1.6487
 2077TIP3   OH227721   4.261   5.646  15.992  0.5455  0.1272  0.0339
 2077TIP3    H127722   4.289   5.640  16.083 -1.5258 -0.3352  0.6598
 2077TIP3    H227723   4.246   5.555  15.966  0.8375  0.2815 -0.6877
 2078TIP3   OH227724   1.008   0.482   4.084 -0.1452 -0.0660  0.1645
 2078TIP3    H127725   1.097   0.502   4.112 -0.3164 -0.0221  0.6869
 2078TIP3    H227726   0.961   0.565   4.093  0.1776  0.3575 -1.8048
 2079TIP3   OH227727   6.029   3.451   4.968 -0.0053 -0.1417 -0.3316
 2079TIP3    H127728   6.059   3.360   4.970 -0.1414 -0.2194 -1.5754
 2079TIP3    H227729   6.047   3.481   4.879 -0.1366  0.9963  0.0101
 2080TIP3   OH227730   5.318   1.139   4.628  1.0142 -0.3697  0.0924
 2080TIP3    H127731   5.299   1.221   4.582  0.0374 -0.4322  0.3673
 2080TIP3    H227732   5.379   1.165   4.698  0.0953  0.2733  0.6732
 2081TIP3   OH227733   5.770   1.795   2.920  0.3347  0.4214  0.0567
 2081TIP3    H127734   5.812   1.709   2.927 -0.9454 -0.3031 -1.0679
 2081TIP3    H227735   5.813   1.848   2.988  1.8853 -0.7780  0.0424
 2082TIP3   OH227736   1.747   0.867   3.928  0.4222 -0.2610  0.0910
 2082TIP3    H127737   1.810   0.844   3.860  1.4850 -1.7808  1.5748
 2082TIP3    H227738   1.798   0.873   4.008 -1.2907 -1.3291  1.2987
 2083TIP3   OH227739   5.628   0.203  13.006  0.0427  0.2118  0.0097
 2083TIP3    H127740   5.656   0.277  13.059 -1.2576  0.3903  0.4430
 2083TIP3    H227741   5.533   0.204  13.010 -0.0398 -0.3982 -1.4745
 2084TIP3   OH227742   0.586   0.446  15.284  0.0908 -0.4814 -0.1872
 2084TIP3    H127743   0.528   0.473  15.213 -0.0125 -0.4909 -0.1069
 2084TIP3    H227744   0.547   0.484  15.363  1.7097  1.8564 -0.4667
 2085TIP3   OH227745   0.514   4.149   1.851  0.0612 -0.5366 -0.3992
 2085TIP3    H127746   0.470   4.136   1.768 -1.2654  0.5558  0.1231
 2085TIP3    H227747   0.596   4.194   1.829  1.5483 -3.6395 -1.5028
 2086TIP3   OH227748   2.852   1.520  13.222 -0.2052 -0.3019 -0.0987
 2086TIP3    H127749   2.760   1.495  13.235 -0.0030 -1.2294 -0.4626
 2086TIP3    H227750   2.848   1.593  13.160 -0.7544  0.2538  0.5740
 2087TIP3   OH227751   0.906   5.378  14.819 -0.1236  0.3389  0.0418
 2087TIP3    H127752   0.976   5.443  14.822 -0.6824  0.9728 -0.4706
 2087TIP3    H227753   0.843   5.413  14.756 -0.7925 -0.3370  0.3224
 2088TIP3   OH227754   3.237   6.115  11.374  0.8591  0.1109  0.0217
 2088TIP3    H127755   3.260   6.206  11.394  0.8391  0.1691 -0.2192
 2088TIP3    H227756   3.174   6.121  11.302  1.8429 -0.1481 -0.8773
 2089TIP3   OH227757   6.648   2.728  15.352 -0.1497 -0.4065  0.1971
 2089TIP3    H127758   6.671   2.811  15.309 -1.4909  1.4235  2.8348
 2089TIP3    H227759   6.556   2.738  15.375 -0.2277 -2.5150  0.9090
 2090TIP3   OH227760   0.404   1.157  13.840  0.7630  0.2694 -0.2296
 2090TIP3    H127761   0.438   1.246  13.851  1.4443 -0.2259  1.7600
 2090TIP3    H227762   0.334   1.167  13.776  1.3430  2.1155 -0.6262
 2091TIP3   OH227763   2.633   0.831   5.366 -0.0644  0.3217  0.1188
 2091TIP3    H127764   2.561   0.768   5.371 -0.5133  0.9647  2.2764
 2091TIP3    H227765   2.599   0.910   5.407  1.3033  1.2066 -0.4081
 2092TIP3   OH227766   5.066   0.608  13.281 -0.0607 -0.2103 -0.4313
 2092TIP3    H127767   5.137   0.625  13.343 -0.8261 -0.5825  0.5631
 2092TIP3    H227768   4.996   0.667  13.309  0.3525  1.2053 -2.2873
 2093TIP3   OH227769   4.921   3.336  15.069  0.0438  0.5692  0.0638
 2093TIP3    H127770   4.906   3.242  15.066 -1.1934  0.7890 -1.0890
 2093TIP3    H227771   4.886   3.363  15.154 -0.2562  0.0980  0.0898
 2094TIP3   OH227772   6.066   1.910  14.527 -0.4790 -0.0728 -0.1732
 2094TIP3    H127773   6.103   1.895  14.440  0.0198 -0.5675  0.1233
 2094TIP3    H227774   5.972   1.905  14.514 -0.3693 -1.5198 -0.4316
 2095TIP3   OH227775   1.611   1.850  11.626  0.1915  0.1339  0.0953
 2095TIP3    H127776   1.659   1.906  11.565 -0.2582 -0.2273 -0.5912
 2095TIP3    H227777   1.587   1.909  11.698  0.3382  0.6623 -0.2859
 2096TIP3   OH227778   0.483   1.792  14.634 -0.6329  0.2048 -0.1294
 2096TIP3    H127779   0.573   1.759  14.626 -1.1234 -0.8299 -1.5924
 2096TIP3    H227780   0.493   1.883  14.661  0.8618  0.1956 -0.6148
 2097TIP3   OH227781   4.438   3.512   5.906  0.7882  0.0497 -0.0407
 2097TIP3    H127782   4.394   3.546   5.984  1.3996  0.3336  0.1818
 2097TIP3    H227783   4.502   3.450   5.939  0.5227 -0.4088 -0.3725
 2098TIP3   OH227784   5.398   5.450  13.267  0.0007  0.2156  0.3197
 2098TIP3    H127785   5.347   5.496  13.333 -0.2776  0.8913 -0.3655
 2098TIP3    H227786   5.333   5.409  13.210  0.1765  2.2049 -1.3540
 2099TIP3   OH227787   2.564   1.774  15.493  0.6223 -0.0707 -0.0864
 2099TIP3    H127788   2.477   1.787  15.532  0.4148 -0.7539 -0.3068
 2099TIP3    H227789   2.623   1.769  15.567 -0.1119 -4.0510  0.3612
 2100TIP3   OH227790   4.306   2.352  10.970 -0.1111  0.3037  0.0480
 2100TIP3    H127791   4.336   2.325  10.883  1.7451 -0.9569  1.0403
 2100TIP3    H227792   4.225   2.303  10.984 -0.0767  0.0297 -0.7093
 2101TIP3   OH227793   6.600   3.497   0.918 -0.0346  0.7575 -0.8867
 2101TIP3    H127794   6.634   3.411   0.893  0.7637  0.9519 -0.4850
 2101TIP3    H227795   6.675   3.543   0.956 -0.8723  0.9959  0.5229
 2102TIP3   OH227796   0.248   1.515   2.769 -0.0745  0.6491 -0.4866
 2102TIP3    H127797   0.288   1.541   2.686  0.8598 -0.7216 -0.4905
 2102TIP3    H227798   0.157   1.497   2.748 -0.0688  1.2343 -1.0154
 2103TIP3   OH227799   6.042   6.800   5.674  0.1112 -0.5012  0.2557
 2103TIP3    H127800   6.056   6.824   5.582 -0.4850  0.5592  0.4281
 2103TIP3    H227801   5.969   6.739   5.672  2.2066 -3.0492 -0.2751
 2104TIP3   OH227802   0.768   6.553   3.454  0.2482 -0.0494 -0.3382
 2104TIP3    H127803   0.860   6.531   3.437  0.0844 -1.6903  0.7326
 2104TIP3    H227804   0.755   6.532   3.546 -0.9788  1.0161 -0.2514
 2105TIP3   OH227805   2.526   3.816  16.336  0.8911 -0.6208  0.3858
 2105TIP3    H127806   2.446   3.765  16.342  1.5720 -1.8461 -0.7558
 2105TIP3    H227807   2.511   3.891  16.394 -0.8530 -1.1205  0.6057
 2106TIP3   OH227808   1.800   5.436   4.319 -0.1441 -0.7273 -0.7375
 2106TIP3    H127809   1.715   5.391   4.319 -0.2051 -0.6422 -2.4595
 2106TIP3    H227810   1.779   5.526   4.343 -0.4875 -0.7871 -0.8025
 2107TIP3   OH227811   1.861   6.169   4.218  0.5929  0.4262  0.2864
 2107TIP3    H127812   1.916   6.177   4.141 -0.0678  0.1932 -0.2125
 2107TIP3    H227813   1.774   6.196   4.188  0.6615  1.8693  1.3335
 2108TIP3   OH227814   4.378   3.750   2.051  0.0732 -0.2564 -0.4553
 2108TIP3    H127815   4.462   3.709   2.031  0.2739 -0.1576  0.1636
 2108TIP3    H227816   4.314   3.679   2.047  0.3210 -0.5007 -0.0566
 2109TIP3   OH227817   5.773   3.941   2.804 -0.2562 -0.6776 -0.5364
 2109TIP3    H127818   5.803   3.908   2.889  1.8187 -1.5463 -1.5580
 2109TIP3    H227819   5.773   3.864   2.748 -0.9853  0.0091 -1.4888
 2110TIP3   OH227820   0.821   0.974  13.977  0.1275 -0.1364 -0.1052
 2110TIP3    H127821   0.810   0.901  14.039  0.3198  0.4771  0.6569
 2110TIP3    H227822   0.906   0.959  13.937  0.5891  0.1883  0.7462
 2111TIP3   OH227823   4.105   5.925   1.406 -0.3956  0.2654  0.6031
 2111TIP3    H127824   4.106   5.843   1.358 -1.2831  0.7297 -0.2276
 2111TIP3    H227825   4.190   5.928   1.451  0.3865 -0.2392 -0.8053
 2112TIP3   OH227826   1.322   3.844   6.539 -0.2678 -0.0929 -0.0288
 2112TIP3    H127827   1.359   3.778   6.480  0.4771 -1.2586  1.6919
 2112TIP3    H227828   1.232   3.814   6.555  0.2667 -1.0280  1.2336
 2113TIP3   OH227829   1.769   6.655  11.899  0.7672  0.2313 -0.0582
 2113TIP3    H127830   1.775   6.697  11.813  0.1612 -0.1134 -0.2686
 2113TIP3    H227831   1.858   6.626  11.917  1.0155  0.8093 -0.3130
 2114TIP3   OH227832   2.337   0.470  12.982  0.5704 -0.5623 -0.2460
 2114TIP3    H127833   2.335   0.474  13.078  1.2712 -1.7674 -0.1677
 2114TIP3    H227834   2.422   0.433  12.962 -0.2900 -2.0332 -1.2639
 2115TIP3   OH227835   3.532   4.521   5.446  0.6162  0.1671 -0.0134
 2115TIP3    H127836   3.617   4.562   5.456  0.6137 -0.6645  4.0397
 2115TIP3    H227837   3.474   4.592   5.418  1.6523  1.8645  2.0108
 2116TIP3   OH227838   0.584   0.441  15.925 -0.5370  0.3633 -0.3340
 2116TIP3    H127839   0.556   0.469  16.013  1.0045  0.9696 -0.0321
 2116TIP3    H227840   0.622   0.355  15.939 -1.8611 -0.3025 -0.6945
 2117TIP3   OH227841   0.358   0.601   3.558  0.4841  0.1119  0.3017
 2117TIP3    H127842   0.434   0.647   3.524  1.1124 -0.7577  0.5364
 2117TIP3    H227843   0.285   0.631   3.502  1.3134 -0.4870 -1.1190
 2118TIP3   OH227844   2.716   2.017   0.496 -0.4165  0.6368  0.1336
 2118TIP3    H127845   2.708   2.109   0.473 -2.7098  0.4065 -0.0454
 2118TIP3    H227846   2.780   1.982   0.433  0.3389  2.0464  0.1016
 2119TIP3   OH227847   6.631   3.435  14.968  0.3426 -0.8364  0.3205
 2119TIP3    H127848   6.597   3.520  14.997  1.1797 -1.0092  1.8433
 2119TIP3    H227849   6.565   3.403  14.907 -0.1190  0.7858 -0.0686
 2120TIP3   OH227850   3.702   1.773   5.192  0.6773  0.1993 -0.1378
 2120TIP3    H127851   3.658   1.743   5.112  0.3893  1.1990 -0.3608
 2120TIP3    H227852   3.681   1.705   5.257 -1.5769  0.8537 -0.1200
 2121TIP3   OH227853   3.910   1.974  13.880  0.1945 -0.2710  0.1404
 2121TIP3    H127854   3.859   2.024  13.944  1.0132 -1.2513  1.5704
 2121TIP3    H227855   3.976   2.036  13.849 -0.5096  0.3552 -0.1493
 2122TIP3   OH227856   1.979   3.223   3.378  0.4847  0.4580  0.2835
 2122TIP3    H127857   2.002   3.161   3.447 -0.9920 -1.0929 -0.5789
 2122TIP3    H227858   2.037   3.202   3.305 -0.1956 -0.1079 -0.1037
 2123TIP3   OH227859   5.007   2.492  16.374  0.2024  0.4793 -0.1387
 2123TIP3    H127860   5.049   2.557  16.431 -0.2198 -0.2284  0.9926
 2123TIP3    H227861   5.001   2.413  16.427  1.8593 -0.8911 -1.9180
 2124TIP3   OH227862   4.512   5.478  15.557  0.0427  0.4176  0.0280
 2124TIP3    H127863   4.600   5.508  15.535 -0.3325  0.5128 -1.3591
 2124TIP3    H227864   4.459   5.558  15.561  0.2195  0.4676  1.8835
 2125TIP3   OH227865   2.638   6.779   5.604  0.4907 -0.0602  0.2553
 2125TIP3    H127866   2.631   6.874   5.607 -1.5274 -0.2091  1.3269
 2125TIP3    H227867   2.707   6.762   5.540  0.6680  2.1076 -0.1742
 2126TIP3   OH227868   2.486   3.415  15.101 -0.0242 -0.2435  0.2975
 2126TIP3    H127869   2.394   3.423  15.125  0.3099  0.6005  1.3398
 2126TIP3    H227870   2.491   3.446  15.011 -0.5239  1.1455  0.7388
 2127TIP3   OH227871   2.143   0.688   2.029  0.1215  0.0176  0.0896
 2127TIP3    H127872   2.215   0.626   2.019  0.6484  0.4736  1.0404
 2127TIP3    H227873   2.094   0.657   2.105 -0.0942  0.2917  0.0662
 2128TIP3   OH227874   5.186   0.670   0.620  0.3504  0.0563  0.3040
 2128TIP3    H127875   5.131   0.733   0.666  1.0032  2.3800 -1.9697
 2128TIP3    H227876   5.135   0.589   0.619 -1.9513  1.4597  0.4327
 2129TIP3   OH227877   1.782   3.650  13.871 -0.2068  0.4518 -0.4408
 2129TIP3    H127878   1.834   3.718  13.915  0.3915 -0.1053 -0.2916
 2129TIP3    H227879   1.774   3.680  13.781  0.9727  0.1938 -0.6396
 2130TIP3   OH227880   6.240   1.303  15.753 -0.0245 -0.3414  0.4133
 2130TIP3    H127881   6.178   1.308  15.825  0.5385 -0.7488  0.9276
 2130TIP3    H227882   6.188   1.274  15.678 -1.1436  2.5490  0.0123
 2131TIP3   OH227883   0.537   5.741   2.201  0.5999  0.0697  0.2862
 2131TIP3    H127884   0.445   5.715   2.208  0.6418  0.1224  1.1635
 2131TIP3    H227885   0.536   5.817   2.143  0.2258 -0.5876 -0.5917
 2132TIP3   OH227886   5.302   1.719   0.973  0.0025 -0.1565  0.0134
 2132TIP3    H127887   5.257   1.755   1.049 -1.1604 -1.1420 -0.2029
 2132TIP3    H227888   5.232   1.686   0.917  0.8113  1.1128 -1.7711
 2133TIP3   OH227889   0.230   3.524   0.150  0.4419 -0.2253  0.4143
 2133TIP3    H127890   0.228   3.483   0.063  1.4659 -0.2987  0.4177
 2133TIP3    H227891   0.252   3.452   0.209 -3.2366 -0.8342  1.1537
 2134TIP3   OH227892   2.238   2.446  16.468  0.2524  0.1002 -0.2585
 2134TIP3    H127893   2.244   2.479  16.378 -1.9949  0.1227 -0.4287
 2134TIP3    H227894   2.306   2.379  16.474  2.7896  2.5438 -0.8825
 2135TIP3   OH227895   3.757   5.073   2.236  0.2764  0.0934 -0.1472
 2135TIP3    H127896   3.829   5.118   2.193  0.2349 -1.7022 -2.1324
 2135TIP3    H227897   3.753   4.987   2.195 -0.9852 -0.9993  2.1353
 2136TIP3   OH227898   2.483   0.355  17.037 -0.6760 -0.0232 -0.1144
 2136TIP3    H127899   2.462   0.271  17.076 -0.4180 -0.6024 -1.2063
 2136TIP3    H227900   2.415   0.414  17.068 -0.9417 -0.6725  0.5296
 2137TIP3   OH227901   6.773   4.614   5.271  0.2797 -0.3683 -0.1994
 2137TIP3    H127902   6.784   4.696   5.320 -0.5092  0.3208 -1.1564
 2137TIP3    H227903   6.835   4.553   5.312 -0.5396  0.1040  1.8151
 2138TIP3   OH227904   4.591   3.285  16.063 -0.5842 -0.1535  0.2740
 2138TIP3    H127905   4.509   3.318  16.025  0.3878  0.8211 -1.0059
 2138TIP3    H227906   4.645   3.363  16.074 -0.4840 -0.5343  2.8331
 2139TIP3   OH227907   4.607   0.016   2.030 -0.2967 -0.3524  0.5494
 2139TIP3    H127908   4.568   0.018   1.943 -1.2988 -1.1383  0.9601
 2139TIP3    H227909   4.656   0.098   2.037 -0.0190 -0.3909 -0.8301
 2140TIP3   OH227910   6.086   4.872  17.062 -0.5218 -0.9760 -0.3151
 2140TIP3    H127911   6.158   4.876  16.999 -0.7188 -1.3836 -0.5716
 2140TIP3    H227912   6.010   4.846  17.009 -0.6458 -1.5385  0.1304
 2141TIP3   OH227913   4.126   1.130   4.355  0.2203  0.3898  0.1970
 2141TIP3    H127914   4.165   1.043   4.348 -0.6836  0.0236 -0.3924
 2141TIP3    H227915   4.187   1.187   4.308  0.7051  0.0433  0.3924
 2142TIP3   OH227916   6.701   2.079   2.412  0.0211  0.2606  0.1932
 2142TIP3    H127917   6.747   1.995   2.399  0.8056  0.9627 -1.8944
 2142TIP3    H227918   6.609   2.059   2.394 -0.1163 -0.5774  1.7395
 2143TIP3   OH227919   6.174   2.819  13.493 -0.2675 -0.3731 -0.3983
 2143TIP3    H127920   6.261   2.779  13.498 -0.1169  0.0797  0.7647
 2143TIP3    H227921   6.155   2.845  13.583 -0.3490  2.2115 -1.1262
 2144TIP3   OH227922   6.816   5.486   1.026  0.1834 -0.7759  0.1431
 2144TIP3    H127923   6.747   5.517   0.967 -0.2002 -0.6630  0.6461
 2144TIP3    H227924   6.893   5.476   0.970  0.2410  0.8095 -0.0993
 2145TIP3   OH227925   1.261   3.679  14.256  0.3617  0.3555 -0.0416
 2145TIP3    H127926   1.203   3.618  14.303 -0.3462  0.3240 -0.9540
 2145TIP3    H227927   1.350   3.648  14.278  0.0341 -0.0476  0.7609
 2146TIP3   OH227928   2.061   0.718  16.399 -0.2439 -0.1353 -0.3000
 2146TIP3    H127929   1.997   0.656  16.365 -1.7935  0.7825  0.8707
 2146TIP3    H227930   2.051   0.713  16.494  1.8363 -0.3946 -0.0697
 2147TIP3   OH227931   1.227   6.703  15.825 -0.5769  0.4091  0.2345
 2147TIP3    H127932   1.256   6.724  15.914  0.8316  1.7388 -0.4977
 2147TIP3    H227933   1.294   6.644  15.792  0.4475  2.1302 -0.8719
 2148TIP3   OH227934   6.589   4.830   6.038 -0.3152 -0.1930 -0.6738
 2148TIP3    H127935   6.608   4.922   6.057 -1.8851 -0.1658  0.9127
 2148TIP3    H227936   6.526   4.833   5.966 -1.8509  0.0661  0.6538
 2149TIP3   OH227937   2.263   2.374  14.340  0.5090  0.1689  0.4532
 2149TIP3    H127938   2.330   2.442  14.334 -0.1056  0.7918  0.5513
 2149TIP3    H227939   2.192   2.405  14.285  0.2573 -0.4428  0.4249
 2150TIP3   OH227940   2.159   3.355   3.907  0.4619 -0.1545 -0.3269
 2150TIP3    H127941   2.243   3.325   3.941  0.4920  0.1406 -0.1311
 2150TIP3    H227942   2.096   3.291   3.938  0.6223 -0.4004 -0.5116
 2151TIP3   OH227943   2.524   1.262  14.094 -0.0377 -0.4731  0.3443
 2151TIP3    H127944   2.506   1.213  14.174  0.3828  0.2100  0.8683
 2151TIP3    H227945   2.561   1.345  14.125  0.6985 -0.4509 -0.5722
 2152TIP3   OH227946   5.202   1.971  14.836 -0.1611 -0.0816  0.3498
 2152TIP3    H127947   5.237   2.059  14.851  1.1923 -0.6821  0.7752
 2152TIP3    H227948   5.111   1.977  14.864  0.0601  1.0560  0.8620
 2153TIP3   OH227949   1.880   0.409   5.374 -0.1297  0.6687 -0.1841
 2153TIP3    H127950   1.954   0.446   5.325  0.4702  0.3332  0.4663
 2153TIP3    H227951   1.906   0.417   5.466  0.1981 -1.7332 -0.0427
 2154TIP3   OH227952   3.442   1.104  14.728  0.1971  0.4173 -0.3953
 2154TIP3    H127953   3.419   1.197  14.719  0.4658  0.6305  0.9173
 2154TIP3    H227954   3.358   1.061  14.747  0.1522  0.4784 -0.4550
 2155TIP3   OH227955   6.439   2.893  17.054 -0.3600  0.1868 -0.0982
 2155TIP3    H127956   6.450   2.971  16.999 -0.1486 -0.7047 -1.3295
 2155TIP3    H227957   6.446   2.820  16.994  3.1467 -0.9532  1.5281
 2156TIP3   OH227958   0.140   3.697   4.084  0.2346 -0.2807 -0.4982
 2156TIP3    H127959   0.077   3.634   4.047 -0.0763 -0.0672 -0.3363
 2156TIP3    H227960   0.101   3.723   4.167  1.3018 -1.3447  0.3498
 2157TIP3   OH227961   3.358   3.912   1.514  0.4581  0.0740  0.5851
 2157TIP3    H127962   3.290   3.848   1.494  1.5314 -0.9673  0.2063
 2157TIP3    H227963   3.394   3.884   1.598  0.5506  0.4987  0.6881
 2158TIP3   OH227964   4.185   3.758   0.244  0.5320  0.1531  0.5149
 2158TIP3    H127965   4.262   3.802   0.280 -0.3897 -0.0288  2.7281
 2158TIP3    H227966   4.145   3.714   0.319 -0.4959 -1.6100 -1.0214
 2159TIP3   OH227967   5.425   0.429  13.163  0.2709  0.1153 -0.0481
 2159TIP3    H127968   5.348   0.441  13.107 -0.1985 -3.5014 -0.3265
 2159TIP3    H227969   5.486   0.497  13.135 -1.5242  0.8996 -2.2007
 2160TIP3   OH227970   5.363   5.027   5.342 -0.1353  0.7693  0.2472
 2160TIP3    H127971   5.445   5.051   5.299 -0.0756  0.6139  0.2737
 2160TIP3    H227972   5.379   4.939   5.376  1.0875  2.2175  3.6977
 2161TIP3   OH227973   0.915   0.400   3.676  0.1524 -0.4219 -0.5511
 2161TIP3    H127974   0.859   0.478   3.682  0.3054 -0.0491 -3.3958
 2161TIP3    H227975   1.003   0.432   3.698 -0.0084 -0.0630 -0.4237
 2162TIP3   OH227976   3.823   4.640   1.917 -0.0669 -0.5534 -0.0570
 2162TIP3    H127977   3.799   4.607   2.004  1.0557 -2.8000 -0.5673
 2162TIP3    H227978   3.917   4.654   1.921 -0.2372  0.7750 -0.4677
 2163TIP3   OH227979   1.307   3.732  16.460  0.1469  0.3844  0.4976
 2163TIP3    H127980   1.324   3.646  16.497 -4.0102 -1.9289 -2.5367
 2163TIP3    H227981   1.377   3.746  16.396  1.1336 -0.5053  1.3858
 2164TIP3   OH227982   3.076   3.558   0.578 -0.3316  0.2395 -0.2538
 2164TIP3    H127983   3.021   3.503   0.634 -0.0525 -0.2020 -0.4061
 2164TIP3    H227984   3.128   3.495   0.528  0.3890  0.6586 -0.0357
 2165TIP3   OH227985   4.944   3.785  13.067 -0.3536  0.0216  0.7007
 2165TIP3    H127986   5.017   3.728  13.043 -0.1163  0.2757  0.8212
 2165TIP3    H227987   4.879   3.726  13.105 -1.0214 -0.5050 -1.1653
 2166TIP3   OH227988   3.090   5.367  12.799  0.0298 -0.0494  0.1731
 2166TIP3    H127989   3.004   5.345  12.837  1.2484 -1.3678  2.2697
 2166TIP3    H227990   3.099   5.307  12.725 -0.4220 -0.6552  0.5940
 2167TIP3   OH227991   2.941   5.057  12.983 -0.0211 -0.0262 -0.2000
 2167TIP3    H127992   2.938   5.098  13.069  1.8015  1.2861 -0.7355
 2167TIP3    H227993   2.906   5.123  12.923  1.7525  0.2910 -0.9025
 2168TIP3   OH227994   3.236   4.910   2.042  0.3630  0.2461  0.0149
 2168TIP3    H127995   3.324   4.915   2.004  1.0256  1.5504  1.6483
 2168TIP3    H227996   3.196   4.994   2.020 -0.4279 -0.2754 -0.5675
 2169TIP3   OH227997   4.621   3.311   2.292 -0.0392  0.1650 -0.0961
 2169TIP3    H127998   4.695   3.314   2.232  0.4233  0.0954  0.4739
 2169TIP3    H227999   4.654   3.266   2.369 -0.1780  1.6713  0.8534
 2170TIP3   OH228000   0.984   0.623  15.888 -0.2557  0.7603 -0.4460
 2170TIP3    H128001   0.916   0.613  15.955 -1.0599 -1.3136 -1.5166
 2170TIP3    H228002   0.938   0.610  15.805  1.1884  0.8210 -1.2780
 2171TIP3   OH228003   6.060   1.767  11.427 -0.3782 -0.4253  0.0495
 2171TIP3    H128004   6.040   1.827  11.355  0.0904  2.1654  1.9769
 2171TIP3    H228005   5.974   1.744  11.463 -0.4735  1.5455  1.1619
 2172TIP3   OH228006   1.944   0.295  12.204  0.1814  0.1625  0.1676
 2172TIP3    H128007   2.033   0.268  12.226 -0.4066 -2.7658 -0.7098
 2172TIP3    H228008   1.905   0.319  12.288  2.3790  3.5207  0.3032
 2173TIP3   OH228009   1.387   1.370   4.431  0.3637 -0.1357 -0.5836
 2173TIP3    H128010   1.378   1.307   4.502 -0.1328  1.1887  0.5634
 2173TIP3    H228011   1.298   1.401   4.414  0.3774 -1.0284 -2.3403
 2174TIP3   OH228012   6.746   4.410  16.630  0.0413  0.0566 -0.5468
 2174TIP3    H128013   6.796   4.378  16.555  1.1802  1.0433 -0.2182
 2174TIP3    H228014   6.803   4.394  16.705 -0.1760  1.1006 -0.1536
 2175TIP3   OH228015   0.038   2.922   4.203 -0.2007  0.5777  0.2032
 2175TIP3    H128016   0.063   2.878   4.284 -0.2056  0.3015  0.0560
 2175TIP3    H228017   0.023   2.850   4.141  0.4420  0.8092 -0.2228
 2176TIP3   OH228018   6.234   4.359  15.328  0.7582 -0.0811 -0.1430
 2176TIP3    H128019   6.200   4.390  15.245  1.0076  0.7128  0.0451
 2176TIP3    H228020   6.314   4.410  15.342  1.4198 -1.1226 -0.0401
 2177TIP3   OH228021   1.829   4.379  15.292 -0.2262 -0.3438 -0.3734
 2177TIP3    H128022   1.894   4.354  15.358 -0.3758 -0.1070 -0.1354
 2177TIP3    H228023   1.868   4.354  15.208 -0.3164 -1.2472 -0.1478
 2178TIP3   OH228024   1.484   2.629  10.772 -0.2228 -0.1213  0.4312
 2178TIP3    H128025   1.449   2.596  10.689  0.9356 -1.3695  0.4164
 2178TIP3    H228026   1.511   2.719  10.753 -0.0981 -0.3531 -0.5207
 2179TIP3   OH228027   2.194   4.664   0.582  0.1055  0.2599 -0.2888
 2179TIP3    H128028   2.110   4.632   0.550  0.1539  0.1140 -0.2702
 2179TIP3    H228029   2.227   4.719   0.511  0.3309 -0.2698 -0.6000
 2180TIP3   OH228030   3.900   6.569  15.414  0.3321 -0.3161  0.0932
 2180TIP3    H128031   3.855   6.583  15.498 -1.6378 -1.1624 -0.7892
 2180TIP3    H228032   3.870   6.483  15.385  0.3984  0.3032 -1.8473
 2181TIP3   OH228033   6.083   3.590  12.763 -0.3086 -0.6380  0.3022
 2181TIP3    H128034   6.132   3.663  12.800  0.2109 -0.3716 -0.9153
 2181TIP3    H228035   6.048   3.544  12.840 -0.0547  0.4692  1.0963
 2182TIP3   OH228036   6.630   4.567  13.369  0.2771 -0.2872 -0.3446
 2182TIP3    H128037   6.677   4.545  13.288  0.3232 -3.6292  0.5563
 2182TIP3    H228038   6.551   4.612  13.338  1.8721  1.4555 -2.0679
 2183TIP3   OH228039   6.333   2.333   2.079  0.2451 -0.3122 -0.2662
 2183TIP3    H128040   6.372   2.250   2.109 -1.8302 -0.6531  1.6524
 2183TIP3    H228041   6.246   2.308   2.050 -0.4337  1.2205  0.4427
 2184TIP3   OH228042   3.815   5.609  13.994 -0.5346  0.2789  0.2030
 2184TIP3    H128043   3.900   5.618  14.038  0.1344  1.0962 -1.2200
 2184TIP3    H228044   3.751   5.642  14.057  0.0703 -1.2947  1.6879
 2185TIP3   OH228045   5.880   3.056  11.539  0.2685  0.5045  0.2183
 2185TIP3    H128046   5.820   3.091  11.474  1.6194 -1.8133 -2.3834
 2185TIP3    H228047   5.967   3.083  11.509  0.9366 -0.8987  0.8541
 2186TIP3   OH228048   1.549   6.422   3.431  0.1026 -0.2770  0.1119
 2186TIP3    H128049   1.553   6.408   3.526  2.1055  0.6774  0.1890
 2186TIP3    H228050   1.502   6.505   3.421  0.5826  0.0200  0.3100
 2187TIP3   OH228051   2.787   5.126   2.177  0.5105 -0.1515 -0.1566
 2187TIP3    H128052   2.712   5.143   2.120  0.3264 -0.9889 -0.1700
 2187TIP3    H228053   2.809   5.034   2.160 -0.0956 -0.6730  1.7773
 2188TIP3   OH228054   2.305   5.070   4.921  0.0427 -0.1426 -0.1675
 2188TIP3    H128055   2.247   5.085   4.996  0.0002 -0.6812 -0.0895
 2188TIP3    H228056   2.393   5.083   4.955 -0.0473  1.1764 -0.4058
 2189TIP3   OH228057   4.259   0.110  15.953  0.2762  0.0758  0.1442
 2189TIP3    H128058   4.260   0.179  15.887 -2.1582 -1.2975 -1.4244
 2189TIP3    H228059   4.345   0.069  15.947  1.3216  2.2245  0.2897
 2190TIP3   OH228060   0.908   3.164   0.562 -0.6666 -1.1235 -0.4211
 2190TIP3    H128061   0.856   3.092   0.595 -1.8867 -0.1011 -0.0753
 2190TIP3    H228062   0.927   3.218   0.639  0.0008 -0.9260 -0.7160
 2191TIP3   OH228063   4.867   5.690  13.738 -0.6704  0.1715 -0.4095
 2191TIP3    H128064   4.902   5.613  13.694 -0.0968 -1.2190  2.3448
 2191TIP3    H228065   4.777   5.696  13.708 -0.8083 -1.7647 -0.4518
 2192TIP3   OH228066   2.262   5.956  15.830  0.0391 -0.1359  0.1937
 2192TIP3    H128067   2.197   6.012  15.872 -1.4652 -0.9800 -0.9521
 2192TIP3    H228068   2.346   5.993  15.857 -0.9001  2.3101 -0.0754
 2193TIP3   OH228069   4.766   6.807  15.597  0.0327  0.0348  0.0329
 2193TIP3    H128070   4.725   6.744  15.537 -2.9107  1.5235  0.3894
 2193TIP3    H228071   4.726   6.789  15.682  2.5816 -0.6027  1.1492
 2194TIP3   OH228072   6.714   3.535  11.712  0.2546  0.2197 -0.5889
 2194TIP3    H128073   6.794   3.564  11.667  0.3446  0.2734 -0.3927
 2194TIP3    H228074   6.743   3.465  11.770  0.1323  0.1281 -0.6384
 2195TIP3   OH228075   0.528   4.414   2.179  0.1075  0.2432 -0.0971
 2195TIP3    H128076   0.563   4.351   2.241 -0.2648  1.7723  1.7340
 2195TIP3    H228077   0.435   4.419   2.201  0.1684  1.5362 -0.1095
 2196TIP3   OH228078   1.893   5.282   2.520  0.2038 -0.4544 -0.3478
 2196TIP3    H128079   1.969   5.224   2.511  0.3882  0.0518 -2.4092
 2196TIP3    H228080   1.928   5.370   2.506 -0.4779 -0.0553  0.4102
 2197TIP3   OH228081   4.897   5.170   3.860  0.1856  0.5609 -0.8290
 2197TIP3    H128082   4.831   5.166   3.790  0.5579 -1.6258 -1.1031
 2197TIP3    H228083   4.847   5.181   3.940 -0.4396  0.0381 -1.1461
 2198TIP3   OH228084   3.750   0.754   2.079  0.5828 -0.1751 -0.0276
 2198TIP3    H128085   3.703   0.816   2.024  0.1032 -0.9091 -0.4459
 2198TIP3    H228086   3.682   0.702   2.121  0.9745 -0.2067  0.5693
 2199TIP3   OH228087   5.005   3.670   4.897 -0.4191 -0.1222  0.0990
 2199TIP3    H128088   5.039   3.666   4.808 -0.5513  1.4965 -0.0349
 2199TIP3    H228089   5.005   3.763   4.919 -0.1795 -0.5144  1.8657
 2200TIP3   OH228090   2.493   2.921  11.707  0.1119  0.3698  0.1975
 2200TIP3    H128091   2.515   2.926  11.800 -0.7799  1.9326  0.3567
 2200TIP3    H228092   2.422   2.985  11.696  0.5542  0.5756 -1.6490
 2201TIP3   OH228093   6.328   2.555  12.877  0.1485 -0.2020 -0.1943
 2201TIP3    H128094   6.385   2.628  12.902 -0.2526 -0.3016  1.0492
 2201TIP3    H228095   6.279   2.535  12.957 -1.0436 -0.6531 -1.0261
 2202TIP3   OH228096   0.039   6.275   3.692 -0.4562 -0.2133 -0.2203
 2202TIP3    H128097   0.018   6.296   3.782  0.6403  1.2192 -0.2879
 2202TIP3    H228098   0.005   6.349   3.641 -1.4539 -1.2124 -1.0423
 2203TIP3   OH228099   2.275   2.721  17.067  0.1828 -0.2789 -0.2647
 2203TIP3    H128100   2.223   2.648  17.034  0.7734 -1.1923  0.7905
 2203TIP3    H228101   2.344   2.680  17.118  0.2863  1.0365  0.6793
 2204TIP3   OH228102   1.620   5.985  14.782 -0.3866  0.5341 -0.6210
 2204TIP3    H128103   1.540   5.944  14.750 -1.5699  1.1792  1.3802
 2204TIP3    H228104   1.684   5.914  14.787 -1.5157 -0.4562 -0.0816
 2205TIP3   OH228105   0.270   5.012  15.569  0.0908 -0.1657 -0.1954
 2205TIP3    H128106   0.314   5.054  15.494 -0.7763 -0.3694 -0.8277
 2205TIP3    H228107   0.342   4.984  15.626  0.8292 -1.2282 -1.6092
 2206TIP3   OH228108   1.458   4.881  17.154 -0.1702 -0.4504  0.1717
 2206TIP3    H128109   1.380   4.926  17.186 -0.3733 -0.5918 -0.1172
 2206TIP3    H228110   1.529   4.911  17.211 -0.2980  0.2647 -0.0353
 2207TIP3   OH228111   5.730   4.181  11.397 -0.4882 -0.6790 -0.1289
 2207TIP3    H128112   5.713   4.202  11.305 -1.1524 -2.9654 -0.5619
 2207TIP3    H228113   5.662   4.119  11.420 -1.2199  0.9881  2.3838
 2208TIP3   OH228114   0.664   4.425  13.159  0.1813 -0.0410  0.3506
 2208TIP3    H128115   0.698   4.506  13.197  1.6549 -0.8229  0.7515
 2208TIP3    H228116   0.666   4.441  13.064 -0.6762  0.8214  0.4685
 2209TIP3   OH228117   1.423   0.611  16.129 -0.3058  0.0949 -1.1268
 2209TIP3    H128118   1.469   0.533  16.158 -1.3703 -0.0549  0.2038
 2209TIP3    H228119   1.330   0.587  16.131 -0.7872  1.9561  1.1432
 2210TIP3   OH228120   3.533   3.489  13.484  0.2007 -0.3032 -0.6128
 2210TIP3    H128121   3.590   3.420  13.518 -1.1103 -1.0163  0.1881
 2210TIP3    H228122   3.463   3.442  13.439 -0.4611  0.5294 -0.4551
 2211TIP3   OH228123   3.896   0.581  14.702  0.0949  0.0998 -0.4763
 2211TIP3    H128124   3.902   0.642  14.630  2.3682  0.2146 -0.2238
 2211TIP3    H228125   3.887   0.495  14.661 -1.0829  0.4064 -0.8552
 2212TIP3   OH228126   0.294   4.421  12.216  0.3530  0.4159  0.8253
 2212TIP3    H128127   0.247   4.483  12.272  0.6431  0.9938  0.4411
 2212TIP3    H228128   0.226   4.380  12.163  0.2470  1.0589  0.4551
 2213TIP3   OH228129   3.006   5.166  11.462 -0.8406  0.3597  0.4305
 2213TIP3    H128130   3.055   5.244  11.489  1.0722 -0.5513 -0.2951
 2213TIP3    H228131   2.923   5.172  11.510 -0.1555  2.1050  1.4559
 2214TIP3   OH228132   3.986   0.478   4.683 -0.0396 -0.1794 -0.4260
 2214TIP3    H128133   4.022   0.537   4.618  2.3193  0.1837  1.1504
 2214TIP3    H228134   4.028   0.394   4.665  1.7103  0.2583  1.4623
 2215TIP3   OH228135   0.999   1.097  13.633 -0.1621 -0.5280 -0.4978
 2215TIP3    H128136   1.065   1.047  13.584  0.2982  0.5204 -0.9694
 2215TIP3    H228137   0.941   1.030  13.669  2.2625 -1.6462  1.5640
 2216TIP3   OH228138   0.511   5.496   3.558  0.2524  0.4778 -0.1011
 2216TIP3    H128139   0.547   5.410   3.579  0.5345  0.5765 -0.1782
 2216TIP3    H228140   0.416   5.485   3.565  0.2876  0.1529 -0.1479
 2217TIP3   OH228141   1.502   4.310   1.286 -0.5396 -0.3804 -0.4426
 2217TIP3    H128142   1.544   4.355   1.359  1.3018 -0.9720 -1.1245
 2217TIP3    H228143   1.524   4.218   1.297 -0.7379 -0.5584 -1.4194
 2218TIP3   OH228144   3.000   2.202   2.904  0.9791  0.4264 -0.1739
 2218TIP3    H128145   3.004   2.294   2.928 -0.3253  1.3375 -3.1757
 2218TIP3    H228146   3.077   2.162   2.946  2.1341  3.0653  0.3019
 2219TIP3   OH228147   3.262   3.271   2.144  0.6719  0.1848 -0.1789
 2219TIP3    H128148   3.277   3.333   2.073  1.0701 -0.0459 -0.2993
 2219TIP3    H228149   3.175   3.293   2.178  0.0995 -0.2737 -1.3098
 2220TIP3   OH228150   5.907   5.608   3.380 -0.3079 -0.2254  0.2635
 2220TIP3    H128151   5.910   5.703   3.366 -0.4420 -0.4637 -1.5615
 2220TIP3    H228152   5.816   5.590   3.404 -0.5677 -0.0126 -0.5220
 2221TIP3   OH228153   3.285   4.304  11.808  0.1308  0.1051 -0.4433
 2221TIP3    H128154   3.307   4.372  11.873 -0.8640  1.1785 -1.2104
 2221TIP3    H228155   3.356   4.309  11.744  0.8162 -0.5682  0.2533
 2222TIP3   OH228156   1.401   3.987  13.966 -0.0398 -0.3066 -0.1253
 2222TIP3    H128157   1.422   4.029  13.882  1.4390  1.5200  1.1401
 2222TIP3    H228158   1.481   3.940  13.990 -0.4641 -0.8247  0.3002
 2223TIP3   OH228159   5.798   0.518  17.283  0.0167 -0.2417  0.2304
 2223TIP3    H128160   5.746   0.566  17.219 -0.1105 -1.1523 -0.3587
 2223TIP3    H228161   5.742   0.446  17.311  0.3355 -0.2556  0.8519
 2224TIP3   OH228162   3.090   2.271  15.248 -0.0089  0.0976 -0.1275
 2224TIP3    H128163   3.055   2.256  15.160  0.3345  1.1562 -0.4476
 2224TIP3    H228164   3.183   2.287  15.234  0.6272 -2.6039  0.7091
 2225TIP3   OH228165   4.865   0.985  12.111  0.4498 -0.4251  0.3654
 2225TIP3    H128166   4.829   0.897  12.095  0.9295 -0.5147 -0.2402
 2225TIP3    H228167   4.920   1.002  12.035  0.1418  0.5183  0.3469
 2226TIP3   OH228168   2.957   3.692  13.215 -0.3110 -0.0604 -0.4641
 2226TIP3    H128169   2.907   3.668  13.137 -0.9714 -1.9010  0.5028
 2226TIP3    H228170   2.895   3.744  13.267 -0.3350 -0.0325 -0.5201
 2227TIP3   OH228171   0.896   1.460  12.260  0.5196 -0.0013 -0.3132
 2227TIP3    H128172   0.883   1.377  12.307 -0.7493 -0.0245 -0.6866
 2227TIP3    H228173   0.854   1.526  12.315 -0.5411  0.0441 -1.1574
 2228TIP3   OH228174   5.257   5.418   5.980 -0.1756  0.1401 -0.0268
 2228TIP3    H128175   5.205   5.499   5.978 -0.8586 -0.3109 -1.3438
 2228TIP3    H228176   5.224   5.370   6.056  1.1322  1.6702  1.5362
 2229TIP3   OH228177   3.870   4.801   4.988 -0.3631 -0.2358  0.1138
 2229TIP3    H128178   3.881   4.721   4.938  0.0923  0.5229 -1.0304
 2229TIP3    H228179   3.793   4.786   5.043 -1.5332 -0.6788 -1.6368
 2230TIP3   OH228180   2.983   4.508   3.122  0.1872  0.0974 -0.2267
 2230TIP3    H128181   3.000   4.452   3.197 -0.1102 -1.2719 -1.1746
 2230TIP3    H228182   2.894   4.485   3.094  0.7527 -0.2766 -1.7452
 2231TIP3   OH228183   0.975   5.698  13.860  0.3878 -0.0556  0.9990
 2231TIP3    H128184   0.977   5.750  13.779  1.2165  0.0733  1.0975
 2231TIP3    H228185   0.904   5.736  13.911  1.3882  1.3936  1.3432
 2232TIP3   OH228186   4.691   5.227   1.836  0.1039 -0.4185  0.4441
 2232TIP3    H128187   4.743   5.258   1.909 -0.5446  1.0045  0.3357
 2232TIP3    H228188   4.656   5.307   1.796 -0.3594 -1.2212 -0.8067
 2233TIP3   OH228189   5.536   0.998  15.166 -0.1123 -0.4779 -0.0736
 2233TIP3    H128190   5.567   1.046  15.089 -1.0106  0.6409  0.2538
 2233TIP3    H228191   5.552   1.058  15.240  1.9514 -2.0380  0.8081
 2234TIP3   OH228192   0.826   4.464   4.123  0.3454 -0.0630 -0.0653
 2234TIP3    H128193   0.916   4.454   4.154 -0.3013  1.5685  2.4989
 2234TIP3    H228194   0.815   4.558   4.111 -0.3653 -0.4307 -2.4661
 2235TIP3   OH228195   6.325   0.415  11.965 -0.2320 -0.1618 -0.8268
 2235TIP3    H128196   6.262   0.424  11.893 -0.8962 -1.7334 -0.4573
 2235TIP3    H228197   6.271   0.405  12.043  0.4843  2.5139  0.0529
 2236TIP3   OH228198   5.836   1.648  14.476 -0.4610  0.4775 -0.1418
 2236TIP3    H128199   5.875   1.675  14.392 -2.5352  0.2951 -1.2067
 2236TIP3    H228200   5.803   1.730  14.514  1.2512  0.6789  0.9126
 2237TIP3   OH228201   1.877   4.254  11.714  0.4124 -0.5026 -0.0120
 2237TIP3    H128202   1.956   4.216  11.753  0.7283 -0.2852 -0.4323
 2237TIP3    H228203   1.897   4.260  11.620 -0.0222 -0.2485 -0.0893
 2238TIP3   OH228204   6.327   0.899  17.101 -0.0963  0.2788 -0.2070
 2238TIP3    H128205   6.242   0.936  17.076 -0.2836 -1.2234 -1.9043
 2238TIP3    H228206   6.381   0.909  17.023  0.6398 -0.6461  0.1764
 2239TIP3   OH228207   5.040   1.731   4.899 -0.3794 -0.0910 -0.4033
 2239TIP3    H128208   5.085   1.649   4.879  1.6631  1.0590 -0.6161
 2239TIP3    H228209   4.967   1.705   4.956  1.8329 -1.7629  1.8044
 2240TIP3   OH228210   2.741   5.953   4.437 -0.5705  0.1562 -0.1706
 2240TIP3    H128211   2.832   5.930   4.423 -0.6052 -0.3212  0.3956
 2240TIP3    H228212   2.737   6.048   4.420  0.1434  0.2877  0.4293
 2241TIP3   OH228213   0.639   4.623   2.477  0.3057  0.6035 -0.0221
 2241TIP3    H128214   0.719   4.646   2.525 -0.8038  0.3869  2.0103
 2241TIP3    H228215   0.574   4.685   2.509 -0.3604  0.7519 -1.6359
 2242TIP3   OH228216   4.294   6.186  15.957  0.8613  0.2544 -0.5214
 2242TIP3    H128217   4.386   6.208  15.945  1.1743 -0.6373  0.1691
 2242TIP3    H228218   4.278   6.197  16.050 -0.6292  3.6435 -1.0964
 2243TIP3   OH228219   6.706   1.318   0.692  0.1866 -0.0770 -0.0284
 2243TIP3    H128220   6.699   1.235   0.739 -0.2950  0.8600  1.5867
 2243TIP3    H228221   6.664   1.382   0.750 -0.8972  1.0100 -1.9718
 2244TIP3   OH228222   0.275   5.665   2.221 -0.2638  0.3750  0.2465
 2244TIP3    H128223   0.210   5.671   2.151  0.3601  0.9619 -0.2985
 2244TIP3    H228224   0.226   5.680   2.302 -1.5769 -3.4095  0.2683
 2245TIP3   OH228225   0.528   2.486  17.006  0.0931  0.1946 -0.1530
 2245TIP3    H128226   0.451   2.429  17.004  0.6079 -0.5054 -0.3463
 2245TIP3    H228227   0.548   2.495  17.099  0.6809 -0.8749 -0.1660
 2246TIP3   OH228228   4.676   4.354   4.314  0.3917 -0.0296  0.1453
 2246TIP3    H128229   4.641   4.442   4.307 -0.2640 -0.2109  1.0490
 2246TIP3    H228230   4.766   4.366   4.345  1.0252  0.4153 -1.7814
 2247TIP3   OH228231   5.030   0.972  11.895  0.1681 -0.3618  0.8640
 2247TIP3    H128232   5.107   0.982  11.951 -0.1061 -1.2347  1.4043
 2247TIP3    H228233   5.049   0.894  11.842  0.0185 -0.0821  0.3907
 2248TIP3   OH228234   4.992   0.302   5.947  0.1190 -0.2429 -0.2883
 2248TIP3    H128235   5.061   0.267   6.003  0.7076  0.2847 -0.6770
 2248TIP3    H228236   4.931   0.229   5.936  0.7143 -0.7727 -0.1089
 2249TIP3   OH228237   0.346   2.637   5.226  0.7060 -0.3246  0.9842
 2249TIP3    H128238   0.293   2.559   5.245  0.0702  0.0262  0.6527
 2249TIP3    H228239   0.282   2.707   5.215  1.1398 -0.1901 -0.8467
 2250TIP3   OH228240   6.199   6.508   5.686  0.0304  0.4840 -0.6514
 2250TIP3    H128241   6.229   6.599   5.675 -0.7383  0.5899 -1.9659
 2250TIP3    H228242   6.279   6.456   5.677  0.2739  0.9517 -1.2722
 2251TIP3   OH228243   1.612   5.794   2.010  0.2103  0.4676  0.7296
 2251TIP3    H128244   1.588   5.760   1.924  2.4058  0.4009  0.0911
 2251TIP3    H228245   1.606   5.718   2.069 -0.7282  0.3797  0.5199
 2252TIP3   OH228246   6.552   0.339  14.689  0.1046 -0.3064  0.3382
 2252TIP3    H128247   6.484   0.308  14.628  0.3988 -2.0598  0.8667
 2252TIP3    H228248   6.625   0.364  14.632 -0.4013  0.0908 -0.1456
 2253TIP3   OH228249   1.273   4.213  14.595  0.4309  0.2330  0.1102
 2253TIP3    H128250   1.188   4.174  14.612  0.7469  0.7617  3.2156
 2253TIP3    H228251   1.315   4.154  14.533 -1.9371 -0.3520 -0.9858
 2254TIP3   OH228252   4.678   0.319  11.125  0.0674  0.1325  0.4562
 2254TIP3    H128253   4.683   0.256  11.197  1.1907 -1.5887 -1.0524
 2254TIP3    H228254   4.720   0.398  11.159  3.3838 -1.6499  0.7306
 2255TIP3   OH228255   1.222   5.427   0.675 -0.4619 -0.4930 -0.2041
 2255TIP3    H128256   1.254   5.483   0.746 -0.7876  0.1255 -0.5482
 2255TIP3    H228257   1.218   5.339   0.715  1.1550 -0.4948 -0.0097
 2256TIP3   OH228258   1.831   6.608  16.992  0.5438  0.0462 -0.1672
 2256TIP3    H128259   1.904   6.651  17.035  0.0584  0.8530 -0.1443
 2256TIP3    H228260   1.777   6.679  16.958  1.0346 -0.5579 -2.2980
 2257TIP3   OH228261   5.833   5.008  13.549  0.5370 -0.0931 -0.2546
 2257TIP3    H128262   5.846   5.010  13.454 -0.1891  0.7456 -0.3371
 2257TIP3    H228263   5.768   4.938  13.563  0.9258 -0.4747 -0.3345
 2258TIP3   OH228264   6.180   4.021   1.374  0.0323 -0.1280  0.6968
 2258TIP3    H128265   6.116   3.951   1.383  1.3775 -1.2911  1.4434
 2258TIP3    H228266   6.260   3.985   1.413  0.9578  1.5233  0.3506
 2259TIP3   OH228267   0.272   2.068  17.025 -0.3005 -0.2322  0.7258
 2259TIP3    H128268   0.221   2.034  16.951  0.3093  0.1980  0.0907
 2259TIP3    H228269   0.342   2.004  17.038  1.4470  1.2156 -1.1286
 2260TIP3   OH228270   1.801   4.166  12.834 -0.4821  0.2674 -0.4677
 2260TIP3    H128271   1.724   4.222  12.833  0.7844  2.1489  1.8758
 2260TIP3    H228272   1.860   4.205  12.771  0.1537  1.2627  0.7177
 2261TIP3   OH228273   6.169   0.432  12.189 -0.3260 -0.0536  0.0908
 2261TIP3    H128274   6.114   0.370  12.237  2.0031 -1.4776  1.0052
 2261TIP3    H228275   6.240   0.453  12.249  0.4623  1.2782 -1.2769
 2262TIP3   OH228276   0.451   2.993   5.670 -0.2938 -0.4312  0.6057
 2262TIP3    H128277   0.400   2.912   5.667 -2.6393  0.9426  1.6690
 2262TIP3    H228278   0.412   3.048   5.603 -0.1235  0.5943  1.3292
 2263TIP3   OH228279   2.338   2.450   4.451 -0.0876 -0.1112  0.0768
 2263TIP3    H128280   2.372   2.371   4.492 -0.6285 -0.6853 -0.5650
 2263TIP3    H228281   2.405   2.516   4.466  0.8337 -0.9592 -0.2632
 2264TIP3   OH228282   3.013   0.885  15.728 -0.0696  0.2580  0.4443
 2264TIP3    H128283   3.004   0.790  15.731 -0.8620  0.2835 -0.7626
 2264TIP3    H228284   3.087   0.900  15.670  0.2388  0.3668  0.8695
 2265TIP3   OH228285   4.519   1.383  15.001  0.5544 -0.4363  0.4450
 2265TIP3    H128286   4.537   1.454  14.940 -0.6004  1.2940  2.0674
 2265TIP3    H228287   4.599   1.329  14.999  0.9604  0.1948 -1.7100
 2266TIP3   OH228288   3.271   1.399  15.436  0.0805  0.2031 -0.1384
 2266TIP3    H128289   3.337   1.414  15.504  2.7365 -3.1593 -1.8303
 2266TIP3    H228290   3.284   1.472  15.375  0.6509  0.8032  0.6802
 2267TIP3   OH228291   2.551   5.669  14.670  0.2620 -0.3842  0.5021
 2267TIP3    H128292   2.491   5.633  14.606  1.5122 -1.8189  0.1124
 2267TIP3    H228293   2.562   5.599  14.734  1.5639 -0.1601  0.5304
 2268TIP3   OH228294   2.051   4.627  12.679 -0.1715  0.1184 -0.1589
 2268TIP3    H128295   2.018   4.584  12.599 -1.8518  3.0886 -1.1222
 2268TIP3    H228296   1.979   4.621  12.741  0.4105 -0.4134  0.4738
 2269TIP3   OH228297   1.771   1.749  14.975  0.2895  0.6762  0.5565
 2269TIP3    H128298   1.713   1.821  15.002 -1.7967  0.0424 -2.0679
 2269TIP3    H228299   1.845   1.793  14.934 -1.3823  1.3671 -1.8168
 2270TIP3   OH228300   2.823   3.560   2.785 -0.1044  0.0914  0.3076
 2270TIP3    H128301   2.806   3.601   2.870  2.1120  0.8453  0.4189
 2270TIP3    H228302   2.917   3.572   2.771 -0.4109 -0.1506 -2.1958
 2271TIP3   OH228303   3.222   3.559  15.994 -0.0844  0.0085  0.2112
 2271TIP3    H128304   3.154   3.609  15.949  1.8785  0.8615 -1.8739
 2271TIP3    H228305   3.245   3.614  16.069 -0.1316  0.7485 -0.3131
 2272TIP3   OH228306   4.770   1.745  14.757 -0.0056 -0.5838 -0.4090
 2272TIP3    H128307   4.785   1.832  14.720  0.9203 -0.8164 -0.5858
 2272TIP3    H228308   4.738   1.693  14.683 -0.8644 -0.3214 -0.2311
 2273TIP3   OH228309   1.593   3.935  11.608 -0.3540  0.0303 -0.2923
 2273TIP3    H128310   1.618   4.021  11.575 -1.2592  0.4444  0.1194
 2273TIP3    H228311   1.667   3.879  11.584 -0.1691  0.7171 -1.3895
 2274TIP3   OH228312   4.718   1.418   6.026  0.2758  0.3158 -0.4686
 2274TIP3    H128313   4.664   1.493   6.049  0.3314  0.7501 -1.6914
 2274TIP3    H228314   4.783   1.453   5.965 -1.0510 -1.1062 -2.8011
 2275TIP3   OH228315   4.918   2.655  14.801  0.0216  0.2468  0.4746
 2275TIP3    H128316   4.856   2.728  14.795 -0.8109 -0.4865 -0.0455
 2275TIP3    H228317   4.899   2.615  14.886 -0.0051  0.2130  0.4534
 2276TIP3   OH228318   2.449   5.106  16.279  0.1945 -0.3804  0.0710
 2276TIP3    H128319   2.436   5.138  16.368  1.6261  2.8462 -0.7878
 2276TIP3    H228320   2.380   5.147  16.228  0.5157 -0.7075 -0.6320
 2277TIP3   OH228321   0.475   6.592   0.072  0.1529  0.1667 -0.1736
 2277TIP3    H128322   0.493   6.540  -0.006 -1.2500  2.2035 -1.9086
 2277TIP3    H228323   0.383   6.617   0.064  0.5222  2.0746  1.1265
 2278TIP3   OH228324   0.341   6.411   1.612  0.3969  0.5602  0.1171
 2278TIP3    H128325   0.408   6.346   1.589  0.8190  0.8714  0.4472
 2278TIP3    H228326   0.309   6.443   1.528 -1.9104 -2.1739 -0.1106
 2279TIP3   OH228327   2.826   2.864  14.267 -0.0550 -0.0582  0.0152
 2279TIP3    H128328   2.774   2.830  14.194 -0.5490  3.8991 -1.5799
 2279TIP3    H228329   2.909   2.890  14.228  0.4315  0.2433  1.2197
 2280TIP3   OH228330   5.771   0.486  15.774  0.3328 -0.5499  0.5285
 2280TIP3    H128331   5.763   0.506  15.868  0.8041 -0.1045  0.4727
 2280TIP3    H228332   5.864   0.468  15.761  0.3310 -0.2366  0.0703
 2281TIP3   OH228333   3.755   2.896   1.540 -0.0408 -1.0492 -0.2143
 2281TIP3    H128334   3.765   2.902   1.445 -1.9422  0.0767 -0.3779
 2281TIP3    H228335   3.664   2.867   1.552  0.8065 -3.1530  1.2215
 2282TIP3   OH228336   5.041   0.863  13.134  0.7063 -0.4530 -0.1394
 2282TIP3    H128337   5.110   0.804  13.103  2.3470  1.6032 -0.4683
 2282TIP3    H228338   5.080   0.950  13.133 -1.8381  0.7588 -0.1379
 2283TIP3   OH228339   3.246   4.557  10.635  0.4912 -0.4285  0.3663
 2283TIP3    H128340   3.311   4.518  10.576  1.2260  2.6966 -0.9460
 2283TIP3    H228341   3.296   4.616  10.691 -1.1314  1.5526 -0.2388
 2284TIP3   OH228342   5.139   0.601   0.067  0.4583  0.2756  0.5236
 2284TIP3    H128343   5.091   0.519   0.072  1.2902 -0.2726 -0.2739
 2284TIP3    H228344   5.162   0.622   0.157 -1.3585  0.6076  0.9364
 2285TIP3   OH228345   4.556   2.053  17.070  0.2838  0.4258 -0.0540
 2285TIP3    H128346   4.532   2.057  16.977 -1.6252 -0.3323  0.3940
 2285TIP3    H228347   4.642   2.011  17.070 -0.4441 -1.1410 -1.3730
 2286TIP3   OH228348   5.061   4.022   1.016  0.4314  0.0345  0.6872
 2286TIP3    H128349   5.129   3.974   1.063  1.4837  0.1579 -0.6749
 2286TIP3    H228350   5.076   4.000   0.924 -0.8699  0.7124  0.3017
 2287TIP3   OH228351   3.249   0.258   1.446  0.1284 -0.0609 -0.5761
 2287TIP3    H128352   3.186   0.303   1.502  0.8563 -0.2082  0.3720
 2287TIP3    H228353   3.281   0.326   1.387  0.2637  0.3701 -0.0100
 2288TIP3   OH228354   1.627   3.410  14.069  0.0993 -0.2464  0.7127
 2288TIP3    H128355   1.655   3.450  13.987 -2.4233 -1.7292 -0.9307
 2288TIP3    H228356   1.673   3.325  14.071 -0.1386 -0.3759  0.6557
 2289TIP3   OH228357   2.110   2.661  15.258  0.2506 -0.0878  0.1507
 2289TIP3    H128358   2.060   2.740  15.238 -0.8491 -0.4699  1.2800
 2289TIP3    H228359   2.200   2.691  15.269 -0.1315  0.9860  0.3496
 2290TIP3   OH228360   0.021   6.606   5.465  0.1785  0.6412 -1.1394
 2290TIP3    H128361  -0.039   6.652   5.406  0.5800  0.2701 -1.8456
 2290TIP3    H228362   0.031   6.665   5.540 -1.3143  0.5591 -0.8713
 2291TIP3   OH228363   2.338   3.864   4.228 -0.0255 -0.2235 -0.3789
 2291TIP3    H128364   2.330   3.873   4.133  0.4123 -0.1922 -0.4144
 2291TIP3    H228365   2.429   3.836   4.242  0.6302  2.1215  0.1826
 2292TIP3   OH228366   2.443   6.629   4.485 -0.0394  0.2793 -0.0562
 2292TIP3    H128367   2.522   6.576   4.501 -1.1366 -1.2343  0.4848
 2292TIP3    H228368   2.468   6.718   4.511  1.4098 -0.2353  0.3509
 2293TIP3   OH228369   2.734   1.230   0.551 -0.5626 -0.0255  0.0558
 2293TIP3    H128370   2.719   1.262   0.462  0.7199  2.4656  0.6825
 2293TIP3    H228371   2.822   1.193   0.548 -0.0724  1.0930  0.5559
 2294TIP3   OH228372   2.818   3.397  12.989  0.0653  0.1907 -0.8065
 2294TIP3    H128373   2.766   3.362  13.061  0.7441 -0.0056 -0.4084
 2294TIP3    H228374   2.778   3.361  12.910 -0.7913  0.5501 -0.5370
 2295TIP3   OH228375   1.666   0.902   1.453  0.0419 -0.0024 -0.2193
 2295TIP3    H128376   1.657   0.824   1.509  0.5233 -1.9809 -2.7867
 2295TIP3    H228377   1.606   0.885   1.380  0.8875  1.5795 -1.2981
 2296TIP3   OH228378   5.213   4.671  16.753  0.8150  0.0114  0.1190
 2296TIP3    H128379   5.133   4.622  16.734  1.0447 -1.5058  2.8665
 2296TIP3    H228380   5.245   4.699  16.667 -3.3373  1.7959 -0.9505
 2297TIP3   OH228381   3.899   1.649   2.264  0.0845 -0.0888  0.0774
 2297TIP3    H128382   3.923   1.562   2.230  0.6274 -0.1622  0.6370
 2297TIP3    H228383   3.867   1.697   2.188 -1.2374 -1.1328 -0.0599
 2298TIP3   OH228384   5.291   1.396  15.706 -0.0288  0.3749  0.5777
 2298TIP3    H128385   5.286   1.439  15.792  1.0818  1.0934  0.3003
 2298TIP3    H228386   5.202   1.399  15.673 -0.7499 -1.1111  2.2744
 2299TIP3   OH228387   3.881   6.636   6.220 -0.7357 -0.3340 -0.0959
 2299TIP3    H128388   3.943   6.680   6.278 -0.8618  0.2352 -0.3842
 2299TIP3    H228389   3.821   6.591   6.279 -0.4286 -0.3580  0.1980
 2300TIP3   OH228390   1.059   2.593   1.859 -0.4632 -0.0698  0.5607
 2300TIP3    H128391   1.023   2.668   1.908 -0.1562  0.4513 -0.0072
 2300TIP3    H228392   1.050   2.618   1.767 -0.6342 -0.8645  0.3599
 2301TIP3   OH228393   3.046   0.450   5.893  1.0125  0.2948  0.4022
 2301TIP3    H128394   3.070   0.393   5.820 -0.1000  0.0705  0.2020
 2301TIP3    H228395   3.084   0.406   5.970  0.4320 -0.5669  0.2102
 2302TIP3   OH228396   1.289   1.087  12.659  0.0499 -0.6117 -0.3093
 2302TIP3    H128397   1.253   1.031  12.591  1.4977 -2.5586  0.4767
 2302TIP3    H228398   1.350   1.144  12.612  0.3984 -1.3599 -0.7872
 2303TIP3   OH228399   5.431   6.705  13.547 -0.1850 -0.1038  0.7594
 2303TIP3    H128400   5.382   6.637  13.594 -1.3415  2.5461  3.6255
 2303TIP3    H228401   5.522   6.680  13.556 -0.5099 -0.5945  2.9823
 2304TIP3   OH228402   2.949   3.987   2.275  0.1518 -0.1495  0.2343
 2304TIP3    H128403   2.879   3.943   2.226  0.8864 -0.5261 -0.4986
 2304TIP3    H228404   2.903   4.037   2.343 -0.6874 -2.2817  1.2927
 2305TIP3   OH228405   5.431   5.764   6.548  0.4667 -0.2912  0.2838
 2305TIP3    H128406   5.433   5.836   6.612  3.2861  0.8278 -0.9981
 2305TIP3    H228407   5.460   5.687   6.598 -0.9463 -0.2281  1.2425
 2306TIP3   OH228408   0.657   2.655  16.013 -0.1922 -0.4245 -0.2709
 2306TIP3    H128409   0.588   2.594  16.041  0.0601 -1.1624 -1.2197
 2306TIP3    H228410   0.620   2.699  15.937 -0.3220  0.5345  0.3335
 2307TIP3   OH228411   1.913   3.876  12.811  0.0960 -0.4623 -0.2417
 2307TIP3    H128412   1.988   3.897  12.755  1.0694 -0.0542  1.1744
 2307TIP3    H228413   1.887   3.960  12.850  0.8151 -1.0389  1.5621
 2308TIP3   OH228414   6.790   5.290  17.069  0.3760  0.5261 -0.2200
 2308TIP3    H128415   6.740   5.296  16.988  0.1152  0.6702 -0.0508
 2308TIP3    H228416   6.784   5.198  17.095  1.8408  0.1268 -1.2328
 2309TIP3   OH228417   1.855   2.704   5.221 -0.0454  0.0826 -0.0456
 2309TIP3    H128418   1.917   2.634   5.239  0.2699 -0.0084 -1.4764
 2309TIP3    H228419   1.832   2.694   5.129  0.1609  1.9828 -0.3285
 2310TIP3   OH228420   4.204   6.351   0.297 -0.0606 -0.2842 -0.5772
 2310TIP3    H128421   4.142   6.409   0.252  1.2913 -0.1224 -2.2908
 2310TIP3    H228422   4.258   6.410   0.350  0.4310 -0.1241 -1.2547
 2311TIP3   OH228423   5.218   0.948   0.980 -0.1603 -0.0406  0.0431
 2311TIP3    H128424   5.293   0.907   1.022  0.2618  1.7029  1.0110
 2311TIP3    H228425   5.232   1.042   0.990 -0.6382  0.4271 -2.9367
 2312TIP3   OH228426   5.635   0.751   0.120  0.7471  0.6957  0.4337
 2312TIP3    H128427   5.634   0.711   0.033 -0.9306 -0.9561  1.1761
 2312TIP3    H228428   5.579   0.828   0.112 -1.2363 -0.6931  0.5737
 2313TIP3   OH228429   1.249   1.516  16.742  0.4937 -0.1572  0.6347
 2313TIP3    H128430   1.154   1.522  16.754  0.2189 -0.4799 -1.1591
 2313TIP3    H228431   1.265   1.561  16.659  1.6383 -1.8350 -0.0905
 2314TIP3   OH228432   1.624   3.188  15.210  0.4344  0.0647  0.6202
 2314TIP3    H128433   1.610   3.100  15.244  2.2568 -0.0497  1.1221
 2314TIP3    H228434   1.560   3.197  15.140  1.2470 -2.2328 -0.4784
 2315TIP3   OH228435   5.303   4.905   4.520 -0.1975 -0.1012  0.3989
 2315TIP3    H128436   5.240   4.880   4.588 -2.0913 -1.3014 -1.6946
 2315TIP3    H228437   5.345   4.822   4.496 -1.1073 -0.0737 -1.3668
 2316TIP3   OH228438   3.642   4.443   1.810 -0.1210 -0.0185 -0.1249
 2316TIP3    H128439   3.602   4.408   1.890 -1.9982  1.2249 -0.4942
 2316TIP3    H228440   3.699   4.514   1.840 -0.3746  0.0619  0.1677
 2317TIP3   OH228441   3.411   6.163  14.600  0.5541  0.6287 -1.1929
 2317TIP3    H128442   3.383   6.242  14.553  1.5954  0.5180 -2.0294
 2317TIP3    H228443   3.351   6.094  14.571  0.1298  0.9330 -1.0504
 2318TIP3   OH228444   0.141   2.317   5.969 -0.5705 -0.3687 -0.1642
 2318TIP3    H128445   0.144   2.409   5.945  0.0652 -0.3301  0.0613
 2318TIP3    H228446   0.202   2.275   5.909 -1.8822 -0.8525 -1.1826
 2319TIP3   OH228447   1.709   6.667  12.224  0.2213  0.2694  0.1427
 2319TIP3    H128448   1.656   6.643  12.148  0.2535  1.5820 -0.2980
 2319TIP3    H228449   1.654   6.727  12.274 -0.3062 -1.5616  1.8549
 2320TIP3   OH228450   1.245   0.591  12.699  0.2889 -0.1573  0.3130
 2320TIP3    H128451   1.314   0.546  12.649  0.1257 -1.6405  1.3941
 2320TIP3    H228452   1.209   0.523  12.755 -0.1862  1.2854  1.7647
 2321TIP3   OH228453   2.389   2.081  14.014  0.1545 -0.5096 -0.3536
 2321TIP3    H128454   2.399   2.042  13.928  1.9946 -0.3222 -0.2313
 2321TIP3    H228455   2.442   2.027  14.072  0.8569  0.7679  0.2283
 2322TIP3   OH228456   3.069   0.038  11.750 -0.3839  0.4465  0.1640
 2322TIP3    H128457   3.143  -0.022  11.762 -2.4136 -2.2876 -0.5996
 2322TIP3    H228458   3.062   0.084  11.834  0.4316 -1.2701  1.1988
 2323TIP3   OH228459   3.339   4.464  16.918 -0.4780 -0.1227  0.3865
 2323TIP3    H128460   3.261   4.518  16.930  0.0272  1.0245 -1.3586
 2323TIP3    H228461   3.412   4.519  16.947 -0.1338 -0.5453  0.3347
 2324TIP3   OH228462   5.254   5.953  16.290  0.3526 -0.1495 -0.7231
 2324TIP3    H128463   5.190   6.024  16.287 -0.5020 -0.9095 -0.7796
 2324TIP3    H228464   5.236   5.907  16.371  0.7236 -0.4672 -0.8173
 2325TIP3   OH228465   3.256   2.526   3.618  0.1167  0.4098  0.0215
 2325TIP3    H128466   3.292   2.615   3.613  0.3237  0.2702 -1.2742
 2325TIP3    H228467   3.228   2.507   3.528 -0.6165 -0.5513  0.4434
 2326TIP3   OH228468   5.532   2.482  15.797 -0.2687  0.1544  0.3555
 2326TIP3    H128469   5.513   2.433  15.877 -0.2157 -0.2766  0.1095
 2326TIP3    H228470   5.619   2.520  15.812 -0.3077  0.1690  0.5473
 2327TIP3   OH228471   6.542   2.019  15.009 -0.2957 -0.1451  0.0313
 2327TIP3    H128472   6.557   1.936  15.054  0.0879 -0.4838 -0.7038
 2327TIP3    H228473   6.463   2.055  15.049 -1.6992 -1.8823 -1.0899
 2328TIP3   OH228474   1.511   1.048  16.910  0.2893  0.2852 -0.1851
 2328TIP3    H128475   1.511   1.092  16.825 -0.8233  0.7255  0.0431
 2328TIP3    H228476   1.452   0.973  16.898  0.1652  0.3241  0.1924
 2329TIP3   OH228477   3.249   5.554  16.084  0.6112 -0.3381  0.2086
 2329TIP3    H128478   3.288   5.630  16.041  0.2356  0.3669  1.0753
 2329TIP3    H228479   3.300   5.543  16.165 -1.2944  0.9640  1.6472
 2330TIP3   OH228480   2.458   6.599   3.900 -0.0196 -0.1284  0.1826
 2330TIP3    H128481   2.514   6.576   3.974 -0.0231 -0.6752  0.0209
 2330TIP3    H228482   2.499   6.677   3.862 -0.0120  0.1422  0.7494
 2331TIP3   OH228483   1.453   4.796   1.120  0.3535 -0.0299  0.2563
 2331TIP3    H128484   1.523   4.762   1.064 -0.3783  0.0936 -0.7407
 2331TIP3    H228485   1.491   4.796   1.208  0.8859 -1.9174  0.0351
 2332TIP3   OH228486   4.789   3.629   4.229 -0.1155  0.4101  0.8316
 2332TIP3    H128487   4.752   3.681   4.157  2.2245  1.2311  0.1887
 2332TIP3    H228488   4.783   3.686   4.305 -2.1449 -0.2798  1.2396
 2333TIP3   OH228489   3.401   4.064  14.177 -0.2923 -0.4753 -0.1082
 2333TIP3    H128490   3.435   3.975  14.171 -1.8376 -1.0262 -0.9682
 2333TIP3    H228491   3.423   4.093  14.266  2.1698 -0.8899 -0.5564
 2334TIP3   OH228492   3.321   3.752   3.880 -0.4131 -0.3002 -0.7112
 2334TIP3    H128493   3.239   3.716   3.846 -0.5750 -1.0505  0.4354
 2334TIP3    H228494   3.293   3.820   3.942 -0.1320  0.7922 -1.7821
 2335TIP3   OH228495   0.828   4.041   5.869  0.3495 -0.5803  0.6023
 2335TIP3    H128496   0.875   4.047   5.951 -3.3000 -0.0838  2.7672
 2335TIP3    H228497   0.810   4.131   5.844  0.5006 -0.7627 -0.1914
 2336TIP3   OH228498   5.942   0.437   3.589 -0.0824  1.1093  0.6516
 2336TIP3    H128499   5.864   0.462   3.538  1.1489  0.5940 -1.5746
 2336TIP3    H228500   5.907   0.412   3.675 -2.4374  0.5106 -0.4135
 2337TIP3   OH228501   1.556   2.779  14.799 -0.2441  0.0793 -0.5529
 2337TIP3    H128502   1.647   2.797  14.774 -0.0056  2.6786  1.9586
 2337TIP3    H228503   1.550   2.810  14.889 -3.9477  0.9656 -1.0431
 2338TIP3   OH228504   4.765   0.134  11.975 -0.1307  0.6713  0.0715
 2338TIP3    H128505   4.748   0.053  11.927 -1.2974  0.3439  1.0153
 2338TIP3    H228506   4.834   0.110  12.038 -0.2509  0.4952  0.1382
 2339TIP3   OH228507   5.960   5.514  17.220  0.5518 -0.5169  0.8626
 2339TIP3    H128508   6.055   5.523  17.219  0.4483  0.7242  0.5747
 2339TIP3    H228509   5.943   5.425  17.190  1.5345  0.0417 -1.4410
 2340TIP3   OH228510   2.872   4.544   2.525  0.0835  0.1489 -0.1176
 2340TIP3    H128511   2.960   4.511   2.509  0.4837  2.2878 -2.7047
 2340TIP3    H228512   2.851   4.596   2.447 -3.1821  0.2837  0.7637
 2341TIP3   OH228513   6.643   3.074   1.867  0.0193 -0.0713  0.7004
 2341TIP3    H128514   6.632   3.087   1.961  0.6223 -1.4558  0.9802
 2341TIP3    H228515   6.611   2.985   1.851  0.8878 -0.2295 -0.2238
 2342TIP3   OH228516   5.225   5.009   4.110  0.0019  0.5235 -0.7989
 2342TIP3    H128517   5.187   4.955   4.041  1.6779  0.6484 -1.8543
 2342TIP3    H228518   5.314   4.974   4.123  0.4387  1.8014 -0.1577
 2343TIP3   OH228519   0.032   1.308   3.373 -0.2697  0.0218 -0.1362
 2343TIP3    H128520   0.027   1.270   3.285  1.0478  1.0133 -0.6483
 2343TIP3    H228521  -0.040   1.371   3.375 -0.0641  0.2798 -0.6496
 2344TIP3   OH228522   5.785   4.170  10.415  0.4896 -0.6555  0.3086
 2344TIP3    H128523   5.730   4.107  10.463 -0.5423  0.1770  0.2346
 2344TIP3    H228524   5.866   4.122  10.399 -0.5295 -2.2186 -0.3502
 2345TIP3   OH228525   0.836   6.661  14.209  0.2691 -0.0414 -0.2795
 2345TIP3    H128526   0.807   6.646  14.119  1.8965 -2.1240 -0.5225
 2345TIP3    H228527   0.924   6.698  14.199  0.0229  0.7181  0.4385
 2346TIP3   OH228528   2.940   4.174   4.364 -0.4383  0.5012 -0.6274
 2346TIP3    H128529   2.902   4.146   4.447 -1.0359  1.2677 -0.6375
 2346TIP3    H228530   2.868   4.216   4.317 -0.5592 -1.4725 -2.2715
 2347TIP3   OH228531   6.686   3.454   1.596  0.1808 -0.7512 -0.6448
 2347TIP3    H128532   6.755   3.518   1.577 -0.0436 -1.1951 -3.1767
 2347TIP3    H228533   6.722   3.401   1.667  1.4397  0.5487 -0.2770
 2348TIP3   OH228534   5.151   4.193   2.512 -0.8526 -0.3772 -0.3943
 2348TIP3    H128535   5.100   4.138   2.452  0.3102 -1.1573 -0.6909
 2348TIP3    H228536   5.241   4.161   2.503 -0.4674  0.3166  0.8631
 2349TIP3   OH228537   3.808   6.526  13.225  0.3518 -0.6804 -0.3821
 2349TIP3    H128538   3.832   6.618  13.231  0.2077 -0.6855  0.2881
 2349TIP3    H228539   3.885   6.484  13.188  0.3258 -0.2513 -0.9271
 2350TIP3   OH228540   6.508   1.507  16.683 -0.1979 -0.1512 -0.1486
 2350TIP3    H128541   6.589   1.508  16.632  0.0856  0.5370  0.3132
 2350TIP3    H228542   6.441   1.537  16.622 -0.1671 -0.9929 -0.6168
 2351TIP3   OH228543   3.014   0.082  15.993  0.4815  0.2651 -0.0583
 2351TIP3    H128544   3.012  -0.013  16.001  2.1859  0.2613  0.5145
 2351TIP3    H228545   2.934   0.104  15.945 -0.9033 -1.2799  1.4973
 2352TIP3   OH228546   6.516   4.258   3.249  0.0963  0.1144 -0.3812
 2352TIP3    H128547   6.561   4.241   3.332  0.2078  1.9614 -0.0482
 2352TIP3    H228548   6.540   4.348   3.226 -2.0408  0.5360 -1.0689
 2353TIP3   OH228549   5.943   1.545  15.589 -0.0789  0.3188  0.4327
 2353TIP3    H128550   5.918   1.635  15.610  0.3896  0.6374 -0.3621
 2353TIP3    H228551   6.038   1.544  15.595  0.0959  0.4745 -1.8246
 2354TIP3   OH228552   0.095   0.583  13.496 -0.0896  0.5552  0.4235
 2354TIP3    H128553   0.051   0.557  13.415  2.0039 -0.0314 -0.5595
 2354TIP3    H228554   0.118   0.675  13.482 -0.7394  0.7833  0.8268
 2355TIP3   OH228555   3.780   2.549  15.890  0.0307 -0.0430  0.0893
 2355TIP3    H128556   3.857   2.525  15.942 -0.1939  0.7174  0.7807
 2355TIP3    H228557   3.806   2.629  15.845 -0.5287  0.4870  0.7095
 2356TIP3   OH228558   2.802   2.915  16.450  0.1133  0.0107 -0.2706
 2356TIP3    H128559   2.734   2.873  16.398 -0.4431 -0.3764  0.7394
 2356TIP3    H228560   2.825   2.994  16.402 -1.8129  0.6963 -0.1059
 2357TIP3   OH228561   3.729   1.439   4.798  0.2081 -0.0917 -0.1072
 2357TIP3    H128562   3.704   1.346   4.799  1.0830 -0.3362  0.0237
 2357TIP3    H228563   3.784   1.448   4.720 -0.4891  0.4883 -0.5352
 2358TIP3   OH228564   2.148   4.977  13.817 -0.2929 -0.1485 -0.1462
 2358TIP3    H128565   2.149   4.974  13.722 -0.2842 -1.1768 -0.1210
 2358TIP3    H228566   2.058   5.002  13.839 -0.1962  0.4448 -0.4370
 2359TIP3   OH228567   1.574   0.591   2.062 -0.2392  0.0762  0.2281
 2359TIP3    H128568   1.627   0.551   1.993 -0.5410  0.7121 -0.3763
 2359TIP3    H228569   1.514   0.522   2.089  0.3539 -0.3954  0.3509
 2360TIP3   OH228570   0.988   4.078   4.299  0.9850  0.3559 -0.1854
 2360TIP3    H128571   0.911   4.028   4.271  0.5494  1.1547 -0.4099
 2360TIP3    H228572   1.039   4.015   4.350  1.1328 -0.7437 -1.6309
 2361TIP3   OH228573   4.664   2.854  12.437  0.4241 -0.0842  0.1421
 2361TIP3    H128574   4.573   2.870  12.413  0.5880  1.0659  0.2366
 2361TIP3    H228575   4.659   2.803  12.518 -0.1415 -0.1926  0.0427
 2362TIP3   OH228576   2.972   3.872  13.834 -0.1609 -0.1020 -0.3672
 2362TIP3    H128577   2.940   3.804  13.893 -0.7099 -0.8190 -1.4664
 2362TIP3    H228578   2.893   3.904  13.790  0.4999 -1.3836 -2.5798
 2363TIP3   OH228579   0.502   4.550  14.446  0.2546  0.3622  0.3353
 2363TIP3    H128580   0.543   4.615  14.502 -0.8725  1.3527  0.0319
 2363TIP3    H228581   0.419   4.589  14.419  0.5032 -0.3222 -1.5564
 2364TIP3   OH228582   3.653   1.915  12.969 -0.1642 -0.5519 -0.4860
 2364TIP3    H128583   3.616   1.862  13.040  0.4906  0.4307  0.5968
 2364TIP3    H228584   3.747   1.908  12.979  0.0049 -2.2185 -2.6442
 2365TIP3   OH228585   1.542   2.005   4.428  0.2018  0.3470 -0.2131
 2365TIP3    H128586   1.549   2.094   4.392  0.1865  0.2547 -0.4442
 2365TIP3    H228587   1.530   1.949   4.351 -1.5440  0.3312  0.0540
 2366TIP3   OH228588   0.802   2.435   4.880 -0.1581  0.1020  0.0780
 2366TIP3    H128589   0.808   2.480   4.795  1.2974 -0.4284 -0.1049
 2366TIP3    H228590   0.774   2.503   4.941 -2.6979  0.1712 -1.0874
 2367TIP3   OH228591   5.728   5.918   4.036 -0.1305  0.2365  0.7273
 2367TIP3    H128592   5.772   5.848   4.083  2.2595  2.5073  2.0428
 2367TIP3    H228593   5.681   5.967   4.104  0.8950  1.8047  0.3211
 2368TIP3   OH228594   1.742   6.713  16.324  0.4125 -0.0584  0.1789
 2368TIP3    H128595   1.688   6.773  16.272  0.8379 -0.4045 -0.6727
 2368TIP3    H228596   1.820   6.764  16.346  1.0907 -0.5059 -1.1368
 2369TIP3   OH228597   0.069   0.764  15.264  0.1834  0.2972  0.2125
 2369TIP3    H128598   0.032   0.705  15.199  0.5608 -0.4267  0.6494
 2369TIP3    H228599  -0.006   0.813  15.299  0.1909  1.9836 -2.0364
 2370TIP3   OH228600   3.153   6.522   0.498 -0.1599  0.4578 -0.5492
 2370TIP3    H128601   3.114   6.453   0.553  0.2442 -0.6336 -1.6323
 2370TIP3    H228602   3.193   6.582   0.561  1.0993 -1.2653  0.3286
 2371TIP3   OH228603   2.244   2.150  15.998  0.8491  0.2006  0.2303
 2371TIP3    H128604   2.173   2.214  16.001  1.5460  0.9885  0.0512
 2371TIP3    H228605   2.276   2.153  15.908  2.1094  0.9612  0.6967
 2372TIP3   OH228606   0.298   1.474   3.263  0.6157  0.6200 -0.0136
 2372TIP3    H128607   0.358   1.524   3.317 -0.1852  1.0110  0.5311
 2372TIP3    H228608   0.275   1.398   3.316 -0.0783  0.9401  0.1446
 2373TIP3   OH228609   3.821   5.276  12.825  0.8861 -0.0479  0.2941
 2373TIP3    H128610   3.901   5.280  12.773 -0.1191  1.5485 -1.2001
 2373TIP3    H228611   3.752   5.261  12.760 -0.3593  1.6395  1.2053
 2374TIP3   OH228612   3.343   3.347  13.954  0.1581  0.0725  0.2497
 2374TIP3    H128613   3.339   3.418  13.889 -0.8836  0.3141  0.5731
 2374TIP3    H228614   3.422   3.365  14.004 -0.1603  1.0818  0.4018
 2375TIP3   OH228615   2.974   2.834   0.878 -0.3850  0.0439  0.9269
 2375TIP3    H128616   2.993   2.888   0.954 -4.0968  2.3357  0.3545
 2375TIP3    H228617   2.997   2.888   0.803  1.7746 -1.6156  0.3301
 2376TIP3   OH228618   3.643   2.775  15.464  0.3365  0.1376 -0.1390
 2376TIP3    H128619   3.699   2.819  15.528  1.2594 -0.8957 -0.2104
 2376TIP3    H228620   3.659   2.681  15.479 -0.9822 -0.1620 -0.5248
 2377TIP3   OH228621   1.005   1.659  10.883 -0.1612  0.0454  0.0890
 2377TIP3    H128622   0.913   1.661  10.856 -0.3307  0.0450  0.6577
 2377TIP3    H228623   1.055   1.669  10.802 -0.6659  0.1324 -0.2067
 2378TIP3   OH228624   1.295   6.357   2.866 -0.6652 -0.4467 -0.0814
 2378TIP3    H128625   1.298   6.452   2.853 -1.0296 -0.5386 -0.8283
 2378TIP3    H228626   1.386   6.329   2.858 -0.6836 -0.2944 -0.9053
 2379TIP3   OH228627   0.713   2.599   4.633  0.0124  0.6384 -0.0178
 2379TIP3    H128628   0.699   2.620   4.540 -0.9421  2.4926  0.5093
 2379TIP3    H228629   0.801   2.632   4.651  0.7626 -1.0007 -0.5949
 2380TIP3   OH228630   4.769   0.330   2.318 -0.1439 -0.7371  0.0113
 2380TIP3    H128631   4.744   0.278   2.394  0.0953  0.8642  1.2200
 2380TIP3    H228632   4.858   0.359   2.337  0.3175 -1.2068 -1.3850
 2381TIP3   OH228633   5.701   4.427   1.245  0.3343  0.4271 -0.1422
 2381TIP3    H128634   5.625   4.461   1.292  0.1380 -0.3265  0.0872
 2381TIP3    H228635   5.665   4.367   1.180  0.8402 -1.4167  1.2442
 2382TIP3   OH228636   2.239   0.949  12.279  0.1666 -0.2142  0.2962
 2382TIP3    H128637   2.185   1.016  12.236  0.0803  1.2254  2.5389
 2382TIP3    H228638   2.192   0.929  12.360  0.1078 -3.1636 -0.4163
 2383TIP3   OH228639   3.286   1.347  14.713 -0.4502 -0.3346  0.2265
 2383TIP3    H128640   3.317   1.417  14.770  0.4379 -0.0221 -0.6241
 2383TIP3    H228641   3.194   1.336  14.736  0.0613 -0.6526  2.1477
 2384TIP3   OH228642   3.813   2.713   0.109 -0.4636 -0.4755  0.1403
 2384TIP3    H128643   3.865   2.777   0.158  0.8551 -1.4735  0.0617
 2384TIP3    H228644   3.759   2.766   0.051  1.4386  0.5411 -0.7397
 2385TIP3   OH228645   1.903   0.974  16.335 -0.4685  0.7703 -0.3629
 2385TIP3    H128646   1.943   0.890  16.316 -1.8049  0.5527 -2.4756
 2385TIP3    H228647   1.850   0.959  16.413  1.6518  0.4684  1.0427
 2386TIP3   OH228648   2.264   3.731  16.917  0.2252  0.0052 -0.1180
 2386TIP3    H128649   2.286   3.735  17.010  0.7890 -1.1847 -0.1866
 2386TIP3    H228650   2.232   3.642  16.903 -0.7517  0.4634 -0.8791
 2387TIP3   OH228651   4.523   0.092   2.837  0.5247 -0.3258  0.7637
 2387TIP3    H128652   4.446   0.131   2.796 -0.1131 -0.9775  1.3319
 2387TIP3    H228653   4.587   0.084   2.766 -0.4151 -1.0372 -0.0064
 2388TIP3   OH228654   1.709   0.073   1.675  0.4807 -0.5070 -0.2226
 2388TIP3    H128655   1.684   0.096   1.764 -0.2170 -1.8782 -0.0613
 2388TIP3    H228656   1.721   0.158   1.631  0.4061  0.1669  1.0426
 2389TIP3   OH228657   4.173   6.380   3.693 -0.2347  0.3193 -0.4555
 2389TIP3    H128658   4.213   6.369   3.607  2.5369 -0.4505  0.8623
 2389TIP3    H228659   4.109   6.310   3.700  1.4973 -1.3385 -0.8415
 2390TIP3   OH228660   3.011   5.784  13.401 -0.3165 -0.2390 -0.7026
 2390TIP3    H128661   3.008   5.762  13.307 -0.1852  1.5598 -1.1329
 2390TIP3    H228662   2.947   5.854  13.411  0.4307  0.2985  0.3739
 2391TIP3   OH228663   3.781   0.513   3.739 -0.5740  0.0146  0.3509
 2391TIP3    H128664   3.848   0.446   3.729 -0.5847  0.4616 -3.1113
 2391TIP3    H228665   3.819   0.576   3.800  1.8242 -0.1881 -0.8850
 2392TIP3   OH228666   0.845   5.052   3.311  0.1512  0.5619 -0.5423
 2392TIP3    H128667   0.766   5.035   3.362  0.4193 -0.1257 -0.3500
 2392TIP3    H228668   0.916   5.050   3.376  0.2593  1.7730 -0.6204
 2393TIP3   OH228669   0.466   1.860  13.596  0.3794  0.3281  0.3933
 2393TIP3    H128670   0.428   1.806  13.665 -0.1693  0.0543 -0.1161
 2393TIP3    H228671   0.526   1.801  13.550 -0.7279 -0.0533 -0.5888
 2394TIP3   OH228672   5.276   3.331  11.974  0.7915 -0.0547  0.5190
 2394TIP3    H128673   5.208   3.387  11.937  0.9701  0.1707  0.5292
 2394TIP3    H228674   5.295   3.267  11.905  0.0017 -0.6144  0.8180
 2395TIP3   OH228675   1.113   2.722  13.154 -0.1597 -0.1043 -0.1363
 2395TIP3    H128676   1.097   2.761  13.068 -0.8150 -0.1799 -0.0492
 2395TIP3    H228677   1.185   2.660  13.139 -0.0241  0.1495 -0.5511
 2396TIP3   OH228678   2.400   6.662   5.742 -0.3461  0.1184 -0.1025
 2396TIP3    H128679   2.423   6.570   5.752 -0.4585  0.0141 -0.7878
 2396TIP3    H228680   2.473   6.700   5.694 -1.0006  0.0625 -1.1467
 2397TIP3   OH228681   4.598   0.927  15.726  0.1073 -0.4305  0.1890
 2397TIP3    H128682   4.592   1.006  15.780  1.9574  0.6722 -1.1747
 2397TIP3    H228683   4.632   0.860  15.786  1.9057  0.7159  0.4920
 2398TIP3   OH228684   5.809   2.322  11.572  0.2832 -0.1497  0.5735
 2398TIP3    H128685   5.839   2.257  11.636 -0.1671 -2.7587 -1.7481
 2398TIP3    H228686   5.884   2.380  11.559  1.4960 -1.5812  1.0265
 2399TIP3   OH228687   1.703   2.731  17.277 -0.1533 -0.0344  0.4151
 2399TIP3    H128688   1.730   2.820  17.257 -0.0215 -0.1182  0.2233
 2399TIP3    H228689   1.768   2.675  17.233 -0.7889 -0.2399 -0.2714
 2400TIP3   OH228690   1.198   6.816   4.030  0.5057  0.2629 -0.0421
 2400TIP3    H128691   1.157   6.901   4.010  1.5726  0.3870 -1.7557
 2400TIP3    H228692   1.140   6.752   3.989  0.9028  0.3048 -0.6673
 2401TIP3   OH228693   5.632   4.399  15.742  0.1423 -0.6132  0.6463
 2401TIP3    H128694   5.634   4.375  15.650  0.4453 -0.1791  0.5405
 2401TIP3    H228695   5.636   4.495  15.743  1.8299 -0.6757  1.1627
 2402TIP3   OH228696   0.996   3.118  12.336  0.2178  0.2346 -0.1775
 2402TIP3    H128697   1.070   3.078  12.290  0.2705  0.3248 -0.1721
 2402TIP3    H228698   0.981   3.061  12.411  0.4123  0.3279 -0.0678
 2403TIP3   OH228699   3.541   5.577   0.074 -0.3001 -0.2404  0.0855
 2403TIP3    H128700   3.528   5.627   0.154  0.2500  1.0536 -0.6229
 2403TIP3    H228701   3.598   5.504   0.100  2.0245  1.6265  0.3480
 2404TIP3   OH228702   1.577   4.266  16.531 -0.4743  0.0464  0.0805
 2404TIP3    H128703   1.485   4.267  16.556 -0.2515  0.3035  0.9260
 2404TIP3    H228704   1.598   4.357  16.513 -0.9162 -0.2688 -2.1792
 2405TIP3   OH228705   2.392   2.219  16.489  0.2192 -0.1095  0.6577
 2405TIP3    H128706   2.367   2.139  16.535 -0.8645 -0.4377 -0.4654
 2405TIP3    H228707   2.487   2.223  16.498  0.2628 -1.3991  0.9301
 2406TIP3   OH228708   1.042   5.097  14.798  0.5725 -0.6810  0.3671
 2406TIP3    H128709   1.075   5.153  14.728  0.7728 -2.5871 -1.1062
 2406TIP3    H228710   0.991   5.156  14.854  0.1239  0.8157 -1.5630
 2407TIP3   OH228711   3.342   6.066  15.281 -0.2216 -0.5765 -0.2644
 2407TIP3    H128712   3.423   6.059  15.230  0.2856 -2.4992  0.7447
 2407TIP3    H228713   3.316   5.975  15.298 -2.0165  0.0231  0.3352
 2408TIP3   OH228714   4.294   4.287   4.894 -0.3414 -0.2311 -0.4420
 2408TIP3    H128715   4.323   4.226   4.962 -1.2275 -1.1366 -0.8596
 2408TIP3    H228716   4.294   4.235   4.813 -1.3648  0.2303 -0.7543
 2409TIP3   OH228717   5.010   3.691   3.286 -0.0983  0.3421  0.0688
 2409TIP3    H128718   5.002   3.701   3.381  0.4062 -0.8176  0.2366
 2409TIP3    H228719   4.927   3.725   3.252  0.0678  1.5834  0.8538
 2410TIP3   OH228720   5.101   4.498   2.543  0.6839 -0.1371 -0.1620
 2410TIP3    H128721   5.113   4.404   2.527 -3.1970 -0.4678 -1.6300
 2410TIP3    H228722   5.080   4.535   2.457  0.7911  1.8597  0.6423
 2411TIP3   OH228723   5.292   3.706   5.929 -0.2667 -0.0984 -0.1398
 2411TIP3    H128724   5.319   3.735   6.016 -0.8738 -1.1336  0.3977
 2411TIP3    H228725   5.200   3.681   5.939 -0.0490 -1.2268 -0.8277
 2412TIP3   OH228726   3.227   4.545  15.593  0.5215  0.2379 -0.1572
 2412TIP3    H128727   3.200   4.540  15.685 -0.1030 -0.4823 -0.3719
 2412TIP3    H228728   3.258   4.635  15.581 -1.7331  1.0736  0.1183
 2413TIP3   OH228729   4.384   5.077  11.604 -0.5216  0.5647  0.2308
 2413TIP3    H128730   4.466   5.118  11.577  0.4233 -2.0277 -1.0070
 2413TIP3    H228731   4.316   5.140  11.578  0.8692  1.4057 -1.4791
 2414TIP3   OH228732   1.879   0.919   0.568 -0.6694  0.3907 -0.3760
 2414TIP3    H128733   1.849   1.007   0.544 -0.5448  0.6376  0.3715
 2414TIP3    H228734   1.852   0.864   0.494 -1.6324  0.8806 -0.4072
 2415TIP3   OH228735   4.634   6.669  13.276 -0.7766 -0.5480  0.4405
 2415TIP3    H128736   4.628   6.583  13.317  1.2387  0.4302  2.9069
 2415TIP3    H228737   4.696   6.658  13.204 -1.4612 -1.4057 -0.0329
 2416TIP3   OH228738   5.620   2.725   4.668 -0.3621 -0.7248  0.1047
 2416TIP3    H128739   5.646   2.643   4.709  1.4641 -0.1559  0.1765
 2416TIP3    H228740   5.608   2.785   4.742 -0.0187 -0.4977 -0.0197
 2417TIP3   OH228741   5.661   0.103   5.528  0.1449  0.2254 -0.2961
 2417TIP3    H128742   5.701   0.020   5.500  0.3510  0.2952 -0.2105
 2417TIP3    H228743   5.602   0.078   5.599 -1.2355 -0.1056 -1.5500
 2418TIP3   OH228744   5.427   1.876   2.354 -0.1333 -0.3221 -0.0067
 2418TIP3    H128745   5.372   1.936   2.404 -0.8916 -1.0596  0.0638
 2418TIP3    H228746   5.507   1.867   2.407 -0.7764 -0.8077  0.9074
 2419TIP3   OH228747   6.518   0.210   4.043  0.2577  0.0498 -0.8895
 2419TIP3    H128748   6.514   0.302   4.068  0.4140 -0.5319  1.3784
 2419TIP3    H228749   6.554   0.211   3.954  1.5490  2.0934 -0.3791
 2420TIP3   OH228750   4.442   6.172   1.432 -0.4672 -0.3374  0.1331
 2420TIP3    H128751   4.375   6.216   1.484  0.5457 -0.7170  1.8112
 2420TIP3    H228752   4.510   6.238   1.419  0.5864 -1.0507  1.7815
 2421TIP3   OH228753   1.295   5.366   5.570 -0.6659  0.1372 -0.0470
 2421TIP3    H128754   1.361   5.433   5.552 -0.0534 -0.7998 -1.3902
 2421TIP3    H228755   1.288   5.364   5.665 -1.1420  2.5263  0.0124
 2422TIP3   OH228756   1.560   3.036   2.724  0.4869 -0.1923 -0.8415
 2422TIP3    H128757   1.545   3.021   2.631  0.2449 -1.4925 -0.6033
 2422TIP3    H228758   1.472   3.033   2.763  0.4633  1.5809 -0.7347
 2423TIP3   OH228759   2.884   4.511  15.997  0.0300  0.2761 -0.9155
 2423TIP3    H128760   2.890   4.415  15.996  0.5814  0.1971  2.4079
 2423TIP3    H228761   2.792   4.529  16.017  0.4998  0.3294  1.3576
 2424TIP3   OH228762   2.686   2.512  14.736 -0.4087 -0.0149 -0.0338
 2424TIP3    H128763   2.699   2.419  14.715 -2.3146 -0.6511  1.4835
 2424TIP3    H228764   2.748   2.530  14.806  1.5642  0.4883 -1.8469
 2425TIP3   OH228765   0.996   2.633   6.570  0.0681 -0.0347 -0.0179
 2425TIP3    H128766   0.954   2.586   6.642  1.5459 -0.3303  0.6621
 2425TIP3    H228767   1.024   2.716   6.609  1.4506 -0.4636 -0.0699
 2426TIP3   OH228768   1.931   0.603   3.861 -0.0911 -0.1446  0.3087
 2426TIP3    H128769   1.891   0.628   3.778 -1.1123  0.6256  1.0271
 2426TIP3    H228770   1.948   0.509   3.853 -1.3814 -0.3240 -0.2671
 2427TIP3   OH228771   4.393   4.607  15.615  0.1346 -0.4535  0.1774
 2427TIP3    H128772   4.413   4.700  15.608  2.1523 -0.8023  0.9116
 2427TIP3    H228773   4.433   4.567  15.538 -1.1225 -0.6785 -0.3839
 2428TIP3   OH228774   4.825   4.608   1.512 -0.4003  0.0525 -0.0438
 2428TIP3    H128775   4.879   4.673   1.557  0.4676 -0.3350 -0.5163
 2428TIP3    H228776   4.756   4.587   1.574  1.0486 -0.8328  1.3081
 2429TIP3   OH228777   1.027   6.727   5.827  0.1421 -0.0248  0.5461
 2429TIP3    H128778   1.086   6.664   5.868 -0.8485 -0.8233  0.7628
 2429TIP3    H228779   1.001   6.786   5.898 -0.2728 -0.4100  0.7171
 2430TIP3   OH228780   4.961   5.485  15.047 -0.2440  0.8438 -0.4629
 2430TIP3    H128781   5.030   5.504  15.111 -0.5372 -0.0218  0.1151
 2430TIP3    H228782   4.927   5.571  15.022  0.2566  1.2131  0.1212
 2431TIP3   OH228783   2.983   6.597  10.506  0.5999  0.1614  0.2989
 2431TIP3    H128784   2.955   6.534  10.572  2.3962  0.7242  1.6231
 2431TIP3    H228785   3.014   6.543  10.433  0.0989 -0.4664  0.5503
 2432TIP3   OH228786   3.116   1.592   4.463 -0.3751 -0.1241 -0.2276
 2432TIP3    H128787   3.085   1.628   4.380  0.9957  1.9442  0.1142
 2432TIP3    H228788   3.110   1.497   4.452 -2.9138  0.1417 -1.6363
 2433TIP3   OH228789   2.016   1.921   1.476  0.9791 -0.2736  0.1033
 2433TIP3    H128790   2.047   1.964   1.555  1.0563  0.5282 -0.3525
 2433TIP3    H228791   2.080   1.852   1.459  0.5587 -0.9297  1.1454
 2434TIP3   OH228792   4.837   5.599   6.444 -0.5624  0.4221 -0.0386
 2434TIP3    H128793   4.900   5.652   6.494 -0.6154  2.5390 -2.1328
 2434TIP3    H228794   4.889   5.529   6.406 -0.2606 -0.3363  1.7161
 2435TIP3   OH228795   4.464   5.334  10.846 -0.6281  0.6474 -0.1597
 2435TIP3    H128796   4.406   5.359  10.775 -0.1068  1.4469 -0.3089
 2435TIP3    H228797   4.552   5.340  10.809 -0.4917 -2.6450 -0.5935
 2436TIP3   OH228798   5.616   1.043   4.329  0.0427  0.1961  0.7370
 2436TIP3    H128799   5.629   1.024   4.236 -3.5962  0.4901  0.0831
 2436TIP3    H228800   5.641   0.962   4.374 -0.3275 -0.7238 -0.6911
 2437TIP3   OH228801   1.509   3.074  17.018  0.0253 -0.2235 -0.1068
 2437TIP3    H128802   1.457   3.151  17.039  0.8879  0.1162  0.8168
 2437TIP3    H228803   1.542   3.043  17.103  1.5747 -0.2447 -0.7022
 2438TIP3   OH228804   0.439   2.504  16.099 -0.3327  0.7312 -0.5507
 2438TIP3    H128805   0.478   2.418  16.080  1.2957  1.5385 -0.9674
 2438TIP3    H228806   0.437   2.508  16.194  2.0626  1.2836 -0.4891
 2439TIP3   OH228807   4.636   0.327  15.729  0.2730 -0.6346 -0.2460
 2439TIP3    H128808   4.700   0.258  15.747  0.4971 -0.1961  0.6882
 2439TIP3    H228809   4.688   0.407  15.723 -0.0764 -0.4250 -0.5065
 2440TIP3   OH228810   4.001   0.768  11.687  0.3144  0.4891 -0.2245
 2440TIP3    H128811   4.036   0.857  11.694  1.9093 -0.1769  0.4169
 2440TIP3    H228812   3.946   0.771  11.609 -0.4664  2.3046  0.3602
 2441TIP3   OH228813   5.674   6.304  13.165 -0.0349  0.1125 -0.4042
 2441TIP3    H128814   5.600   6.364  13.171 -0.0444  0.1154 -0.5742
 2441TIP3    H228815   5.751   6.360  13.166  0.0313  0.0484  1.3896
 2442TIP3   OH228816   1.719   4.603  16.930  0.0074 -0.6888  0.4345
 2442TIP3    H128817   1.758   4.533  16.879  0.4567  1.1895 -1.8842
 2442TIP3    H228818   1.794   4.651  16.966 -0.2829 -1.0080  1.4841
 2443TIP3   OH228819   2.578   0.937  12.536  0.0718  0.0277 -0.0279
 2443TIP3    H128820   2.556   0.941  12.443 -2.3532  1.2526  0.5528
 2443TIP3    H228821   2.515   0.874  12.573  0.8066 -0.2067  0.8577
 2444TIP3   OH228822   2.168   2.780   2.707 -0.3777  0.1565  0.4047
 2444TIP3    H128823   2.208   2.866   2.696  1.6362 -1.1700 -3.4071
 2444TIP3    H228824   2.131   2.782   2.796  0.4242  4.5636  0.7460
 2445TIP3   OH228825   2.018   5.838   1.105 -0.7404 -0.6975  0.0489
 2445TIP3    H128826   2.029   5.870   1.195 -0.1368 -1.2765  0.1891
 2445TIP3    H228827   1.969   5.757   1.114 -0.8980 -0.6262 -0.1674
 2446TIP3   OH228828   6.314   0.908   6.183 -0.0687  0.8233 -0.7620
 2446TIP3    H128829   6.335   0.834   6.126 -0.5857  0.8240 -0.9474
 2446TIP3    H228830   6.311   0.870   6.271 -0.0225  0.6830 -0.8204
 2447TIP3   OH228831   6.598   6.404  17.025  0.0833  0.0122  0.3932
 2447TIP3    H128832   6.603   6.393  16.930  1.1581  1.2530  0.2859
 2447TIP3    H228833   6.504   6.410  17.044 -0.1708 -1.0977 -0.4823
 2448TIP3   OH228834   3.282   1.129   4.124  0.0691  0.0574 -0.1540
 2448TIP3    H128835   3.308   1.104   4.035 -0.4451  2.5229 -1.0307
 2448TIP3    H228836   3.215   1.196   4.112 -0.0519  0.3774  2.0923
 2449TIP3   OH228837   4.790   3.536  15.581  0.1167  0.3287 -0.8111
 2449TIP3    H128838   4.805   3.470  15.649 -1.5562  0.8340  0.0753
 2449TIP3    H228839   4.729   3.495  15.520  0.8804  0.2216 -1.5126
 2450TIP3   OH228840   3.788   4.127  12.850  0.5458  0.4790  0.0005
 2450TIP3    H128841   3.711   4.161  12.804  0.1651  0.7968  0.8666
 2450TIP3    H228842   3.771   4.146  12.942  0.6062 -1.5235  0.4463
 2451TIP3   OH228843   3.711   6.059  11.441  0.3450 -0.2840  0.3949
 2451TIP3    H128844   3.633   6.111  11.424  1.2421  1.0102  0.1720
 2451TIP3    H228845   3.689   5.972  11.407 -1.1761 -0.0813  0.7954
 2452TIP3   OH228846   4.572   4.986   1.228 -0.2473 -1.7494 -0.4814
 2452TIP3    H128847   4.544   4.908   1.275  0.7886 -0.8276  1.7560
 2452TIP3    H228848   4.656   5.010   1.269 -0.3019  0.2331 -1.4605
 2453TIP3   OH228849   6.358   5.486   5.912  0.2040 -0.6810 -0.2050
 2453TIP3    H128850   6.430   5.446   5.961  0.9546 -0.7240 -1.3253
 2453TIP3    H228851   6.376   5.580   5.915  1.0520 -0.7853 -1.6183
 2454TIP3   OH228852   0.552   2.975   2.761 -0.1203  0.1372 -0.0702
 2454TIP3    H128853   0.581   3.006   2.675 -1.2583  0.2911 -0.4143
 2454TIP3    H228854   0.521   2.886   2.746  2.1712 -0.8191  0.7202
 2455TIP3   OH228855   1.665   3.571  12.647  0.0670 -0.1351  0.8282
 2455TIP3    H128856   1.655   3.647  12.703  0.7682 -0.0716  0.8786
 2455TIP3    H228857   1.663   3.496  12.706  1.6239 -0.0236  1.0495
 2456TIP3   OH228858   4.200   5.353  10.605  0.2061 -0.8517  0.0272
 2456TIP3    H128859   4.284   5.339  10.561  0.2150 -3.4035  0.7653
 2456TIP3    H228860   4.135   5.328  10.540 -0.0406  1.7218 -0.7583
 2457TIP3   OH228861   1.515   4.621   3.188  0.2370  0.0199 -0.0560
 2457TIP3    H128862   1.555   4.675   3.120  0.7416 -0.6376 -0.2914
 2457TIP3    H228863   1.586   4.565   3.220 -0.6029 -1.5767 -0.8893
 2458TIP3   OH228864   1.651   4.003   4.389 -0.2067  0.5990 -0.2697
 2458TIP3    H128865   1.653   3.915   4.427  0.1781 -0.3756 -2.4297
 2458TIP3    H228866   1.741   4.020   4.363 -0.5772  0.9014 -1.4043
 2459TIP3   OH228867   6.363   1.518   2.429  0.1098 -0.2360 -0.3375
 2459TIP3    H128868   6.416   1.448   2.467 -0.1000 -0.9650 -1.3636
 2459TIP3    H228869   6.421   1.559   2.365 -0.9769 -1.9252 -2.4584
 2460TIP3   OH228870   6.416   1.479   3.777  0.8863 -0.2877 -0.3127
 2460TIP3    H128871   6.337   1.526   3.803  0.5268 -1.3191  0.4768
 2460TIP3    H228872   6.474   1.485   3.853  0.9628 -0.8438 -0.3224
 2461TIP3   OH228873   2.469   2.490  12.381 -0.3428 -0.4444 -0.0214
 2461TIP3    H128874   2.472   2.540  12.463  0.9115  0.4986 -0.6206
 2461TIP3    H228875   2.529   2.417  12.395 -0.0269 -0.2100 -0.1272
 2462TIP3   OH228876   3.915   6.431   6.031 -0.4925  0.3331 -0.2003
 2462TIP3    H128877   3.926   6.510   6.082 -2.3243  0.5444 -0.1058
 2462TIP3    H228878   3.986   6.373   6.060 -1.2714  0.5899  2.2984
 2463TIP3   OH228879   0.703   1.565  13.521 -0.3984 -0.7413 -0.0177
 2463TIP3    H128880   0.657   1.590  13.600 -0.3784  2.0725 -0.8522
 2463TIP3    H228881   0.754   1.488  13.546  1.2667  1.3568  3.2949
 2464TIP3   OH228882   1.479   2.129   5.430 -0.3701  0.2482 -0.0848
 2464TIP3    H128883   1.443   2.065   5.492  0.9074 -1.1479 -0.7607
 2464TIP3    H228884   1.467   2.213   5.474 -0.1878 -0.6409  1.7560
 2465TIP3   OH228885   2.244   1.899  15.334  0.1122 -0.6465  0.0845
 2465TIP3    H128886   2.317   1.868  15.388  0.2519 -1.8794 -0.7883
 2465TIP3    H228887   2.167   1.887  15.389  0.3993 -0.7398  0.4709
 2466TIP3   OH228888   6.314   4.396   0.162 -0.1160 -0.5142  0.3952
 2466TIP3    H128889   6.262   4.418   0.084 -1.1493  3.1244  1.9893
 2466TIP3    H228890   6.309   4.301   0.169 -2.9483 -0.5999 -1.9802
 2467TIP3   OH228891   3.584   1.050  14.060  0.4105 -0.6237  0.2029
 2467TIP3    H128892   3.524   1.016  13.994  0.7537  0.2608 -0.5817
 2467TIP3    H228893   3.642   0.977  14.082  0.4228 -0.8609 -0.6319
 2468TIP3   OH228894   1.143   2.358  14.181  0.0587 -0.1837 -0.0377
 2468TIP3    H128895   1.139   2.270  14.217  1.8649 -0.9605 -1.6600
 2468TIP3    H228896   1.225   2.361  14.132 -0.2457  2.2175 -0.4848
 2469TIP3   OH228897   5.285   4.124  12.036 -0.4535  0.1421 -0.0971
 2469TIP3    H128898   5.269   4.196  12.097  1.4580  0.8883 -0.4539
 2469TIP3    H228899   5.341   4.063  12.085  0.1325  0.1841 -0.7107
 2470TIP3   OH228900   1.628   6.414   0.148  0.0596  0.1550  0.8178
 2470TIP3    H128901   1.642   6.320   0.156  1.5491  0.2456 -0.4215
 2470TIP3    H228902   1.666   6.436   0.063 -0.8193  1.7797  0.8263
 2471TIP3   OH228903   4.559   1.317  11.347 -0.2559  0.2127  1.2280
 2471TIP3    H128904   4.617   1.360  11.284  0.5932 -1.2054  1.0106
 2471TIP3    H228905   4.587   1.349  11.432  0.3712  0.0865  1.0696
 2472TIP3   OH228906   6.811   6.619   0.171  0.0406  0.2154  0.3104
 2472TIP3    H128907   6.841   6.690   0.228  0.5748 -1.1094  1.6907
 2472TIP3    H228908   6.728   6.591   0.210 -1.4295  1.6825 -1.6338
 2473TIP3   OH228909   2.351   2.181   4.239  0.3110 -0.3235 -0.1395
 2473TIP3    H128910   2.381   2.197   4.328 -1.4426 -2.0047  0.7861
 2473TIP3    H228911   2.401   2.106   4.208  2.0067  1.1898 -1.1555
 2474TIP3   OH228912   5.339   5.839   2.570  0.5311 -0.3459  0.4359
 2474TIP3    H128913   5.360   5.750   2.598 -0.4860 -0.2340  1.5847
 2474TIP3    H228914   5.364   5.894   2.643  0.4115  0.2319  0.0444
 2475TIP3   OH228915   0.501   3.171  12.344  0.3197 -0.0924 -0.1974
 2475TIP3    H128916   0.591   3.193  12.369  0.5391 -0.0752 -0.9891
 2475TIP3    H228917   0.450   3.249  12.368  0.3749 -0.4212  1.0094
 2476TIP3   OH228918   2.214   6.621   1.773  0.4053 -0.2026 -0.0503
 2476TIP3    H128919   2.234   6.666   1.691  1.0579  2.4191  1.4969
 2476TIP3    H228920   2.119   6.607   1.770  0.3269  0.4851 -0.9441
 2477TIP3   OH228921   3.667   5.925   3.054  0.4013  0.3706 -0.4421
 2477TIP3    H128922   3.577   5.921   3.087  0.0127  0.9201 -1.4034
 2477TIP3    H228923   3.720   5.949   3.130 -0.4028  1.0632 -0.0955
 2478TIP3   OH228924   5.107   4.061  16.060 -0.8208 -0.4060  0.0158
 2478TIP3    H128925   5.160   4.138  16.082 -1.9653  0.5047 -0.3591
 2478TIP3    H228926   5.141   4.033  15.975 -1.4570  0.6599 -0.6018
 2479TIP3   OH228927   0.620   0.412  16.682  0.2321 -0.1757  0.4402
 2479TIP3    H128928   0.666   0.439  16.761  3.2672 -2.3020 -0.5146
 2479TIP3    H228929   0.636   0.318  16.676 -2.6275 -0.6120 -1.0196
 2480TIP3   OH228930   5.870   0.403   0.656  0.3589  0.0816  0.3205
 2480TIP3    H128931   5.862   0.309   0.669 -2.6398  0.1533 -0.6005
 2480TIP3    H228932   5.790   0.440   0.693  0.2219  1.9809 -1.7527
 2481TIP3   OH228933   1.987   1.084   3.484  0.3467 -0.3786  0.0453
 2481TIP3    H128934   1.906   1.076   3.535  0.7901  0.8566  0.9809
 2481TIP3    H228935   1.977   1.022   3.412 -0.8630 -1.1884  0.9015
 2482TIP3   OH228936   0.133   4.240  14.220  0.5380  0.0235  0.3211
 2482TIP3    H128937   0.124   4.220  14.127 -0.9485  1.2582  0.1881
 2482TIP3    H228938   0.084   4.321  14.233  2.8958  1.2945  1.6846
 2483TIP3   OH228939   6.504   6.588   0.002  0.0295 -0.4946  0.3097
 2483TIP3    H128940   6.470   6.632  -0.076 -1.3304 -1.1196  0.5359
 2483TIP3    H228941   6.597   6.579  -0.015 -0.4020 -1.5640 -1.7172
 2484TIP3   OH228942   4.395   0.792   0.757  0.0280 -0.0507  0.2817
 2484TIP3    H128943   4.330   0.826   0.818  0.1871  0.1064  0.3641
 2484TIP3    H228944   4.458   0.746   0.813  0.9568  1.3229  0.3849
 2485TIP3   OH228945   0.627   2.193   3.373  0.3792  0.3305 -0.3316
 2485TIP3    H128946   0.688   2.179   3.445 -1.0164  0.6823  0.9486
 2485TIP3    H228947   0.564   2.121   3.381 -1.1502  1.7060  0.2760
 2486TIP3   OH228948   6.638   4.303   0.237  0.1890 -0.6275  0.1771
 2486TIP3    H128949   6.605   4.324   0.150  0.4481 -0.1986  0.1775
 2486TIP3    H228950   6.622   4.382   0.288 -0.0614 -0.9188  0.5451
 2487TIP3   OH228951   1.579   4.565  11.105  0.5291 -0.4449  0.4647
 2487TIP3    H128952   1.509   4.629  11.095 -1.0157 -2.1442  0.0293
 2487TIP3    H228953   1.631   4.573  11.024  1.1303  1.1206  0.9791
 2488TIP3   OH228954   6.288   0.800  14.308  1.0749  0.0952  0.0155
 2488TIP3    H128955   6.295   0.801  14.404  0.2309  0.5832  0.0750
 2488TIP3    H228956   6.218   0.862  14.289  0.1538 -1.1756 -0.8258
 2489TIP3   OH228957   2.113   6.072   2.215 -0.4841 -0.6702 -0.2983
 2489TIP3    H128958   2.064   5.991   2.227 -0.3998 -0.6861 -0.0474
 2489TIP3    H228959   2.200   6.044   2.186 -0.3627 -0.6853  0.0773
 2490TIP3   OH228960   3.072   3.465   2.661 -0.3106 -0.1165  0.5097
 2490TIP3    H128961   3.088   3.539   2.719 -0.8308  0.1269  0.3513
 2490TIP3    H228962   3.133   3.478   2.588 -1.2464  0.8352 -0.1222
 2491TIP3   OH228963   1.924   3.756   1.157  0.3081  0.9749 -0.1478
 2491TIP3    H128964   1.997   3.781   1.213  1.3748 -2.0867 -0.0575
 2491TIP3    H228965   1.965   3.715   1.081 -1.2066  2.9268 -2.0933
 2492TIP3   OH228966   4.644   0.890   3.735 -0.2493 -0.5478 -0.5776
 2492TIP3    H128967   4.710   0.959   3.744  1.3860 -2.1210 -0.1511
 2492TIP3    H228968   4.631   0.881   3.641 -1.8252  1.5711 -0.5852
 2493TIP3   OH228969   6.380   5.698   4.115  0.5528 -0.6157  0.3956
 2493TIP3    H128970   6.324   5.652   4.052  1.2252 -0.4109 -0.3638
 2493TIP3    H228971   6.469   5.679   4.085  0.8356  1.6562 -0.2838
 2494TIP3   OH228972   6.617   4.086  10.681  0.0100  0.2812  0.0296
 2494TIP3    H128973   6.699   4.040  10.661 -0.0864 -0.5266  1.4099
 2494TIP3    H228974   6.629   4.174  10.645  0.8860 -0.2895 -1.1088
 2495TIP3   OH228975   3.412   2.221  13.119 -0.4397 -0.1661  0.3080
 2495TIP3    H128976   3.458   2.235  13.037  1.7452  0.6475  1.6362
 2495TIP3    H228977   3.444   2.137  13.151 -2.1074 -1.0162 -0.1664
 2496TIP3   OH228978   3.826   2.673   3.892  0.3212  0.5298  0.0869
 2496TIP3    H128979   3.785   2.707   3.813  0.7677 -1.1143 -0.8728
 2496TIP3    H228980   3.793   2.729   3.963 -0.0471  2.0328 -1.2548
 2497TIP3   OH228981   4.698   6.333  16.957  0.4081  0.6423  0.7336
 2497TIP3    H128982   4.766   6.275  16.993 -0.8336 -0.9691  0.5439
 2497TIP3    H228983   4.696   6.313  16.864 -1.2458 -0.3251  0.9523
 2498TIP3   OH228984   2.424   1.272  15.073 -0.5980 -0.3985 -0.5548
 2498TIP3    H128985   2.502   1.243  15.119 -0.5318 -0.3319 -0.6259
 2498TIP3    H228986   2.456   1.337  15.010 -0.5811 -1.0525 -1.2276
 2499TIP3   OH228987   5.346   0.540  15.740  0.2831 -0.0575 -0.2633
 2499TIP3    H128988   5.310   0.551  15.653 -0.3345  1.2048  0.1491
 2499TIP3    H228989   5.368   0.447  15.746 -1.2772 -0.4775 -1.1342
 2500TIP3   OH228990   5.867   4.455  16.729  0.7035 -0.0105 -0.2305
 2500TIP3    H128991   5.827   4.498  16.654 -0.2249 -0.0356  0.2482
 2500TIP3    H228992   5.823   4.370  16.735 -0.2011  0.5327  1.1592
 2501TIP3   OH228993   4.478   3.102   3.851 -0.2234 -0.3348  0.0046
 2501TIP3    H128994   4.449   3.074   3.764  1.3712 -0.4937 -0.4808
 2501TIP3    H228995   4.501   3.021   3.896 -1.0924 -0.2577  0.6050
 2502TIP3   OH228996   1.615   2.196  12.097  0.0063  0.5473  0.3838
 2502TIP3    H128997   1.668   2.256  12.045 -0.5627  0.8169  0.1012
 2502TIP3    H228998   1.525   2.218  12.074 -0.1961 -1.9765 -1.4661
 2503TIP3   OH228999   2.177   6.266  14.115 -0.1887  0.8915  0.7889
 2503TIP3    H129000   2.178   6.190  14.057 -1.5368  1.4350  0.0330
 2503TIP3    H229001   2.103   6.250  14.174 -0.5812  1.7000  0.5180
 2504TIP3   OH229002   6.173   1.138  11.908  0.5699  0.3133  0.1330
 2504TIP3    H129003   6.207   1.162  11.822 -2.5204  0.8998 -0.9600
 2504TIP3    H229004   6.103   1.200  11.925  0.4727 -0.4141  2.6742
 2505TIP3   OH229005   6.643   5.937  12.866 -0.0335  0.1235  0.7019
 2505TIP3    H129006   6.644   5.949  12.771  0.5364  2.5286  0.9802
 2505TIP3    H229007   6.656   5.843  12.879 -1.3234 -0.4015 -1.6143
 2506TIP3   OH229008   5.167   0.763  12.656  0.5314 -0.7720 -0.9562
 2506TIP3    H129009   5.257   0.780  12.630  0.3893  1.4860 -0.0447
 2506TIP3    H229010   5.128   0.850  12.669 -1.0958 -1.7388  0.9449
 2507TIP3   OH229011   5.334   6.266  16.062  0.2553 -0.4554  0.2787
 2507TIP3    H129012   5.397   6.338  16.068  0.4980 -0.4321 -2.2872
 2507TIP3    H229013   5.381   6.190  16.097  0.7585  0.1424  0.9037
 2508TIP3   OH229014   6.229   2.669  16.163  0.0793  0.3916  0.5893
 2508TIP3    H129015   6.240   2.611  16.238 -0.3484  0.5540  0.7791
 2508TIP3    H229016   6.213   2.756  16.201  0.2758  0.5528  0.3091
 2509TIP3   OH229017   0.762   6.082   3.880 -0.5359  0.0467  0.2497
 2509TIP3    H129018   0.718   6.000   3.903 -1.6317  0.5793  0.1103
 2509TIP3    H229019   0.845   6.079   3.927 -0.5309 -1.1779  0.1740
 2510TIP3   OH229020   6.038   4.558   6.076 -0.0463 -0.3017 -0.0431
 2510TIP3    H129021   6.054   4.653   6.075 -0.7096 -0.1883  0.1209
 2510TIP3    H229022   6.082   4.528   6.156  1.5266 -0.3775 -0.9123
 2511TIP3   OH229023   2.299   5.633   5.570  0.1612  0.5488 -0.2335
 2511TIP3    H129024   2.223   5.691   5.571 -0.6936 -0.5288 -0.7311
 2511TIP3    H229025   2.265   5.551   5.534  1.5160 -0.0174 -0.2388
 2512TIP3   OH229026   6.090   0.121  16.410  0.2363  0.4641  0.0590
 2512TIP3    H129027   6.139   0.110  16.328  1.1678 -0.9643  0.7789
 2512TIP3    H229028   6.105   0.039  16.457 -0.9967  0.9406  1.2888
 2513TIP3   OH229029   5.791   3.334   1.697 -0.3649  0.0074  0.0535
 2513TIP3    H129030   5.738   3.254   1.692  1.3478 -1.1697  0.1102
 2513TIP3    H229031   5.763   3.376   1.778 -1.1295 -0.6686  0.1516
 2514TIP3   OH229032   4.104   2.831   5.239 -0.9599 -0.0227 -0.3927
 2514TIP3    H129033   4.047   2.855   5.166  1.4264  2.2233 -1.6082
 2514TIP3    H229034   4.084   2.894   5.308 -2.8234 -1.8010  0.7194
 2515TIP3   OH229035   6.395   1.764   1.793 -0.1061  0.1781 -0.3293
 2515TIP3    H129036   6.375   1.675   1.764  1.1244  0.1848 -1.2527
 2515TIP3    H229037   6.476   1.786   1.747  0.5765  1.1087  1.2651
 2516TIP3   OH229038   0.062   2.445  13.765 -0.2411  0.5905  0.0436
 2516TIP3    H129039   0.049   2.525  13.714  1.3919  0.2722 -0.9244
 2516TIP3    H229040   0.087   2.475  13.852 -1.3277  1.1273  0.1836
 2517TIP3   OH229041   0.037   0.193  13.828  0.4460  1.0300  0.7218
 2517TIP3    H129042   0.032   0.282  13.793  0.6918  0.8227  0.1539
 2517TIP3    H229043  -0.001   0.199  13.916 -0.1526  1.5569  0.4275
 2518TIP3   OH229044   4.030   2.966  14.625  0.4302  0.0118  0.1603
 2518TIP3    H129045   4.061   3.009  14.705 -0.6362 -0.8238  1.0395
 2518TIP3    H229046   4.001   2.880  14.654 -1.7504  0.4046 -0.8063
 2519TIP3   OH229047   2.632   1.447   5.184  0.5504 -0.1088  0.4185
 2519TIP3    H129048   2.590   1.519   5.137  2.6851 -0.5316 -2.2871
 2519TIP3    H229049   2.668   1.487   5.263  0.1544  1.4198 -0.1602
 2520TIP3   OH229050   0.393   6.102  15.189 -0.3445  0.2613  0.3657
 2520TIP3    H129051   0.318   6.142  15.146  2.4197  3.8283 -1.3810
 2520TIP3    H229052   0.425   6.038  15.126  0.0197  1.0785 -0.2841
 2521TIP3   OH229053   5.594   2.520   0.560 -0.3537  0.8746  0.0150
 2521TIP3    H129054   5.569   2.561   0.642  1.2200 -0.4471  1.1729
 2521TIP3    H229055   5.600   2.427   0.580  1.3382  0.6871 -1.2483
 2522TIP3   OH229056   5.545   4.783  14.136 -0.3301  0.1030 -0.1490
 2522TIP3    H129057   5.582   4.866  14.164  0.4994  0.0343 -1.0070
 2522TIP3    H229058   5.512   4.800  14.048 -0.5515 -0.3518 -0.1549
 2523TIP3   OH229059   0.347   4.104   0.762  0.1395  0.3268  0.4551
 2523TIP3    H129060   0.253   4.115   0.751 -0.0978  1.3641  3.1956
 2523TIP3    H229061   0.356   4.051   0.841  1.8704  0.7794  0.5827
 2524TIP3   OH229062   4.488   2.714   4.545  0.3222  0.8711 -0.2361
 2524TIP3    H129063   4.530   2.739   4.463  0.4281  1.8111  0.1061
 2524TIP3    H229064   4.410   2.770   4.550  0.8635  1.5481  0.8067
 2525TIP3   OH229065   3.311   4.068  16.378 -0.7643 -0.0809 -0.3972
 2525TIP3    H129066   3.260   4.125  16.434 -1.4479 -1.5940  0.5340
 2525TIP3    H229067   3.357   4.009  16.438 -1.2789 -1.5254 -1.3815
 2526TIP3   OH229068   5.468   0.278  15.078  0.6490  0.4930 -0.5309
 2526TIP3    H129069   5.465   0.303  15.170  0.3945  0.2159 -0.4638
 2526TIP3    H229070   5.408   0.339  15.035 -0.3944 -0.3387 -0.2852
 2527TIP3   OH229071   6.015   4.294   6.064  0.1723  0.2368  0.3183
 2527TIP3    H129072   5.921   4.282   6.076  0.5899 -2.2394  1.4904
 2527TIP3    H229073   6.029   4.388   6.076 -2.0983  0.5797  0.4457
 2528TIP3   OH229074   2.312   5.296   3.397  0.2955  0.3273 -0.1617
 2528TIP3    H129075   2.289   5.384   3.368 -0.2627  0.0656 -0.5339
 2528TIP3    H229076   2.319   5.303   3.492  1.1269  0.9676 -0.2619
 2529TIP3   OH229077   2.569   5.876  15.650 -0.3330  0.3442  0.3273
 2529TIP3    H129078   2.605   5.788  15.641 -1.8977 -0.4025  1.1813
 2529TIP3    H229079   2.641   5.928  15.685  0.9083 -0.3525 -1.1023
 2530TIP3   OH229080   6.382   4.746  11.183 -0.4899 -0.3858  0.5191
 2530TIP3    H129081   6.355   4.837  11.168 -0.3445 -0.4456 -0.0775
 2530TIP3    H229082   6.449   4.753  11.251 -0.1330 -0.0012  0.1326
 2531TIP3   OH229083   1.129   4.405   1.853 -0.0638  0.2127 -0.1523
 2531TIP3    H129084   1.138   4.394   1.759  0.2188 -2.6629  0.1608
 2531TIP3    H229085   1.035   4.413   1.868 -0.0143  2.1683 -0.7958
 2532TIP3   OH229086   3.569   1.667   4.952 -0.2336  0.1640  0.0131
 2532TIP3    H129087   3.603   1.715   4.876  2.2400  0.9197  1.5090
 2532TIP3    H229088   3.593   1.576   4.935  0.0368  0.2855 -0.2720
 2533TIP3   OH229089   2.889   1.330   3.100  0.1930 -0.0602 -0.0248
 2533TIP3    H129090   2.838   1.256   3.067 -2.8407  2.4527 -1.1873
 2533TIP3    H229091   2.946   1.354   3.027 -0.5344  0.2415 -0.4999
 2534TIP3   OH229092   2.324   0.976   5.778 -0.1751  0.6231  0.3844
 2534TIP3    H129093   2.363   1.061   5.799 -0.6051  1.2726 -1.3570
 2534TIP3    H229094   2.392   0.912   5.798  0.9399  1.5572 -0.3939
 2535TIP3   OH229095   3.721   5.939  14.425  0.3479 -0.5368 -0.2189
 2535TIP3    H129096   3.636   5.972  14.397  0.3221  0.2527  0.7732
 2535TIP3    H229097   3.701   5.868  14.486  0.4004 -2.6720 -2.5948
 2536TIP3   OH229098   6.309   2.229  16.909 -0.1046 -0.0714 -0.1711
 2536TIP3    H129099   6.265   2.295  16.856 -0.7723  0.1271  0.6317
 2536TIP3    H229100   6.238   2.181  16.952  0.3544 -1.4974 -0.9565
 2537TIP3   OH229101   1.397   4.290   0.333  0.5829 -0.0863  0.0945
 2537TIP3    H129102   1.447   4.231   0.389 -0.1496  0.5026  1.4014
 2537TIP3    H229103   1.307   4.258   0.338 -0.1654  2.2043  2.3283
 2538TIP3   OH229104   5.184   4.593  15.611  0.9682 -0.5618 -0.2921
 2538TIP3    H129105   5.113   4.576  15.550 -0.7047  1.2242  1.0932
 2538TIP3    H229106   5.262   4.602  15.556  0.1274 -2.4753 -1.8341
 2539TIP3   OH229107   5.598   1.467  10.877 -0.7092 -0.2590  0.0589
 2539TIP3    H129108   5.628   1.414  10.950  3.8075  2.0442  0.0119
 2539TIP3    H229109   5.614   1.557  10.904 -2.7566  0.8671 -2.2070
 2540TIP3   OH229110   0.891   5.173   6.144 -0.0287 -0.5562 -0.3429
 2540TIP3    H129111   0.857   5.109   6.081 -1.0042 -1.4359  1.0292
 2540TIP3    H229112   0.923   5.245   6.091 -0.0816 -1.6409 -1.8767
 2541TIP3   OH229113   2.595   6.314  13.906  0.1395  0.2749  0.2167
 2541TIP3    H129114   2.620   6.253  13.976  0.1696 -2.3044 -1.9240
 2541TIP3    H229115   2.642   6.394  13.926 -0.0861 -0.2835  3.3002
 2542TIP3   OH229116   0.607   0.347  12.357 -0.1858  0.0520  0.5041
 2542TIP3    H129117   0.601   0.345  12.453 -2.0561  0.3080  0.4066
 2542TIP3    H229118   0.578   0.260  12.330 -2.6289  0.9549  0.0612
 2543TIP3   OH229119   1.139   3.191   4.529  0.5309  0.3896  0.3488
 2543TIP3    H129120   1.169   3.235   4.449  0.5655 -1.3292 -0.5904
 2543TIP3    H229121   1.051   3.160   4.507  1.5413 -2.3984  0.0515
 2544TIP3   OH229122   0.100   4.290  15.255 -0.0418 -0.4070  0.4524
 2544TIP3    H129123   0.081   4.290  15.161 -0.2551  2.8936  0.4557
 2544TIP3    H229124   0.014   4.280  15.296  0.0142 -1.4859  0.3345
 2545TIP3   OH229125   0.096   5.559  15.790 -0.4592 -0.0749 -0.3368
 2545TIP3    H129126   0.076   5.614  15.866  0.1738  0.6975 -0.7186
 2545TIP3    H229127   0.189   5.536  15.801 -0.4734 -0.2881 -0.6696
 2546TIP3   OH229128   2.079   2.232   1.411  0.5551  0.0542 -0.1175
 2546TIP3    H129129   2.091   2.326   1.423  0.1368  0.1609 -0.5525
 2546TIP3    H229130   2.008   2.224   1.348  0.8216 -0.5503 -0.3474
 2547TIP3   OH229131   0.247   5.152  13.081 -0.2046  0.3531 -0.5602
 2547TIP3    H129132   0.300   5.148  13.001 -0.5995  0.4563 -0.8300
 2547TIP3    H229133   0.302   5.197  13.144  0.3217 -0.2229 -0.6095
 2548TIP3   OH229134   6.312   3.879  14.081  0.6165  0.5732  0.1731
 2548TIP3    H129135   6.299   3.887  13.986 -1.2623 -0.3753  0.3203
 2548TIP3    H229136   6.264   3.953  14.117  2.2863  1.5808  0.3261
 2549TIP3   OH229137   0.154   2.525  17.171  0.3713  0.1805  0.9663
 2549TIP3    H129138   0.190   2.467  17.237  0.3069 -1.3613 -0.3284
 2549TIP3    H229139   0.215   2.599  17.169  2.4247 -1.4731  0.2118
 2550TIP3   OH229140   1.842   3.355   1.657  0.1802 -0.0352 -0.0233
 2550TIP3    H129141   1.856   3.386   1.568  0.5179 -1.7656 -0.5984
 2550TIP3    H229142   1.929   3.329   1.687 -0.0514 -0.1597  0.5439
 2551TIP3   OH229143   4.985   2.019   4.842  0.1914  0.6642 -0.2043
 2551TIP3    H129144   4.978   1.936   4.888  0.3811  0.5932 -0.3038
 2551TIP3    H229145   5.077   2.025   4.816 -0.0807  0.3402 -1.2634
 2552TIP3   OH229146   4.496   5.358   1.416  0.0629 -0.1088  0.1482
 2552TIP3    H129147   4.446   5.301   1.357 -1.1696  1.8392 -0.7170
 2552TIP3    H229148   4.587   5.332   1.402 -0.4764 -1.8997 -0.1917
 2553TIP3   OH229149   4.033   0.636  11.456 -0.4616 -0.4121  0.0899
 2553TIP3    H129150   3.969   0.704  11.435  0.2353  0.5681  1.0703
 2553TIP3    H229151   4.044   0.642  11.551  2.2865  0.5807 -0.2168
 2554TIP3   OH229152   2.658   6.006   3.408  0.1749 -0.2100  0.0957
 2554TIP3    H129153   2.634   6.029   3.318  0.4976 -0.0254  0.0568
 2554TIP3    H229154   2.615   6.072   3.462 -0.3986 -0.5897  0.1125
 2555TIP3   OH229155   0.448   2.974  12.139 -0.8187  0.6725  0.0583
 2555TIP3    H129156   0.484   3.004  12.056 -1.8907  0.8689 -0.3461
 2555TIP3    H229157   0.478   3.038  12.203 -0.6044  0.9348 -0.3060
 2556TIP3   OH229158   2.541   3.943  14.092 -0.4046  0.2118  0.2500
 2556TIP3    H129159   2.591   3.967  14.014 -0.7514 -2.5947 -0.8983
 2556TIP3    H229160   2.575   4.000  14.161  0.0174  2.6425 -1.8975
 2557TIP3   OH229161   1.912   4.593   0.506  0.0499  0.1365 -0.8849
 2557TIP3    H129162   1.901   4.518   0.448  1.1859 -1.1805  0.5454
 2557TIP3    H229163   1.874   4.565   0.589  2.1268  0.4010  0.2106
 2558TIP3   OH229164   3.309   5.098  15.230  0.1833  0.3965 -0.0694
 2558TIP3    H129165   3.214   5.102  15.214  0.2757  0.5414 -0.5981
 2558TIP3    H229166   3.321   5.141  15.315 -0.3435 -0.5554  0.4964
 2559TIP3   OH229167   6.403   1.308  12.536  0.2116 -0.0517 -0.2339
 2559TIP3    H129168   6.483   1.343  12.498  0.4696  0.5455  0.8341
 2559TIP3    H229169   6.353   1.275  12.461  2.0839 -1.7495 -0.7827
 2560TIP3   OH229170   5.421   1.897   0.786  0.1849  0.4438  0.2789
 2560TIP3    H129171   5.379   1.823   0.831 -0.8722  0.8786  0.0280
 2560TIP3    H229172   5.363   1.972   0.804 -0.2160  0.6376 -1.7531
 2561TIP3   OH229173   6.688   0.122  16.642  0.6737  0.2703 -0.6236
 2561TIP3    H129174   6.597   0.152  16.646  0.3345 -0.4137 -2.7142
 2561TIP3    H229175   6.734   0.191  16.595  0.7944 -0.3637 -1.4480
 2562TIP3   OH229176   2.494   3.722   0.839  0.7952 -0.3777 -0.2758
 2562TIP3    H129177   2.475   3.677   0.756  0.7008 -3.4582  1.3597
 2562TIP3    H229178   2.574   3.681   0.870  0.9177  0.8859  1.1170
 2563TIP3   OH229179   2.091   3.639   1.521 -0.1199  0.4719  0.3470
 2563TIP3    H129180   1.998   3.620   1.536  0.0260 -1.0234 -0.5216
 2563TIP3    H229181   2.094   3.676   1.433  0.2238 -0.5690 -0.0922
 2564TIP3   OH229182   1.410   0.881  13.749 -0.2017 -0.0872 -0.3045
 2564TIP3    H129183   1.343   0.943  13.777 -1.1909 -1.2907  0.0800
 2564TIP3    H229184   1.466   0.870  13.826  1.4030  2.1071 -1.1069
 2565TIP3   OH229185   1.034   5.852   6.345 -0.7292  0.5298  0.1419
 2565TIP3    H129186   1.016   5.906   6.422 -0.2851  1.5728 -0.4823
 2565TIP3    H229187   1.101   5.791   6.375 -0.7298  0.7725  0.6552
 2566TIP3   OH229188   3.078   2.330  13.419 -0.2271  0.0723  0.1895
 2566TIP3    H129189   3.009   2.265  13.407 -0.1294  0.3447 -2.2436
 2566TIP3    H229190   3.150   2.282  13.460 -0.6767 -1.0118 -0.2749
 2567TIP3   OH229191   2.811   0.251  16.489  0.2800 -0.0690  0.1261
 2567TIP3    H129192   2.762   0.308  16.549  1.1999  2.0162 -1.0534
 2567TIP3    H229193   2.842   0.179  16.544 -1.8166 -0.0103  1.4348
 2568TIP3   OH229194   4.821   1.200  12.464 -0.2886 -0.3733 -0.1870
 2568TIP3    H129195   4.843   1.216  12.373  0.1157 -0.9631 -0.1946
 2568TIP3    H229196   4.729   1.173  12.462 -0.4560  0.1980 -0.3523
 2569TIP3   OH229197   3.999   6.255  14.956  0.4147 -0.1263 -0.5424
 2569TIP3    H129198   4.067   6.321  14.942  0.9870 -0.3150  1.1919
 2569TIP3    H229199   4.043   6.186  15.006 -1.1918  0.0511  1.1611
 2570TIP3   OH229200   2.147   4.473  14.107  0.2646  0.0030 -0.7492
 2570TIP3    H129201   2.131   4.566  14.095  0.6106 -0.0197 -1.4352
 2570TIP3    H229202   2.067   4.439  14.148  0.2380  0.6425 -0.2719
 2571TIP3   OH229203   3.261   5.854   1.966  0.5994 -0.2211 -0.3094
 2571TIP3    H129204   3.248   5.944   1.936  0.1718  0.3149  1.3810
 2571TIP3    H229205   3.174   5.826   1.996  1.1162 -0.5071  0.9481
 2572TIP3   OH229206   0.445   6.522   5.221 -0.2939 -0.9615  0.4248
 2572TIP3    H129207   0.440   6.429   5.201 -0.9869 -1.0150  0.8703
 2572TIP3    H229208   0.387   6.563   5.157  0.9585 -0.7184 -0.5705
 2573TIP3   OH229209   2.934   4.847   0.168  0.0700 -0.5081 -0.3044
 2573TIP3    H129210   3.006   4.878   0.113  0.7941  1.4207  1.6920
 2573TIP3    H229211   2.971   4.773   0.216 -0.3301 -1.6943 -1.7777
 2574TIP3   OH229212   2.179   5.560   3.512  0.4881 -0.2547 -0.2833
 2574TIP3    H129213   2.115   5.615   3.558 -2.2717 -2.7162 -1.0381
 2574TIP3    H229214   2.192   5.485   3.569  1.3179 -0.6783 -1.0179
 2575TIP3   OH229215   1.690   4.962  17.251  0.0933  0.9971  0.5291
 2575TIP3    H129216   1.771   4.966  17.199 -0.5553  1.1630 -0.4744
 2575TIP3    H229217   1.708   5.019  17.326  1.6131 -0.4980  1.3281
 2576TIP3   OH229218   2.376   3.957  14.667 -0.0159 -0.1766 -0.5574
 2576TIP3    H129219   2.299   3.957  14.610 -0.7438  0.2590  0.4247
 2576TIP3    H229220   2.372   4.040  14.714 -0.8444 -1.6128  2.0121
 2577TIP3   OH229221   5.763   1.916   3.852 -0.0419 -0.1402 -0.4823
 2577TIP3    H129222   5.683   1.911   3.905  0.4452 -2.5298  0.0941
 2577TIP3    H229223   5.834   1.923   3.916  0.4217 -1.3230 -0.8514
 2578TIP3   OH229224   5.372   6.449   2.905 -0.0352  0.2122 -0.1670
 2578TIP3    H129225   5.391   6.367   2.951  1.2516  0.0450 -0.9642
 2578TIP3    H229226   5.458   6.481   2.877 -0.4505  2.2072  0.7555
 2579TIP3   OH229227   3.770   3.914  14.101 -0.6656 -0.3621  0.0523
 2579TIP3    H129228   3.829   3.846  14.133 -0.2617 -0.2942 -0.5308
 2579TIP3    H229229   3.792   3.991  14.153  2.1206  0.5974 -2.3910
 2580TIP3   OH229230   5.706   1.615   2.517 -0.0454 -0.4789 -0.0052
 2580TIP3    H129231   5.762   1.683   2.482  0.1829 -0.3712  0.5594
 2580TIP3    H229232   5.752   1.533   2.498  0.0514 -0.4256  0.0009
 2581TIP3   OH229233   3.265   0.018   1.688  0.6528 -0.3321  0.0771
 2581TIP3    H129234   3.262   0.114   1.685  3.6197 -0.2014 -1.1523
 2581TIP3    H229235   3.304  -0.007   1.604 -0.4902 -2.6490  0.2144
 2582TIP3   OH229236   1.042   1.999   4.215 -0.0429  0.1607 -0.0850
 2582TIP3    H129237   0.995   2.067   4.265  0.5836  0.2087  0.4560
 2582TIP3    H229238   0.975   1.959   4.160 -0.8885 -0.3279  1.2729
 2583TIP3   OH229239   1.111   4.834   3.482 -0.9528 -0.7319 -0.1346
 2583TIP3    H129240   1.175   4.817   3.413  0.8791 -1.0833  1.6245
 2583TIP3    H229241   1.102   4.930   3.483 -0.7983 -0.7108 -0.6979
 2584TIP3   OH229242   6.414   0.059  14.900 -0.0547  0.2332 -0.3649
 2584TIP3    H129243   6.491   0.022  14.856 -0.6194  0.3817 -1.4844
 2584TIP3    H229244   6.380  -0.013  14.954  0.1758 -0.1851 -0.7808
 2585TIP3   OH229245   5.858   6.248  13.434  1.0254 -0.3022 -0.3429
 2585TIP3    H129246   5.875   6.176  13.372 -0.4084 -0.3529 -0.7052
 2585TIP3    H229247   5.780   6.291  13.399  0.4689 -0.0498  1.1944
 2586TIP3   OH229248   1.523   6.450  13.462  0.6913  0.2181  0.2446
 2586TIP3    H129249   1.453   6.392  13.491 -1.1013  1.3128 -1.6824
 2586TIP3    H229250   1.581   6.458  13.537 -1.0162 -1.1106  1.7448
 2587TIP3   OH229251   3.516   3.649   5.460  0.5318 -0.4591  0.7614
 2587TIP3    H129252   3.473   3.618   5.540  1.1043 -0.6306  1.0026
 2587TIP3    H229253   3.605   3.671   5.487  1.2615 -2.1829 -0.1859
 2588TIP3   OH229254   1.294   3.461   0.402 -0.1706  0.5389 -0.7375
 2588TIP3    H129255   1.243   3.382   0.420  1.3243  0.1023  1.8007
 2588TIP3    H229256   1.230   3.531   0.400 -1.0384 -0.1863  1.0571
 2589TIP3   OH229257   0.319   1.259  15.889 -0.2841 -0.0219 -0.1394
 2589TIP3    H129258   0.338   1.350  15.870  0.2728 -0.4695 -1.8052
 2589TIP3    H229259   0.306   1.218  15.803 -0.9009 -1.4273  0.5960
 2590TIP3   OH229260   4.656   4.341  11.233 -0.5194  0.3472  0.5009
 2590TIP3    H129261   4.720   4.322  11.164 -3.2493 -0.6189 -1.8866
 2590TIP3    H229262   4.647   4.259  11.281 -0.6506  0.1946  0.2201
 2591TIP3   OH229263   4.763   4.325   2.095  0.4096 -0.5643 -0.3395
 2591TIP3    H129264   4.842   4.320   2.042  0.9713  0.6293  0.3680
 2591TIP3    H229265   4.788   4.288   2.180  0.3629  0.2774  0.0511
 2592TIP3   OH229266   0.254   2.949  12.435  0.2008 -0.1930 -0.1144
 2592TIP3    H129267   0.181   2.972  12.494 -0.4207 -0.5357 -0.7504
 2592TIP3    H229268   0.331   2.986  12.478 -0.5188  1.3286 -0.0967
 2593TIP3   OH229269   5.312   3.876   4.816  0.2590  0.0144  0.0659
 2593TIP3    H129270   5.387   3.911   4.864  0.8433  1.6439 -1.9560
 2593TIP3    H229271   5.348   3.804   4.764 -0.2218 -1.2597  1.4797
 2594TIP3   OH229272   5.199   3.333  12.245 -0.7939 -0.2259 -0.2241
 2594TIP3    H129273   5.216   3.310  12.154  0.0278 -1.9217  0.3420
 2594TIP3    H229274   5.142   3.264  12.277 -1.3518  0.5455  0.4611
 2595TIP3   OH229275   0.462   1.539   4.636  0.5928 -0.2964 -0.8466
 2595TIP3    H129276   0.496   1.449   4.632  0.3897 -0.4198  0.1658
 2595TIP3    H229277   0.537   1.591   4.665  0.8829 -0.0378 -2.0301
 2596TIP3   OH229278   1.996   4.236   5.376 -0.0944 -0.4622 -0.0952
 2596TIP3    H129279   1.923   4.237   5.439 -1.2774 -1.6548 -1.4193
 2596TIP3    H229280   1.984   4.315   5.323  0.4545  0.1275  0.6373
 2597TIP3   OH229281   4.451   0.381   6.525 -0.1502 -0.1064 -0.1386
 2597TIP3    H129282   4.540   0.407   6.504 -0.3056  1.0598  0.6023
 2597TIP3    H229283   4.452   0.368   6.620 -0.4606 -1.2944 -0.2979
 2598TIP3   OH229284   5.516   5.178   5.135 -0.7113 -0.2300 -0.3674
 2598TIP3    H129285   5.607   5.172   5.166 -0.5725 -0.7114 -0.8670
 2598TIP3    H229286   5.491   5.269   5.152  0.6301  0.5395 -2.3501
 2599TIP3   OH229287   0.870   4.675   2.638  0.0507  0.1062 -0.1165
 2599TIP3    H129288   0.955   4.636   2.617  0.2008 -0.2613  1.1441
 2599TIP3    H229289   0.892   4.761   2.675 -0.2181  0.8132 -1.5628
 2600TIP3   OH229290   3.505   3.993   2.452  0.0964  0.0656 -0.0218
 2600TIP3    H129291   3.576   4.052   2.479  0.5791 -0.2305 -0.6348
 2600TIP3    H229292   3.425   4.038   2.477  0.3655  2.0564 -2.5782
 2601TIP3   OH229293   4.738   0.262  17.178 -0.2466 -0.1481  0.2140
 2601TIP3    H129294   4.798   0.214  17.121 -0.5804 -1.9665  1.3592
 2601TIP3    H229295   4.673   0.300  17.119  1.1940  0.6293 -0.8971
 2602TIP3   OH229296   3.545   1.697  16.781 -0.2674 -0.0798  0.0674
 2602TIP3    H129297   3.456   1.733  16.777  0.1284  0.8578 -0.7709
 2602TIP3    H229298   3.567   1.699  16.874 -1.0963 -0.2587  0.2739
 2603TIP3   OH229299   3.505   4.892   2.036  0.0158 -0.0928 -0.0902
 2603TIP3    H129300   3.544   4.828   2.096 -0.7271  0.1037  0.6114
 2603TIP3    H229301   3.538   4.866   1.950 -0.9498 -1.9552  0.0626
 2604TIP3   OH229302   4.702   3.111   2.490  0.7135 -0.5506  0.1839
 2604TIP3    H129303   4.742   3.104   2.577  0.9274  1.3004  0.2649
 2604TIP3    H229304   4.705   3.022   2.455  0.2528 -1.4086  2.2269
 2605TIP3   OH229305   2.043   0.405  15.852 -0.6478  0.2416  0.1970
 2605TIP3    H129306   2.035   0.361  15.767 -0.4857  1.8941 -0.6961
 2605TIP3    H229307   1.979   0.476  15.847 -0.5132  0.4460  1.4072
 2606TIP3   OH229308   4.917   1.044  13.407 -0.6239 -0.5652  0.1750
 2606TIP3    H129309   4.880   1.107  13.469  0.5941  0.9007 -0.5652
 2606TIP3    H229310   4.896   1.079  13.321 -0.2547 -1.3705 -0.2468
 2607TIP3   OH229311   1.314   4.513  15.213  0.2207 -0.6140 -0.0774
 2607TIP3    H129312   1.403   4.546  15.203  0.1552 -0.5041 -0.3139
 2607TIP3    H229313   1.267   4.547  15.136 -0.0553 -0.5708  0.1098
 2608TIP3   OH229314   6.482   4.029   3.668  0.7957  0.2141  0.1297
 2608TIP3    H129315   6.404   4.021   3.614  2.1699  1.5465 -2.1551
 2608TIP3    H229316   6.488   3.945   3.714 -1.8923  0.0637  0.2951
 2609TIP3   OH229317   6.437   5.331   1.048 -0.4084 -0.3322 -0.0748
 2609TIP3    H129318   6.412   5.414   1.088 -0.8240 -0.8401  0.7205
 2609TIP3    H229319   6.402   5.264   1.107  1.1161 -1.0606  0.0339
 2610TIP3   OH229320   6.300   1.915  13.947 -0.0360 -1.0617  0.5618
 2610TIP3    H129321   6.215   1.949  13.920  0.6868  1.1327  0.9299
 2610TIP3    H229322   6.336   1.873  13.869 -0.5927 -0.1912 -0.1716
 2611TIP3   OH229323   0.509   2.445   4.742 -0.1865  0.1139  0.2432
 2611TIP3    H129324   0.600   2.475   4.740 -0.6256  1.5585  1.3093
 2611TIP3    H229325   0.462   2.512   4.792 -1.7537 -0.8594  0.1250
 2612TIP3   OH229326   6.687   3.533  15.757 -0.1450  0.3550  0.4668
 2612TIP3    H129327   6.777   3.553  15.784  0.0310  1.0357 -0.5789
 2612TIP3    H229328   6.632   3.580  15.819  0.2091 -0.6434  1.5459
 2613TIP3   OH229329   5.801   4.668   0.632  0.4260  0.0896 -0.0257
 2613TIP3    H129330   5.838   4.596   0.683  2.0547  0.0436 -1.1920
 2613TIP3    H229331   5.780   4.629   0.547 -3.2781 -0.0947  0.9060
 2614TIP3   OH229332   3.408   2.391  17.065  0.4577  0.1870  0.1510
 2614TIP3    H129333   3.414   2.408  17.159 -0.5336 -0.6243  0.3707
 2614TIP3    H229334   3.326   2.433  17.038 -0.1424 -1.0440 -0.0033
 2615TIP3   OH229335   6.074   0.036   0.616  0.1670  0.5956 -0.4528
 2615TIP3    H129336   6.120   0.023   0.698  0.3075  0.8326 -0.4907
 2615TIP3    H229337   6.086   0.129   0.597 -1.6361  1.0129  0.3162
 2616TIP3   OH229338   2.267   2.422  13.580  0.5619  0.3761 -0.3884
 2616TIP3    H129339   2.209   2.423  13.656 -0.0504  1.2004 -0.8673
 2616TIP3    H229340   2.243   2.500  13.530  0.7426 -0.3335 -1.5957
 2617TIP3   OH229341   3.265   6.642  15.361  0.0549  0.2672  0.7429
 2617TIP3    H129342   3.271   6.579  15.433  1.0078 -1.0959 -0.5075
 2617TIP3    H229343   3.354   6.650  15.328 -0.0289  2.3925  0.9589
 2618TIP3   OH229344   4.546   3.850  12.765 -0.4184 -0.0721 -0.0323
 2618TIP3    H129345   4.563   3.769  12.716 -0.9502  0.2503 -0.7529
 2618TIP3    H229346   4.631   3.894  12.769 -0.5705  0.3836 -1.5474
 2619TIP3   OH229347   3.428   3.980  12.156  0.1156  0.3654  0.2318
 2619TIP3    H129348   3.381   3.907  12.197 -1.1473  0.9510 -0.1544
 2619TIP3    H229349   3.476   4.020  12.228  0.7552 -0.8056  0.4598
 2620TIP3   OH229350   4.728   2.902  12.073  0.1354  0.1580  0.2116
 2620TIP3    H129351   4.647   2.947  12.095 -0.4357 -0.2011 -1.0808
 2620TIP3    H229352   4.793   2.972  12.063 -0.3833  0.5781 -0.2528
 2621TIP3   OH229353   3.964   1.389  11.746 -0.1684  0.6483  0.4019
 2621TIP3    H129354   3.911   1.311  11.763 -1.9874  1.5569 -0.8702
 2621TIP3    H229355   4.022   1.363  11.674 -1.0869  0.5914 -0.3311
 2622TIP3   OH229356   4.370   4.057   3.224  0.4691  0.6467  0.0951
 2622TIP3    H129357   4.288   4.104   3.236  1.3168  2.2595 -0.2245
 2622TIP3    H229358   4.434   4.108   3.274  1.1929 -0.8450  0.7157
 2623TIP3   OH229359   5.998   6.337  13.175 -0.0058  0.0401 -0.3244
 2623TIP3    H129360   5.957   6.422  13.188  0.5585  0.2746 -0.0425
 2623TIP3    H229361   6.086   6.347  13.211  0.3291 -0.4275 -1.0007
 2624TIP3   OH229362   5.275   3.661  12.510  0.6547  0.4110  1.0468
 2624TIP3    H129363   5.214   3.588  12.494  3.2621 -1.3511 -1.3858
 2624TIP3    H229364   5.356   3.619  12.539  1.4907  2.5205  1.8523
 2625TIP3   OH229365   5.225   2.067   4.705 -0.8316  0.0492  0.1041
 2625TIP3    H129366   5.293   2.092   4.768  0.7009 -2.6661 -0.4459
 2625TIP3    H229367   5.241   2.123   4.629  0.2219  0.0295  0.3059
 2626TIP3   OH229368   0.852   3.245  13.420  0.2954  0.0189 -0.2246
 2626TIP3    H129369   0.894   3.181  13.362  1.9394  1.4257 -0.6131
 2626TIP3    H229370   0.801   3.191  13.480 -3.1099 -1.4422 -4.1355
 2627TIP3   OH229371   0.827   5.797   4.989  0.3648  0.3157 -0.1722
 2627TIP3    H129372   0.766   5.726   5.003  1.2571 -0.7612 -1.6094
 2627TIP3    H229373   0.775   5.867   4.950  0.0560 -0.6382 -1.4993
 2628TIP3   OH229374   5.512   5.475  16.411  0.2699  0.2934 -0.5229
 2628TIP3    H129375   5.424   5.470  16.375  0.0952  2.2995 -0.4305
 2628TIP3    H229376   5.505   5.433  16.497 -0.5548  0.3254 -0.5718
 2629TIP3   OH229377   2.542   4.285  11.204 -0.5171 -0.0958 -0.2097
 2629TIP3    H129378   2.620   4.246  11.165 -2.1115 -0.9892 -2.5830
 2629TIP3    H229379   2.522   4.228  11.278  0.6030 -0.3150 -0.0637
 2630TIP3   OH229380   6.154   3.268  11.196  0.8634 -0.0275 -0.1754
 2630TIP3    H129381   6.249   3.279  11.190  0.8051 -0.5005 -2.3185
 2630TIP3    H229382   6.118   3.350  11.162  0.4759  0.5573  1.5739
 2631TIP3   OH229383   0.757   1.062  15.597 -0.7442 -0.3701 -0.2826
 2631TIP3    H129384   0.727   0.978  15.564  0.1455  0.2954 -2.9652
 2631TIP3    H229385   0.847   1.070  15.565 -1.7019  2.7651 -2.4712
 2632TIP3   OH229386   1.335   2.480  15.800 -0.2940  0.5605  0.3497
 2632TIP3    H129387   1.352   2.446  15.888 -0.2706  0.0015  0.1246
 2632TIP3    H229388   1.240   2.474  15.790 -0.2285 -0.0370  0.0646
 2633TIP3   OH229389   4.141   5.985  14.662 -0.1209 -0.2608  0.2006
 2633TIP3    H129390   4.203   5.914  14.648 -0.0696  0.1265 -1.6381
 2633TIP3    H229391   4.192   6.055  14.702  0.2502 -0.5309  0.1976
 2634TIP3   OH229392   1.646   5.126   3.479  0.6023  0.0818 -0.5450
 2634TIP3    H129393   1.626   5.034   3.461  3.0969 -0.8024  0.9263
 2634TIP3    H229394   1.624   5.137   3.572  0.6566  0.8869 -0.6241
 2635TIP3   OH229395   2.532   4.030   5.765  0.5168  0.0842 -0.2100
 2635TIP3    H129396   2.460   4.092   5.758  0.5279  0.1395  0.1916
 2635TIP3    H229397   2.578   4.054   5.845  1.5353  0.6369 -0.9417
 2636TIP3   OH229398   0.698   5.983  14.424  0.0173 -0.6938  0.6377
 2636TIP3    H129399   0.690   6.078  14.437 -1.3559 -0.5178 -1.2342
 2636TIP3    H229400   0.644   5.965  14.347  1.5850 -2.7596 -0.0178
 2637TIP3   OH229401   2.057   4.525  16.311 -0.4637 -0.4636 -0.6936
 2637TIP3    H129402   2.146   4.530  16.275 -0.4008 -1.3536 -0.6737
 2637TIP3    H229403   2.025   4.440  16.282 -0.8921 -0.6279  0.2707
 2638TIP3   OH229404   6.786   0.517   1.142 -0.4077  0.5006 -0.5788
 2638TIP3    H129405   6.776   0.447   1.207  0.5413  1.1139  0.2422
 2638TIP3    H229406   6.835   0.476   1.071 -2.5723 -0.5429 -1.5162
 2639TIP3   OH229407   5.003   1.975   0.202  0.1916  0.6675 -0.3702
 2639TIP3    H129408   4.964   1.994   0.287 -3.3653  1.7253 -2.1375
 2639TIP3    H229409   4.977   1.884   0.183 -0.4526  0.9867 -1.0438
 2640TIP3   OH229410   2.739   3.489   0.171 -0.1226  0.1238  0.0248
 2640TIP3    H129411   2.734   3.563   0.232 -0.7102  0.7932 -0.8250
 2640TIP3    H229412   2.780   3.525   0.093 -0.1232 -0.5295 -0.2800
 2641TIP3   OH229413   0.342   4.863  14.338  0.1977 -0.3221 -0.0046
 2641TIP3    H129414   0.255   4.902  14.344  0.4241  0.6493 -2.4106
 2641TIP3    H229415   0.329   4.780  14.292  0.6156  0.2687 -1.2418
 2642TIP3   OH229416   0.228   5.923  16.932 -0.1848  0.1765  0.1984
 2642TIP3    H129417   0.158   5.862  16.909 -0.9821  1.0250  0.3327
 2642TIP3    H229418   0.305   5.868  16.948 -0.7616 -0.7396 -0.1997
 2643TIP3   OH229419   0.806   3.871  16.434  0.3253 -0.1446 -0.3235
 2643TIP3    H129420   0.817   3.854  16.341  0.4644 -2.0021  0.0151
 2643TIP3    H229421   0.874   3.818  16.477  0.9487  1.4988  0.7805
 2644TIP3   OH229422   0.978   6.605  13.473 -0.4802 -0.2125 -0.0112
 2644TIP3    H129423   0.943   6.692  13.492 -2.1348 -1.0896  1.1976
 2644TIP3    H229424   1.025   6.614  13.391 -0.0056  1.9844  0.4810
 2645TIP3   OH229425   0.919   0.416  12.865 -0.1023  0.2237 -0.3207
 2645TIP3    H129426   0.831   0.449  12.842 -0.5688  0.3490  1.6141
 2645TIP3    H229427   0.912   0.321  12.852 -1.1062  0.0119  1.6551
 2646TIP3   OH229428   1.517   2.998  11.971  0.0845  0.5645 -0.5678
 2646TIP3    H129429   1.453   2.980  12.040  0.8155  1.8153  0.4521
 2646TIP3    H229430   1.465   3.022  11.895 -0.7077 -0.0126 -0.2100
 2647TIP3   OH229431   1.899   2.593   4.525 -0.2278  0.5512 -0.0869
 2647TIP3    H129432   1.931   2.630   4.607  1.4473 -2.4499  0.6667
 2647TIP3    H229433   1.960   2.624   4.459  0.3784  0.2394  0.3275
 2648TIP3   OH229434   2.890   6.460   2.555  0.2078  0.2385  0.4376
 2648TIP3    H129435   2.905   6.545   2.596 -1.1744  0.6241  0.1590
 2648TIP3    H229436   2.885   6.399   2.628  0.1228  0.5560  0.6960
 2649TIP3   OH229437   1.241   2.206  16.530  0.4980  0.0611  0.0789
 2649TIP3    H129438   1.212   2.253  16.451 -0.9995 -1.3682 -0.2558
 2649TIP3    H229439   1.252   2.115  16.501 -0.4945 -0.5598  1.6022
 2650TIP3   OH229440   6.213   0.412  13.651 -0.3701 -0.1060 -0.2961
 2650TIP3    H129441   6.278   0.342  13.638  0.1253  0.0665  1.0934
 2650TIP3    H229442   6.151   0.401  13.580 -0.5884 -2.3270  0.1946
 2651TIP3   OH229443   6.749   0.391  12.385 -0.0940  0.6824 -0.4781
 2651TIP3    H129444   6.807   0.323  12.418  1.9252  2.5794 -0.0607
 2651TIP3    H229445   6.686   0.406  12.455  0.8818  0.8746  0.3597
 2652TIP3   OH229446   0.011   5.245   4.459  0.4008 -0.0556  0.4107
 2652TIP3    H129447   0.087   5.187   4.449  0.6315  0.3119  0.0147
 2652TIP3    H229448   0.049   5.333   4.467  0.0799 -0.0106  1.4970
 2653TIP3   OH229449   2.961   2.731  16.203  0.2377  0.6675 -0.5691
 2653TIP3    H129450   2.892   2.691  16.256 -0.9203  1.0550 -1.7801
 2653TIP3    H229451   2.945   2.825  16.208  0.1550  0.7124 -1.5663
 2654TIP3   OH229452   5.948   0.834  14.185  0.3072 -0.1585  0.6433
 2654TIP3    H129453   5.855   0.839  14.207  0.3534 -0.4018  0.9054
 2654TIP3    H229454   5.963   0.741  14.167 -0.3655  0.4163 -3.2576
 2655TIP3   OH229455   2.470   2.351  11.978  0.1851 -0.2729  0.5844
 2655TIP3    H129456   2.392   2.296  11.989  0.3766 -0.4866  0.8706
 2655TIP3    H229457   2.527   2.300  11.920  1.1006 -1.1483  2.2285
 2656TIP3   OH229458   6.172   2.107   4.756 -0.4216  0.2410 -0.1474
 2656TIP3    H129459   6.134   2.027   4.721  0.1051 -0.1744  0.2334
 2656TIP3    H229460   6.256   2.116   4.711 -0.5628  0.6862 -0.3314
 2657TIP3   OH229461   3.239   2.305   4.227 -0.0259 -0.3131 -0.3370
 2657TIP3    H129462   3.288   2.348   4.157  2.5765 -2.4328  0.1006
 2657TIP3    H229463   3.275   2.343   4.307  0.5105 -1.4856 -0.0220
 2658TIP3   OH229464   3.197   2.813  17.280 -0.6781  0.5580 -0.3081
 2658TIP3    H129465   3.213   2.786  17.190  0.5779 -0.5383  0.2302
 2658TIP3    H229466   3.284   2.838  17.313 -1.0848  0.6630  0.6940
 2659TIP3   OH229467   6.277   3.629   5.908 -0.1602 -0.5482  0.1228
 2659TIP3    H129468   6.213   3.593   5.847  0.8476  0.1572 -1.3777
 2659TIP3    H229469   6.362   3.604   5.872  0.4107 -2.7446  2.8902
 2660TIP3   OH229470   6.659   6.260  16.530 -0.3109 -1.0979  0.2807
 2660TIP3    H129471   6.574   6.233  16.496  0.6506 -0.9512 -2.2926
 2660TIP3    H229472   6.668   6.352  16.504  0.7444 -1.1819  0.3270
 2661TIP3   OH229473   1.139   0.347  14.314  0.5079  0.4914 -0.2260
 2661TIP3    H129474   1.218   0.304  14.280  0.3602 -0.4640  0.6213
 2661TIP3    H229475   1.069   0.282  14.302 -0.0232  1.0760 -0.3408
 2662TIP3   OH229476   2.924   3.376   1.244  0.4695 -0.2210 -0.0142
 2662TIP3    H129477   2.908   3.469   1.263  1.9930 -0.2841  1.6731
 2662TIP3    H229478   2.893   3.330   1.322  2.4940 -0.8722  0.4266
 2663TIP3   OH229479   6.555   5.183  13.373  0.2467 -0.0617 -0.5579
 2663TIP3    H129480   6.597   5.167  13.457  0.2309  2.5381 -0.0012
 2663TIP3    H229481   6.603   5.128  13.311  0.8723 -1.2767  0.9929
 2664TIP3   OH229482   5.215   1.377   4.144 -0.1107 -0.0445 -0.0172
 2664TIP3    H129483   5.129   1.402   4.110  0.2927 -0.2423 -1.2170
 2664TIP3    H229484   5.255   1.326   4.073  1.4392  0.9895  0.0841
 2665TIP3   OH229485   1.429   0.455   5.835 -0.3623 -0.0998 -0.1868
 2665TIP3    H129486   1.509   0.456   5.888  0.3254 -1.0943 -1.1735
 2665TIP3    H229487   1.441   0.526   5.772 -0.7377  0.4422  0.3504
 2666TIP3   OH229488   1.937   2.356  16.935  0.3155 -0.1138 -0.3175
 2666TIP3    H129489   1.846   2.385  16.939  0.5512  0.5402  0.4818
 2666TIP3    H229490   1.937   2.272  16.982  0.2372  0.1920  0.2362
 2667TIP3   OH229491   3.632   2.636   0.725 -0.4510  0.6611 -0.4365
 2667TIP3    H129492   3.668   2.628   0.814 -0.1911 -0.9906 -0.6698
 2667TIP3    H229493   3.682   2.708   0.685  0.3039  0.5823  0.3411
 2668TIP3   OH229494   0.733   6.798   4.345  0.1020  0.1577  0.5510
 2668TIP3    H129495   0.820   6.835   4.330  0.6270 -1.0200  0.5872
 2668TIP3    H229496   0.724   6.732   4.275 -0.6494  0.1021  0.7038
 2669TIP3   OH229497   0.637   1.481   0.726 -0.2324 -0.0183  0.2428
 2669TIP3    H129498   0.690   1.407   0.757  0.2036 -0.1017 -0.6755
 2669TIP3    H229499   0.569   1.440   0.673 -1.8420  0.0049  2.2074
 2670TIP3   OH229500   4.014   5.294  13.689 -0.7733  0.4562 -0.4498
 2670TIP3    H129501   3.932   5.268  13.731  0.5986 -1.6092  1.0424
 2670TIP3    H229502   4.069   5.216  13.694  1.7152  2.1681 -0.3926
 2671TIP3   OH229503   5.524   1.209   4.798  0.0668  0.0938 -0.2764
 2671TIP3    H129504   5.591   1.183   4.735 -0.7412  1.1936 -1.6284
 2671TIP3    H229505   5.561   1.285   4.842  0.3884 -0.3129  0.1584
 2672TIP3   OH229506   5.980   6.779  12.691 -0.1493 -0.0157 -0.0797
 2672TIP3    H129507   5.938   6.824  12.765 -1.7521 -2.0845  0.3094
 2672TIP3    H229508   6.070   6.764  12.720  0.4056  2.7989 -0.1799
 2673TIP3   OH229509   2.532   6.008  14.536  0.2320  0.2518 -0.0116
 2673TIP3    H129510   2.510   5.995  14.444 -1.1172 -1.7487  0.5527
 2673TIP3    H229511   2.607   5.951  14.552  0.3620  0.4708  0.1748
 2674TIP3   OH229512   0.450   5.778   0.038 -0.4384 -0.2349  0.2499
 2674TIP3    H129513   0.521   5.827   0.079 -0.3156 -1.4250  1.4646
 2674TIP3    H229514   0.441   5.699   0.091 -1.3842 -1.0057 -1.0326
 2675TIP3   OH229515   6.446   3.146   4.736  0.3681 -0.1582 -0.0108
 2675TIP3    H129516   6.451   3.062   4.690  2.0562  0.2240 -0.5396
 2675TIP3    H229517   6.385   3.198   4.684  0.4373 -0.5477 -0.4813
 2676TIP3   OH229518   1.222   3.407  13.260 -0.7066 -0.7386  0.0037
 2676TIP3    H129519   1.145   3.412  13.316 -0.1458  0.2534  0.7004
 2676TIP3    H229520   1.292   3.377  13.318  0.0095  0.8741 -0.0273
 2677TIP3   OH229521   2.965   5.320   1.353 -0.6923  0.0335  0.2615
 2677TIP3    H129522   2.907   5.366   1.292 -2.9742  1.5740  3.4043
 2677TIP3    H229523   2.905   5.273   1.412  1.3443 -0.2316  2.1931
 2678TIP3   OH229524   2.551   3.875   5.075  0.2276 -0.3909 -0.4018
 2678TIP3    H129525   2.633   3.915   5.103  0.3424 -0.2178 -0.9853
 2678TIP3    H229526   2.578   3.797   5.026 -0.0144 -2.2708  2.3101
 2679TIP3   OH229527   6.090   0.920  12.705  0.4150  0.0830 -0.1302
 2679TIP3    H129528   6.023   0.857  12.682  1.0192 -0.8757  0.7028
 2679TIP3    H229529   6.115   0.960  12.622 -1.5295  0.8137 -0.3775
 2680TIP3   OH229530   4.112   3.159   0.699 -0.2968  0.0549 -0.2324
 2680TIP3    H129531   4.075   3.247   0.703  0.6335  0.5334 -1.9806
 2680TIP3    H229532   4.046   3.107   0.652 -1.1732 -0.3992  1.4127
 2681TIP3   OH229533   1.439   3.822  11.336  0.4680 -0.2831  0.4239
 2681TIP3    H129534   1.394   3.887  11.390  0.7134 -0.9828  1.5046
 2681TIP3    H229535   1.531   3.851  11.336  0.8260 -1.3536  2.0428
 2682TIP3   OH229536   0.929   0.685   2.971  0.3805 -0.3856  0.0440
 2682TIP3    H129537   0.880   0.711   3.049 -0.3160 -1.4014 -0.0497
 2682TIP3    H229538   1.012   0.732   2.978  0.2250 -0.2862  1.2817
 2683TIP3   OH229539   0.258   3.437   4.139  0.0033  0.1753  0.0028
 2683TIP3    H129540   0.337   3.430   4.084  0.5003 -0.8454  0.8135
 2683TIP3    H229541   0.251   3.530   4.159  1.8398  0.1134  1.0910
 2684TIP3   OH229542   2.459   1.895   4.344  0.7027 -0.5790  0.2318
 2684TIP3    H129543   2.453   1.876   4.437 -0.2411  1.2413  0.5618
 2684TIP3    H229544   2.368   1.908   4.316  0.9443 -1.4749 -1.0216
 2685TIP3   OH229545   0.733   1.687  12.955  0.1126 -0.1993 -0.0176
 2685TIP3    H129546   0.786   1.652  12.884 -0.2020  2.8913 -1.8455
 2685TIP3    H229547   0.671   1.746  12.913  0.0180  1.8486  2.8097
 2686TIP3   OH229548   3.400   2.948  11.850 -0.3953  0.0891  0.3725
 2686TIP3    H129549   3.446   3.007  11.910 -0.7018  0.2833  0.4184
 2686TIP3    H229550   3.319   2.926  11.896 -1.0639  0.9728 -0.3610
 2687TIP3   OH229551   5.111   1.153  12.344 -0.4317  0.3895 -0.7754
 2687TIP3    H129552   5.025   1.190  12.323 -0.5760 -0.2549 -1.3341
 2687TIP3    H229553   5.097   1.058  12.342  0.0786  0.2991  0.0446
 2688TIP3   OH229554   0.688   2.197  12.591 -0.0335  0.5524  0.4125
 2688TIP3    H129555   0.624   2.194  12.520 -0.9653  4.7557  0.9435
 2688TIP3    H229556   0.772   2.207  12.546 -0.2303 -0.3466 -0.1727
 2689TIP3   OH229557   4.274   3.135   0.366  0.0298 -0.2102 -0.6288
 2689TIP3    H129558   4.260   3.077   0.291  0.1236  1.6960 -2.1577
 2689TIP3    H229559   4.298   3.076   0.437 -1.1033 -2.1538 -1.8169
 2690TIP3   OH229560   1.076   3.598   5.853 -0.1161  0.1065 -0.0357
 2690TIP3    H129561   1.093   3.504   5.847  1.1607  0.2285  1.4048
 2690TIP3    H229562   1.071   3.626   5.761 -0.9707 -1.4270 -0.4817
 2691TIP3   OH229563   1.759   2.952  11.833 -0.2049 -0.6059 -0.4118
 2691TIP3    H129564   1.777   2.885  11.898 -0.0842 -0.7326 -0.5757
 2691TIP3    H229565   1.664   2.961  11.833 -0.2322 -0.8784 -0.4892
 2692TIP3   OH229566   6.613   3.343   4.836  0.1141  0.6414 -0.0238
 2692TIP3    H129567   6.547   3.290   4.793  0.4456  0.1581  0.0590
 2692TIP3    H229568   6.614   3.425   4.787 -1.8285  1.3504  1.0951
 2693TIP3   OH229569   1.287   4.212   2.791  0.3667 -0.5905 -0.8915
 2693TIP3    H129570   1.213   4.250   2.743  0.6403  1.0541 -0.0642
 2693TIP3    H229571   1.248   4.179   2.872  0.4764 -0.0399 -0.6117
 2694TIP3   OH229572   2.223   2.105  13.117  0.1082  0.2389 -0.0061
 2694TIP3    H129573   2.181   2.059  13.190 -0.3873  0.7246  0.0190
 2694TIP3    H229574   2.178   2.073  13.039 -0.6602  1.1227  0.0592
 2695TIP3   OH229575   2.487   4.548  17.276 -0.5711  0.2809 -0.1815
 2695TIP3    H129576   2.527   4.586  17.355 -0.2768  0.5835 -0.4785
 2695TIP3    H229577   2.426   4.482  17.310  0.4529 -0.4574  0.2589
 2696TIP3   OH229578   3.160   3.092   3.171  0.3316 -0.7287  0.2993
 2696TIP3    H129579   3.091   3.088   3.237  0.7040 -0.3792  0.7160
 2696TIP3    H229580   3.119   3.059   3.091 -0.9672  1.5191 -0.0161
 2697TIP3   OH229581   0.506   1.509   2.574 -0.0281  0.3923 -0.2319
 2697TIP3    H129582   0.530   1.583   2.630  1.7577  1.4373 -2.3102
 2697TIP3    H229583   0.411   1.517   2.564 -0.1492  1.1348  1.3020
 2698TIP3   OH229584   2.157   4.027  14.494 -0.3632 -0.2945  0.1026
 2698TIP3    H129585   2.182   4.089  14.426 -1.2978 -0.2532 -0.2175
 2698TIP3    H229586   2.073   4.061  14.527 -0.6459 -1.1279  0.2475
 2699TIP3   OH229587   0.528   1.758   2.675 -0.4035  0.7582  0.8636
 2699TIP3    H129588   0.529   1.779   2.582 -0.6582 -0.6299  0.5478
 2699TIP3    H229589   0.469   1.823   2.714 -0.7120  1.0062 -0.0198
 2700TIP3   OH229590   0.129   0.076   1.211 -0.3035 -0.3883 -0.6456
 2700TIP3    H129591   0.104   0.106   1.298 -0.1880 -0.3216 -0.6345
 2700TIP3    H229592   0.047   0.052   1.168 -0.2235 -1.9566  0.0516
 2701TIP3   OH229593   0.364   5.231  13.947  0.1640 -0.4111  0.0720
 2701TIP3    H129594   0.373   5.159  14.010  0.7806 -0.5519 -0.1716
 2701TIP3    H229595   0.331   5.189  13.868 -0.1566 -0.3081  0.1485
 2702TIP3   OH229596   5.679   4.023  16.029 -0.0358 -1.0575  0.2012
 2702TIP3    H129597   5.699   4.112  16.001  0.7540 -1.3064 -0.0182
 2702TIP3    H229598   5.584   4.016  16.018 -0.2524  0.0942  1.2065
 2703TIP3   OH229599   3.483   0.829   0.997  0.2531 -0.4709 -0.2897
 2703TIP3    H129600   3.507   0.914   0.960 -0.6521 -0.9192 -1.9789
 2703TIP3    H229601   3.460   0.848   1.088 -1.7785  1.4592 -1.1409
 2704TIP3   OH229602   4.055   3.366  16.879  0.2249 -0.8053  0.0953
 2704TIP3    H129603   4.085   3.417  16.955  0.1176 -1.0541  0.3078
 2704TIP3    H229604   4.136   3.332  16.840  0.2760 -0.7629  0.1637
 2705TIP3   OH229605   4.455   5.817   1.327 -0.3924 -0.2122  0.3491
 2705TIP3    H129606   4.397   5.850   1.258  0.1483 -0.1424 -0.0681
 2705TIP3    H229607   4.455   5.886   1.393  2.1046  1.3965 -1.2939
 2706TIP3   OH229608   2.717   1.758  15.739 -0.4604 -0.3879 -0.3005
 2706TIP3    H129609   2.808   1.767  15.711  0.5077 -3.2659  1.6757
 2706TIP3    H229610   2.713   1.802  15.823 -0.0979 -2.7258  0.9959
 2707TIP3   OH229611   1.718   6.055   5.959  0.7682  0.2815  0.4172
 2707TIP3    H129612   1.808   6.081   5.980  0.8211 -0.2134  0.8152
 2707TIP3    H229613   1.663   6.118   6.006  0.9110  1.5557 -1.0973
 2708TIP3   OH229614   5.502   1.227  12.641 -0.3934 -0.1109  0.2155
 2708TIP3    H129615   5.453   1.269  12.712  0.3319 -0.2922  0.8252
 2708TIP3    H229616   5.558   1.163  12.685 -2.1086 -2.3702 -0.7493
 2709TIP3   OH229617   5.521   3.899   4.260 -0.1058  0.1505  0.0405
 2709TIP3    H129618   5.428   3.909   4.242 -0.0161  0.9206  0.0050
 2709TIP3    H229619   5.533   3.937   4.347  0.0453 -0.6152  0.3592
 2710TIP3   OH229620   1.011   0.288   1.391 -0.1121  0.0180 -0.3953
 2710TIP3    H129621   0.938   0.321   1.445  0.1774 -0.9266  0.5863
 2710TIP3    H229622   1.058   0.367   1.365  0.4882  0.4185  1.8280
 2711TIP3   OH229623   4.738   2.107   3.349  0.0765  0.0872 -0.5372
 2711TIP3    H129624   4.656   2.070   3.317 -1.4573  0.8845  2.3137
 2711TIP3    H229625   4.716   2.197   3.376  1.9097  0.3865  0.0729
 2712TIP3   OH229626   2.223   1.542   2.077  0.3687  0.3581  0.2952
 2712TIP3    H129627   2.139   1.542   2.032 -0.4701 -0.1212  1.8216
 2712TIP3    H229628   2.283   1.499   2.016 -0.3651  1.1655 -1.0167
 2713TIP3   OH229629   3.198   4.846   1.664  0.1173  0.2161 -0.2622
 2713TIP3    H129630   3.115   4.894   1.666  0.0199  0.0565  3.3463
 2713TIP3    H229631   3.171   4.754   1.652 -0.3031  0.1268  1.1952
 2714TIP3   OH229632   6.306   1.529  12.324 -0.0494  0.1222 -0.0368
 2714TIP3    H129633   6.388   1.569  12.355 -0.0866  0.2591 -0.1160
 2714TIP3    H229634   6.270   1.593  12.263 -1.2830  1.0185  1.5819
 2715TIP3   OH229635   2.260   0.086  15.843 -0.7678  0.4881  0.6371
 2715TIP3    H129636   2.313   0.126  15.773 -1.9132  1.6793  0.4361
 2715TIP3    H229637   2.295   0.123  15.924 -0.7995  0.6931  0.5578
 2716TIP3   OH229638   4.766   1.229   5.424  0.0797  0.1482 -0.1470
 2716TIP3    H129639   4.839   1.168   5.425 -0.0071 -0.0097 -1.4861
 2716TIP3    H229640   4.734   1.226   5.333 -1.8892 -0.1621  0.5275
 2717TIP3   OH229641   1.376   4.018  10.816  0.1666  0.1648  0.0845
 2717TIP3    H129642   1.438   4.024  10.743  0.0680 -0.4738 -0.0602
 2717TIP3    H229643   1.291   4.038  10.776 -0.0439 -1.2627 -0.2224
 2718TIP3   OH229644   4.573   2.307   5.544 -0.1074  0.0947  0.6590
 2718TIP3    H129645   4.589   2.380   5.484  3.9410 -0.6669  0.7080
 2718TIP3    H229646   4.531   2.240   5.489  3.0174 -0.3649 -1.2506
 2719TIP3   OH229647   5.860   1.962  14.827 -0.6311  0.1119  0.1399
 2719TIP3    H129648   5.862   1.908  14.747  1.1429  0.5849 -0.1468
 2719TIP3    H229649   5.786   1.927  14.877 -1.4153 -0.5667 -1.4450
 2720TIP3   OH229650   2.133   5.723   0.010  0.2955  0.0609 -0.2758
 2720TIP3    H129651   2.118   5.795   0.071 -0.8825 -0.2567 -0.1792
 2720TIP3    H229652   2.145   5.765  -0.075 -1.6146  0.3256 -0.4400
 2721TIP3   OH229653   0.209   1.326   6.275 -0.5180  0.3748 -0.8873
 2721TIP3    H129654   0.292   1.367   6.297 -1.0221  1.3477 -0.7746
 2721TIP3    H229655   0.189   1.270   6.351 -0.0236  0.2225 -0.8701
 2722TIP3   OH229656   3.337   3.758  16.169 -0.8995 -0.4405 -0.0681
 2722TIP3    H129657   3.373   3.682  16.216  1.5787 -0.0830 -1.2972
 2722TIP3    H229658   3.398   3.829  16.189 -0.6158  0.0806 -2.6228
 2723TIP3   OH229659   6.580   6.308   4.108  0.3563 -0.2393  0.0518
 2723TIP3    H129660   6.599   6.218   4.132 -0.6361 -0.5249 -0.2190
 2723TIP3    H229661   6.527   6.342   4.181 -0.4629 -0.3131 -0.5035
 2724TIP3   OH229662   1.290   2.078  13.974  0.1625  0.8456  0.1973
 2724TIP3    H129663   1.248   1.992  13.974 -0.8723  1.3370  2.0661
 2724TIP3    H229664   1.328   2.087  14.062  2.6736  1.1631 -0.8577
 2725TIP3   OH229665   1.532   2.501  10.999 -0.2846 -0.6688 -0.3738
 2725TIP3    H129666   1.525   2.553  10.919  2.4223 -1.0061 -0.9117
 2725TIP3    H229667   1.575   2.420  10.970  0.1601 -1.0484  1.3018
 2726TIP3   OH229668   4.579   5.819   0.376  0.5787 -0.1772 -0.3622
 2726TIP3    H129669   4.508   5.853   0.430 -0.0168  0.9196 -1.7900
 2726TIP3    H229670   4.656   5.868   0.403  0.3307  0.1920 -0.3203
 2727TIP3   OH229671   3.338   5.417  10.665  0.2623 -0.1533  0.1103
 2727TIP3    H129672   3.415   5.436  10.719  0.2480  2.1869 -0.6442
 2727TIP3    H229673   3.373   5.369  10.590  0.9658  0.6480 -0.0881
 2728TIP3   OH229674   1.264   5.774  11.804  0.0092 -0.4666  0.3302
 2728TIP3    H129675   1.209   5.832  11.752  0.2840 -0.4893  0.0126
 2728TIP3    H229676   1.209   5.750  11.879 -1.2716 -2.3410 -1.1610
 2729TIP3   OH229677   3.234   6.329  15.349  0.6929 -0.1817 -0.4855
 2729TIP3    H129678   3.272   6.245  15.373  0.0797 -0.0406  1.0295
 2729TIP3    H229679   3.274   6.351  15.265  1.4688 -1.5888 -0.4858
 2730TIP3   OH229680   5.859   0.822   0.388 -0.0061  0.2709  0.1464
 2730TIP3    H129681   5.774   0.790   0.359 -0.5934 -0.5957  2.6897
 2730TIP3    H229682   5.922   0.776   0.334 -1.1546  2.0771 -2.8555
 2731TIP3   OH229683   6.474   1.260  13.417 -0.4796 -0.3524  0.5516
 2731TIP3    H129684   6.403   1.323  13.433 -0.5517 -0.5318  0.9328
 2731TIP3    H229685   6.454   1.223  13.331 -0.5923 -0.0626  0.4513
 2732TIP3   OH229686   6.746   3.323   1.833 -0.0006 -0.2397 -0.1572
 2732TIP3    H129687   6.840   3.337   1.823 -0.6222  1.7508 -4.4045
 2732TIP3    H229688   6.738   3.235   1.869  3.4914  0.1703  1.7766
 2733TIP3   OH229689   0.366   0.141   2.732  0.6986  0.4765  0.4115
 2733TIP3    H129690   0.461   0.142   2.746  0.7403 -0.0774  0.1535
 2733TIP3    H229691   0.350   0.063   2.679 -0.2386 -0.9893  2.7831
 2734TIP3   OH229692   6.250   4.988  15.911 -0.0982 -0.0416 -0.1862
 2734TIP3    H129693   6.175   4.945  15.870  0.3361 -1.6888  0.6584
 2734TIP3    H229694   6.219   5.075  15.935 -2.3324 -1.2884  1.7353
 2735TIP3   OH229695   1.454   2.429   5.460 -0.6514  0.6223 -0.5088
 2735TIP3    H129696   1.452   2.460   5.370 -1.2965 -1.2061 -1.1496
 2735TIP3    H229697   1.546   2.411   5.478 -0.8232 -1.6754 -1.7681
 2736TIP3   OH229698   4.298   1.676   4.744 -0.2568  0.2001  0.9571
 2736TIP3    H129699   4.204   1.664   4.731 -0.1168  0.6052 -0.5771
 2736TIP3    H229700   4.305   1.751   4.804 -0.8978  0.7670  0.3326
 2737TIP3   OH229701   6.312   4.390   5.212  0.2989  0.3008 -0.4858
 2737TIP3    H129702   6.326   4.442   5.133  0.2003  2.0101  0.5978
 2737TIP3    H229703   6.223   4.358   5.205  0.0835  0.9610 -0.7823
 2738TIP3   OH229704   1.255   4.885  16.463 -0.4397 -0.1694  0.3169
 2738TIP3    H129705   1.336   4.853  16.422  0.5748  0.4938  1.7349
 2738TIP3    H229706   1.275   4.976  16.487 -1.2192 -0.3248  1.6446
 2739TIP3   OH229707   0.595   2.170   6.197 -0.6491  0.0105  0.7146
 2739TIP3    H129708   0.595   2.263   6.220 -0.4120  0.0341  0.6145
 2739TIP3    H229709   0.646   2.165   6.116 -1.9669  0.0143 -0.1404
 2740TIP3   OH229710   6.474   4.405  11.932  0.6468  0.1574  0.1209
 2740TIP3    H129711   6.436   4.469  11.871  0.7012 -0.2053 -0.2946
 2740TIP3    H229712   6.480   4.452  12.015  2.3017  1.2565 -0.5997
 2741TIP3   OH229713   5.484   1.044   1.353 -0.5031 -0.2903  0.1240
 2741TIP3    H129714   5.492   1.135   1.326  0.4415 -0.4163 -0.0497
 2741TIP3    H229715   5.467   0.996   1.271 -2.2064 -0.1286  0.3775
 2742TIP3   OH229716   5.285   3.876  14.238  0.3804  0.3266  0.0492
 2742TIP3    H129717   5.224   3.848  14.306  0.4466 -0.4412 -0.2044
 2742TIP3    H229718   5.350   3.805  14.234 -0.6299 -0.5004 -2.0822
 2743TIP3   OH229719   5.754   2.353   5.568  0.9953  0.0564  0.2567
 2743TIP3    H129720   5.703   2.303   5.631 -1.7368  0.5974 -1.4611
 2743TIP3    H229721   5.758   2.441   5.605 -0.7517  0.4140 -0.3769
 2744TIP3   OH229722   4.410   1.460   3.852 -0.3815 -0.1199 -0.1296
 2744TIP3    H129723   4.403   1.438   3.759  1.2393 -0.0029 -0.2889
 2744TIP3    H229724   4.405   1.555   3.855  2.3576  0.0703 -0.3929
 2745TIP3   OH229725   3.807   6.439  16.325  0.3812 -0.2422 -0.3021
 2745TIP3    H129726   3.785   6.532  16.332 -0.9582 -0.4923 -0.9968
 2745TIP3    H229727   3.902   6.437  16.318  0.4169  1.0820 -0.3471
 2746TIP3   OH229728   3.398   0.288   5.773  0.1628  0.3192 -0.2979
 2746TIP3    H129729   3.316   0.308   5.727  0.0025  1.3251  0.3904
 2746TIP3    H229730   3.418   0.198   5.749  0.1862  0.8677 -2.4750
 2747TIP3   OH229731   5.568   2.279   4.375 -0.2067  0.2791  0.1151
 2747TIP3    H129732   5.590   2.188   4.394  1.4838  0.7757  0.6612
 2747TIP3    H229733   5.539   2.278   4.283  3.5897 -0.2589 -1.1750
 2748TIP3   OH229734   0.193   5.892  13.838 -0.7036  0.1185 -0.0682
 2748TIP3    H129735   0.220   5.810  13.796 -1.7642 -0.1586 -0.2364
 2748TIP3    H229736   0.109   5.913  13.797 -0.0830  1.6977 -0.5781
 2749TIP3   OH229737   1.928   2.030   5.152  1.0700  0.0263  0.6670
 2749TIP3    H129738   1.853   2.084   5.177  0.4347 -1.2908  1.7285
 2749TIP3    H229739   1.950   2.058   5.064 -1.2157 -0.1150  0.0068
 2750TIP3   OH229740   2.787   2.861  12.826 -0.5535 -0.1741 -0.0610
 2750TIP3    H129741   2.711   2.900  12.870  0.7716  1.6454  0.6405
 2750TIP3    H229742   2.787   2.900  12.739  0.9095  1.5980  0.7195
 2751TIP3   OH229743   4.564   4.942   1.628 -0.2404 -0.0005  0.3966
 2751TIP3    H129744   4.497   4.911   1.567  0.6576 -0.1829 -0.5324
 2751TIP3    H229745   4.517   4.963   1.708 -1.3248 -0.6370 -0.0615
 2752TIP3   OH229746   0.494   4.881   6.168 -0.5750 -0.5764  0.1524
 2752TIP3    H129747   0.505   4.798   6.121 -2.8581 -0.5338 -0.5046
 2752TIP3    H229748   0.581   4.920   6.166  0.4630 -2.7677  0.1400
 2753TIP3   OH229749   1.519   3.506   0.822  0.1335  0.2749  0.0247
 2753TIP3    H129750   1.511   3.520   0.916 -0.2787 -2.0219  0.3458
 2753TIP3    H229751   1.593   3.561   0.796  2.0277 -1.1754  2.1603
 2754TIP3   OH229752   0.179   0.187  11.316  0.4263 -0.6350  0.0526
 2754TIP3    H129753   0.252   0.229  11.270  0.3947  1.5948  1.9374
 2754TIP3    H229754   0.106   0.191  11.254  0.2540  2.7309  0.4071
 2755TIP3   OH229755   4.126   1.614   3.064 -0.6320 -0.4958 -0.0275
 2755TIP3    H129756   4.222   1.623   3.065 -0.4841 -1.8968 -0.6333
 2755TIP3    H229757   4.108   1.551   3.134 -0.8897 -2.1176 -1.5327
 2756TIP3   OH229758   0.721   2.438   6.576 -0.2023  0.4039 -0.1715
 2756TIP3    H129759   0.707   2.347   6.601  0.3452  0.6346  1.0148
 2756TIP3    H229760   0.633   2.477   6.573 -0.3285  0.2041  0.7802
 2757TIP3   OH229761   2.948   5.077  12.616 -0.3476 -0.2012  0.5248
 2757TIP3    H129762   2.891   5.020  12.668 -0.3969  0.6520  1.4189
 2757TIP3    H229763   3.030   5.028  12.609 -0.6689 -0.7534  0.5759
 2758TIP3   OH229764   1.856   1.823   6.756 -0.2963 -0.4166  0.6995
 2758TIP3    H129765   1.764   1.803   6.770 -0.3468 -0.1269  0.7780
 2758TIP3    H229766   1.895   1.821   6.843 -0.4045  0.3489  0.7622
 2759TIP3   OH229767   5.429   6.808   6.256  0.0793 -0.4996  0.4847
 2759TIP3    H129768   5.425   6.735   6.318  0.2375 -0.1160  0.9506
 2759TIP3    H229769   5.520   6.839   6.261 -0.2819  0.4805  1.1662
 2760TIP3   OH229770   2.113   6.104   3.028  0.5156 -0.3673  0.2282
 2760TIP3    H129771   2.127   6.045   2.954 -1.1018 -0.8643  0.3050
 2760TIP3    H229772   2.058   6.054   3.088  0.9656  0.4143  1.3021
 2761TIP3   OH229773   3.471   1.805   2.764 -0.0611  0.1125  0.5865
 2761TIP3    H129774   3.382   1.835   2.745  0.8768  1.5534 -1.6822
 2761TIP3    H229775   3.523   1.885   2.767  1.6408 -0.9263 -0.7621
 2762TIP3   OH229776   0.498   4.669   4.156  0.3351  0.0493  0.2980
 2762TIP3    H129777   0.422   4.686   4.100  0.5441 -0.2551 -0.0850
 2762TIP3    H229778   0.469   4.600   4.215  0.3504 -0.1532  0.0705
 2763TIP3   OH229779   2.297   1.519   5.169  0.0006 -0.0103  0.2295
 2763TIP3    H129780   2.325   1.452   5.106 -0.3278 -1.4047  1.5265
 2763TIP3    H229781   2.220   1.481   5.211 -0.1994  1.1988  0.9740
 2764TIP3   OH229782   2.478   6.507   1.863  0.2781 -0.0242  0.0377
 2764TIP3    H129783   2.458   6.597   1.835 -0.0212  0.2258  1.0519
 2764TIP3    H229784   2.555   6.483   1.811  0.0012  0.6062 -0.6720
 2765TIP3   OH229785   6.129   1.054  12.458  0.0172 -0.1671 -0.1237
 2765TIP3    H129786   6.168   1.138  12.431  0.5562  0.2887  1.9871
 2765TIP3    H229787   6.165   0.991  12.396  0.5406  0.9836 -1.0244
 2766TIP3   OH229788   4.654   0.701   4.704  0.6254 -0.1291 -0.2081
 2766TIP3    H129789   4.713   0.665   4.638  1.4535  1.8289 -0.5672
 2766TIP3    H229790   4.708   0.710   4.782  0.9526  2.0648 -0.6593
 2767TIP3   OH229791   0.883   6.192   2.914  0.1581 -0.4428 -0.4669
 2767TIP3    H129792   0.896   6.104   2.950 -0.5901 -0.5937 -0.5731
 2767TIP3    H229793   0.806   6.226   2.960  0.3912  0.1243 -0.4906
 2768TIP3   OH229794   0.528   5.319  14.997 -0.2304 -0.1967 -0.4114
 2768TIP3    H129795   0.540   5.397  14.943 -1.9505 -0.4557 -1.1867
 2768TIP3    H229796   0.512   5.248  14.935 -1.4988 -0.6308  0.3922
 2769TIP3   OH229797   6.054   3.018   3.819 -0.2566 -0.4700 -0.3462
 2769TIP3    H129798   6.077   3.091   3.876  0.9089 -0.4156 -0.8599
 2769TIP3    H229799   5.990   3.054   3.758 -0.1756 -0.0572 -0.1903
 2770TIP3   OH229800   6.681   0.372   6.147 -0.3974  0.3670  0.4526
 2770TIP3    H129801   6.668   0.453   6.196 -2.0026  1.5208 -1.7517
 2770TIP3    H229802   6.650   0.393   6.058 -0.9756 -2.6988 -0.1335
 2771TIP3   OH229803   1.405   5.100  15.801 -0.2148 -0.0995 -0.0181
 2771TIP3    H129804   1.327   5.093  15.746 -1.0265 -1.5925  1.2801
 2771TIP3    H229805   1.451   5.017  15.789  1.8409  1.2007 -1.6698
 2772TIP3   OH229806   2.032   2.746  14.501  0.0614  0.1061 -0.1134
 2772TIP3    H129807   2.126   2.746  14.518  0.0606 -2.2955  0.1689
 2772TIP3    H229808   2.015   2.660  14.461 -2.0634  0.3235  0.2349
 2773TIP3   OH229809   3.356   3.454  11.780 -0.0493  0.2335  0.0205
 2773TIP3    H129810   3.345   3.490  11.868  1.1608  1.1430 -0.1757
 2773TIP3    H229811   3.324   3.364  11.786 -0.4649  0.4556  1.2547
 2774TIP3   OH229812   4.706   2.695  16.531 -0.4707 -0.2582 -0.2137
 2774TIP3    H129813   4.783   2.738  16.567 -1.8279  1.4650  0.6958
 2774TIP3    H229814   4.663   2.761  16.478 -1.0332 -1.3847 -1.1955
 2775TIP3   OH229815   6.807   0.850   1.423 -0.3469  0.3183  0.4745
 2775TIP3    H129816   6.729   0.904   1.409  0.2512  1.5854  1.8587
 2775TIP3    H229817   6.880   0.912   1.412  0.4555 -0.7833 -0.5005
 2776TIP3   OH229818   1.857   2.091  13.269 -0.8091  0.2357  0.4163
 2776TIP3    H129819   1.789   2.149  13.236 -0.2970 -0.3453 -1.8089
 2776TIP3    H229820   1.844   2.009  13.220  1.5923  0.1888 -0.2569
 2777TIP3   OH229821   6.015   4.181  15.344  0.5662  0.2082 -0.6120
 2777TIP3    H129822   6.103   4.219  15.347  1.0035 -0.8487  0.5528
 2777TIP3    H229823   5.999   4.150  15.433 -1.5588  1.6329 -0.4489
 2778TIP3   OH229824   5.517   5.634  16.106  0.5119  0.2737 -0.4576
 2778TIP3    H129825   5.530   5.567  16.039 -1.9650 -0.7848  0.0732
 2778TIP3    H229826   5.504   5.715  16.057  2.3077  0.1670 -1.1367
 2779TIP3   OH229827   2.545   0.744  11.522  0.0967  0.0268  0.0707
 2779TIP3    H129828   2.489   0.700  11.457  0.5247  0.2340 -0.4346
 2779TIP3    H229829   2.632   0.708  11.506  0.0772 -0.4591  1.0062
 2780TIP3   OH229830   3.240   3.739  12.508  0.2769  0.0264  0.1962
 2780TIP3    H129831   3.284   3.693  12.436  0.0143  1.2870 -0.7753
 2780TIP3    H229832   3.162   3.686  12.525 -1.0922  1.2009 -2.2890
 2781TIP3   OH229833   2.629   6.280   0.036 -0.4886  0.3200  0.1469
 2781TIP3    H129834   2.660   6.359   0.081 -0.6472  0.8700 -0.7012
 2781TIP3    H229835   2.710   6.236   0.009 -0.3839 -0.1780  1.2357
 2782TIP3   OH229836   6.204   0.632  16.995  0.7006  0.1128  0.1693
 2782TIP3    H129837   6.204   0.623  17.091 -0.5301 -1.4516  0.0372
 2782TIP3    H229838   6.141   0.701  16.977  0.0590 -0.4083  0.4192
 2783TIP3   OH229839   5.348   6.172  17.099 -0.3380 -0.1810 -0.0845
 2783TIP3    H129840   5.315   6.141  17.183  0.7733 -0.6279  0.2043
 2783TIP3    H229841   5.413   6.106  17.074  0.4770  0.7841 -0.5189
 2784TIP3   OH229842   4.758   4.602  15.089  0.3187  0.3570  0.7332
 2784TIP3    H129843   4.670   4.569  15.108 -0.1189  1.3356  0.4431
 2784TIP3    H229844   4.767   4.678  15.147  0.3256  1.2568 -0.4445
 2785TIP3   OH229845   6.364   6.385   1.238 -0.1461  0.3040 -0.7811
 2785TIP3    H129846   6.330   6.458   1.291  0.3098  1.6538 -2.3215
 2785TIP3    H229847   6.459   6.394   1.243 -0.0113 -1.5739  0.8897
 2786TIP3   OH229848   4.683   0.716   3.455  0.6580  0.4567  0.0834
 2786TIP3    H129849   4.664   0.789   3.397 -0.7519 -0.0845 -0.1589
 2786TIP3    H229850   4.686   0.639   3.398 -1.2643 -0.1578  0.7582
 2787TIP3   OH229851   3.433   5.224   5.889  0.1996  0.3478 -0.1520
 2787TIP3    H129852   3.512   5.181   5.921 -0.5634 -1.3552 -0.4933
 2787TIP3    H229853   3.365   5.158   5.898 -0.9732  1.4534 -0.8196
 2788TIP3   OH229854   6.447   2.421  15.602 -0.2434  0.0399 -0.0883
 2788TIP3    H129855   6.481   2.510  15.618  2.4916 -1.4033  2.6217
 2788TIP3    H229856   6.358   2.423  15.636 -1.0750  2.3695 -2.2199
 2789TIP3   OH229857   6.656   3.775  13.550  0.4964 -0.1781  0.3847
 2789TIP3    H129858   6.615   3.703  13.501 -1.5878  1.1359  0.1173
 2789TIP3    H229859   6.599   3.788  13.625 -0.1387  2.3240 -0.4924
 2790TIP3   OH229860   6.445   3.249  15.844 -0.3534 -0.0904 -0.0026
 2790TIP3    H129861   6.400   3.165  15.855  1.6030 -1.0858  0.5702
 2790TIP3    H229862   6.438   3.291  15.930 -1.9342  0.6906 -0.4725
 2791TIP3   OH229863   2.178   1.677   1.677 -0.5571 -0.6155 -0.1160
 2791TIP3    H129864   2.088   1.709   1.666 -0.8384 -0.8613  1.4054
 2791TIP3    H229865   2.178   1.592   1.632 -1.1535 -0.7324  0.0993
 2792TIP3   OH229866   0.591   5.201   5.549 -0.3450 -0.6019  0.2024
 2792TIP3    H129867   0.562   5.204   5.458 -1.1172  1.4314  0.4834
 2792TIP3    H229868   0.516   5.166   5.597 -0.2339 -0.8965  0.1607
 2793TIP3   OH229869   1.663   6.311   3.189 -0.7766 -0.7841 -0.6149
 2793TIP3    H129870   1.634   6.347   3.273  2.3473 -0.4331  0.3694
 2793TIP3    H229871   1.648   6.382   3.126  1.4165  0.7546  0.5545
 2794TIP3   OH229872   6.574   3.806   5.112  0.6958  0.2095 -0.0273
 2794TIP3    H129873   6.495   3.860   5.112  0.8602  0.4502 -0.0447
 2794TIP3    H229874   6.545   3.722   5.148  0.0815 -0.2207 -1.4903
 2795TIP3   OH229875   2.968   5.780  14.409 -0.1686 -0.7737  0.4272
 2795TIP3    H129876   3.032   5.723  14.451  0.1246 -1.7126 -1.2134
 2795TIP3    H229877   2.976   5.758  14.315 -1.9478  0.0393  0.0755
 2796TIP3   OH229878   3.150   3.307  15.752  0.2387  0.4396 -0.3111
 2796TIP3    H129879   3.055   3.309  15.765  0.3906  0.0704  0.8771
 2796TIP3    H229880   3.161   3.265  15.666 -0.6564 -0.1013 -0.1682
 2797TIP3   OH229881   2.069   1.323   0.970 -0.0209  0.0281  0.2683
 2797TIP3    H129882   1.973   1.322   0.975  0.0026 -1.2303  0.7320
 2797TIP3    H229883   2.092   1.236   0.938  0.9755  0.3085  0.2023
 2798TIP3   OH229884   6.133   1.033  14.265  0.6336 -0.4920 -0.2224
 2798TIP3    H129885   6.065   0.996  14.209  0.1774  0.7503 -0.5027
 2798TIP3    H229886   6.165   1.109  14.217  1.3389 -0.3360  0.4859
 2799TIP3   OH229887   1.532   1.055   0.620  0.4914  0.7381 -0.4484
 2799TIP3    H129888   1.609   1.102   0.589  1.5519 -0.3715  0.4271
 2799TIP3    H229889   1.544   1.049   0.715 -0.2132 -0.2310 -0.4059
 2800TIP3   OH229890   2.805   5.330   0.515  0.2564  0.5002 -0.3223
 2800TIP3    H129891   2.753   5.409   0.507 -0.6773 -0.0340  0.3820
 2800TIP3    H229892   2.889   5.352   0.474 -0.0371  1.8040 -0.2414
 2801TIP3   OH229893   0.387   2.641  15.188 -0.8278  0.2995  0.0535
 2801TIP3    H129894   0.381   2.725  15.143 -1.3249  0.1249 -0.2212
 2801TIP3    H229895   0.305   2.634  15.236 -0.9298 -0.1675 -0.1809
 2802TIP3   OH229896   1.528   3.628   5.426  0.2984 -0.3864 -0.0188
 2802TIP3    H129897   1.540   3.540   5.391 -1.3104 -0.6367  0.0394
 2802TIP3    H229898   1.546   3.620   5.520 -0.3281 -0.7552  0.0687
 2803TIP3   OH229899   6.311   2.244  12.052 -0.4565  0.6517  0.2003
 2803TIP3    H129900   6.234   2.225  11.999  0.2765 -2.2444  0.1022
 2803TIP3    H229901   6.383   2.246  11.989 -0.1785  1.4414  0.5373
 2804TIP3   OH229902   4.442   2.434   5.780 -0.6436 -0.6422 -0.3873
 2804TIP3    H129903   4.521   2.389   5.749  0.0450 -0.2447  0.7457
 2804TIP3    H229904   4.386   2.364   5.813 -0.6374 -0.8983 -0.9168
 2805TIP3   OH229905   6.710   5.695   2.254  0.2587 -0.0227 -0.2066
 2805TIP3    H129906   6.752   5.683   2.169 -0.3247  0.6020 -0.5930
 2805TIP3    H229907   6.712   5.608   2.295  0.8938 -0.2382 -0.6898
 2806TIP3   OH229908   6.670   5.294   2.637 -0.4324 -0.2377 -0.5225
 2806TIP3    H129909   6.603   5.277   2.703  0.1980 -1.7378 -0.2543
 2806TIP3    H229910   6.708   5.208   2.618 -1.5399 -0.0702 -3.8467
 2807TIP3   OH229911   2.193   3.804   4.704 -0.3622  0.2456 -0.0916
 2807TIP3    H129912   2.186   3.807   4.608 -1.4675  1.3620  0.0022
 2807TIP3    H229913   2.286   3.821   4.721 -0.0196 -0.6489 -0.9783
 2808TIP3   OH229914   5.393   0.532  12.594 -0.3222 -0.1391 -0.2123
 2808TIP3    H129915   5.465   0.550  12.535 -0.9657 -1.6228 -1.4849
 2808TIP3    H229916   5.397   0.602  12.659  1.9286  0.0870 -0.5571
 2809TIP3   OH229917   0.154   0.572  15.449 -0.6484  0.1586 -0.0915
 2809TIP3    H129918   0.114   0.623  15.379 -0.1581 -0.0091 -0.4975
 2809TIP3    H229919   0.101   0.591  15.526 -0.2920  1.5400 -0.1633
 2810TIP3   OH229920   1.175   1.963   1.897 -0.2160 -0.0865 -0.0492
 2810TIP3    H129921   1.210   1.890   1.949 -0.3201 -1.8428 -2.3566
 2810TIP3    H229922   1.114   2.007   1.956  0.3939 -1.4184  1.6402
 2811TIP3   OH229923   1.443   0.390   4.767  0.3139 -0.4164 -0.2625
 2811TIP3    H129924   1.404   0.448   4.701  0.0350 -1.9564 -1.4801
 2811TIP3    H229925   1.470   0.449   4.837 -2.0096  0.9585 -0.4545
 2812TIP3   OH229926   3.066   6.643   3.824 -0.4675  0.2164 -0.6134
 2812TIP3    H129927   3.088   6.718   3.768 -2.8923  1.3930 -0.0934
 2812TIP3    H229928   3.053   6.682   3.911  0.6205 -1.1909  0.1877
 2813TIP3   OH229929   4.024   3.584  14.176 -0.0300  0.5848 -0.5685
 2813TIP3    H129930   4.032   3.628  14.091  1.2457  2.0254  0.2697
 2813TIP3    H229931   4.021   3.656  14.239  0.1019 -0.5135  0.6921
 2814TIP3   OH229932   4.145   0.972   5.971  0.1508 -0.1862  0.3027
 2814TIP3    H129933   4.069   1.023   5.941 -0.1746 -0.4143  0.7398
 2814TIP3    H229934   4.143   0.980   6.066  2.0297  1.7785  0.2411
 2815TIP3   OH229935   4.529   4.590  10.384 -0.1794  0.0247  0.2870
 2815TIP3    H129936   4.446   4.543  10.386  0.8276 -1.7738  2.1174
 2815TIP3    H229937   4.508   4.679  10.412 -1.7016 -0.0047 -0.7163
 2816TIP3   OH229938   2.962   1.807   2.590  0.2297 -0.0876 -0.0295
 2816TIP3    H129939   3.037   1.766   2.547  0.1275 -0.6627  0.3429
 2816TIP3    H229940   2.997   1.841   2.672  0.5035  1.3186 -0.7064
 2817TIP3   OH229941   4.238   3.367  11.107 -0.3103  0.1178  0.0548
 2817TIP3    H129942   4.206   3.290  11.060 -1.0361 -0.2114  1.0782
 2817TIP3    H229943   4.246   3.435  11.040  1.9470 -1.2950 -1.1800
 2818TIP3   OH229944   2.602   1.248   5.389  0.4191 -0.0307  0.3735
 2818TIP3    H129945   2.682   1.196   5.378  1.4169  1.6436 -0.5403
 2818TIP3    H229946   2.591   1.292   5.305 -0.5744  0.9920  1.0329
 2819TIP3   OH229947   5.066   5.539  11.300  0.1878  0.0321  0.3834
 2819TIP3    H129948   5.102   5.462  11.256 -1.7653  0.0718 -1.3710
 2819TIP3    H229949   5.142   5.583  11.337  1.5537 -1.6614 -0.3388
 2820TIP3   OH229950   5.608   0.832  15.455 -0.1239  0.2774  0.3273
 2820TIP3    H129951   5.579   0.911  15.409  0.1022 -0.0838 -0.4384
 2820TIP3    H229952   5.640   0.864  15.540  1.2208  1.1645 -0.5041
 2821TIP3   OH229953   1.883   4.942   5.235  0.1003  0.0198  0.1234
 2821TIP3    H129954   1.956   4.967   5.291  0.4068  1.6837 -0.9912
 2821TIP3    H229955   1.807   4.942   5.293  0.7407 -0.2765  0.9688
 2822TIP3   OH229956   5.439   6.283  14.370 -0.2449  0.4894 -0.1899
 2822TIP3    H129957   5.528   6.310  14.347  0.3148  1.3381  2.8614
 2822TIP3    H229958   5.386   6.362  14.357 -0.3790  0.2988 -0.8595
 2823TIP3   OH229959   5.224   0.597  15.476 -0.4750 -0.3669  0.0855
 2823TIP3    H129960   5.134   0.597  15.508 -0.8106 -1.7901 -0.7979
 2823TIP3    H229961   5.222   0.543  15.397  0.9258  0.5791 -0.6271
 2824TIP3   OH229962   2.708   0.463  14.482  0.3647 -0.8102  0.3849
 2824TIP3    H129963   2.655   0.402  14.533 -0.2855  0.2529  1.0204
 2824TIP3    H229964   2.710   0.426  14.394 -3.2054  0.1555 -0.1881
 2825TIP3   OH229965   6.790   5.630  17.218  0.0861  0.1784  0.3961
 2825TIP3    H129966   6.696   5.647  17.210 -0.5099 -3.2974 -0.7150
 2825TIP3    H229967   6.813   5.585  17.136  2.8192  1.4053  0.4589
 2826TIP3   OH229968   1.178   5.420  10.796  0.2842  0.2051 -0.0725
 2826TIP3    H129969   1.137   5.340  10.830 -1.3925  0.7942 -0.6537
 2826TIP3    H229970   1.271   5.408  10.813  0.1580 -2.2309 -0.8652
 2827TIP3   OH229971   4.679   6.770  16.935 -0.0173 -0.3302  0.0488
 2827TIP3    H129972   4.592   6.751  16.968  0.3125  0.2314  1.2957
 2827TIP3    H229973   4.733   6.780  17.014  1.4614 -1.9706 -0.7095
 2828TIP3   OH229974   3.101   4.257   0.228 -0.3832  0.5658  0.2000
 2828TIP3    H129975   3.011   4.284   0.207 -0.8381 -0.0845  1.2650
 2828TIP3    H229976   3.154   4.333   0.209 -0.8961  0.3081 -2.4146
 2829TIP3   OH229977   6.625   6.234   6.826  0.2237  0.6250  0.9112
 2829TIP3    H129978   6.607   6.218   6.733  2.1750  1.5339  0.3384
 2829TIP3    H229979   6.563   6.178   6.873 -2.4297  1.9120 -0.9132
 2830TIP3   OH229980   4.580   4.963  12.035  0.2160  0.5922  0.2315
 2830TIP3    H129981   4.591   4.870  12.054  1.4076  0.6301 -0.2958
 2830TIP3    H229982   4.517   4.965  11.963 -2.2577  0.3333  2.3085
 2831TIP3   OH229983   2.913   2.176   3.349  0.1026  0.2220 -0.2516
 2831TIP3    H129984   2.883   2.259   3.311  0.4781  0.5507  0.1676
 2831TIP3    H229985   2.972   2.202   3.420  2.0632 -0.4273 -1.6197
 2832TIP3   OH229986   6.706   0.547  12.022  0.4926  0.5434 -0.4614
 2832TIP3    H129987   6.732   0.566  12.112 -2.1834 -2.0170  0.9505
 2832TIP3    H229988   6.623   0.592  12.011 -0.4673 -1.2489 -0.7334
 2833TIP3   OH229989   3.904   6.420  11.780  0.1550  0.3516 -0.3849
 2833TIP3    H129990   3.977   6.388  11.727 -0.0686 -0.3955 -0.2322
 2833TIP3    H229991   3.934   6.506  11.811  0.4124  0.6700 -1.4574
 2834TIP3   OH229992   1.795   0.155  14.910  0.5591 -0.3763  0.5005
 2834TIP3    H129993   1.839   0.239  14.925  0.4687 -0.3051  0.3659
 2834TIP3    H229994   1.840   0.118  14.834  0.5421 -0.4113  0.5081
 2835TIP3   OH229995   3.212   2.945  12.166 -0.0336  0.1804  0.3487
 2835TIP3    H129996   3.272   2.943  12.240 -0.8083 -1.7273  0.9590
 2835TIP3    H229997   3.171   2.859  12.166 -1.0886  0.6498 -1.4478
 2836TIP3   OH229998   0.313   2.593   4.923 -0.0081 -0.0360  0.0939
 2836TIP3    H129999   0.318   2.683   4.891 -1.7857 -0.4350 -1.3449
 2836TIP3    H230000   0.280   2.601   5.013  0.1407  0.7584  0.0821
 2837TIP3   OH230001   5.742   0.619  10.904 -0.0388  0.3084 -0.3581
 2837TIP3    H130002   5.686   0.609  10.981  0.3700  1.0849  0.0382
 2837TIP3    H230003   5.735   0.711  10.880  0.0391  0.1292 -1.1020
 2838TIP3   OH230004   6.130   1.005  11.352 -0.3798  0.1155  0.4645
 2838TIP3    H130005   6.103   1.019  11.261 -0.9026  1.2948  0.7980
 2838TIP3    H230006   6.224   1.021  11.352 -0.5284  1.0246  0.3058
 2839TIP3   OH230007   0.406   0.486  15.069 -0.0197  0.5416  0.0031
 2839TIP3    H130008   0.426   0.423  14.999 -0.3415  1.0623 -0.5638
 2839TIP3    H230009   0.348   0.550  15.027 -2.3515 -0.5795  1.4194
 2840TIP3   OH230010   3.473   3.778  15.892 -0.0150 -0.2930  0.0200
 2840TIP3    H130011   3.483   3.817  15.805 -1.2130 -0.6399 -0.2699
 2840TIP3    H230012   3.379   3.762  15.901  0.0714 -0.0441  1.4704
 2841TIP3   OH230013   4.876   2.893  16.651 -0.1434  0.1615 -0.7139
 2841TIP3    H130014   4.797   2.934  16.687 -1.3086 -0.9153 -1.9549
 2841TIP3    H230015   4.947   2.922  16.708 -1.5840  0.4005  1.0048
 2842TIP3   OH230016   3.507   3.770  12.540  0.4650 -0.0184  0.4121
 2842TIP3    H130017   3.538   3.713  12.610 -1.9590 -2.1879 -0.2254
 2842TIP3    H230018   3.414   3.784  12.560  0.3182  1.2959 -1.0783
 2843TIP3   OH230019   0.237   4.672   3.326 -0.5252 -0.2806 -0.1854
 2843TIP3    H130020   0.143   4.687   3.318 -0.7002 -1.1467  0.1391
 2843TIP3    H230021   0.268   4.741   3.385 -0.8750  0.2904 -0.6713
 2844TIP3   OH230022   6.061   1.212  17.268  0.1929 -0.2097 -0.3627
 2844TIP3    H130023   6.023   1.168  17.344  1.5661 -1.2337 -0.2552
 2844TIP3    H230024   6.145   1.247  17.300  1.4496 -1.8668 -1.7383
 2845TIP3   OH230025   3.488   6.484  11.333 -0.1610 -0.0875 -0.4349
 2845TIP3    H130026   3.553   6.500  11.401 -0.1744  0.6522 -0.5895
 2845TIP3    H230027   3.425   6.424  11.373  0.0858 -0.0228  0.0493
 2846TIP3   OH230028   1.369   2.957   0.944  0.1157 -0.0876 -0.3604
 2846TIP3    H130029   1.278   2.948   0.914 -0.4182 -0.0459  1.2381
 2846TIP3    H230030   1.421   2.927   0.869 -1.1908  0.2662 -1.4373
 2847TIP3   OH230031   4.553   3.702  12.137  0.1041  0.3725  0.6644
 2847TIP3    H130032   4.488   3.666  12.198  0.3572 -0.0444  0.6875
 2847TIP3    H230033   4.626   3.729  12.194 -0.2862  1.3746  0.6985
 2848TIP3   OH230034   5.572   3.634   4.170 -0.1274 -0.1066 -0.0536
 2848TIP3    H130035   5.524   3.713   4.194 -2.3453 -1.1026 -1.1214
 2848TIP3    H230036   5.637   3.665   4.107 -0.0047  1.0846  0.6314
 2849TIP3   OH230037   6.219   5.282   3.385  0.2002 -0.4528  0.2309
 2849TIP3    H130038   6.163   5.215   3.424 -1.4012 -0.3097 -1.7132
 2849TIP3    H230039   6.277   5.234   3.326 -0.5431 -0.2224 -0.7093
 2850TIP3   OH230040   5.387   4.149   2.883  0.3118  0.6900 -0.1290
 2850TIP3    H130041   5.399   4.244   2.888  0.9790  0.5578  0.9803
 2850TIP3    H230042   5.313   4.138   2.823  1.8159  1.7788 -2.2650
 2851TIP3   OH230043   4.351   3.734  11.334 -0.4463 -0.3996  0.2025
 2851TIP3    H130044   4.442   3.746  11.307 -0.5416 -0.5160 -0.1699
 2851TIP3    H230045   4.344   3.641  11.352 -0.1516 -0.1800  1.4728
 2852TIP3   OH230046   3.491   2.794   0.939  0.2196 -0.6727 -0.2906
 2852TIP3    H130047   3.395   2.796   0.943  0.3104 -1.4306  3.2647
 2852TIP3    H230048   3.510   2.727   0.874 -1.6478 -0.4998 -1.0617
 2853TIP3   OH230049   1.952   4.300  16.621 -0.1128 -0.0922 -0.1519
 2853TIP3    H130050   2.029   4.260  16.579  0.0459  0.2127 -0.1456
 2853TIP3    H230051   1.887   4.229  16.624 -0.8938  0.4432 -2.8489
 2854TIP3   OH230052   6.149   1.639   2.519  0.5880 -0.1834 -0.1725
 2854TIP3    H130053   6.225   1.600   2.477 -0.1979 -1.9058 -0.0494
 2854TIP3    H230054   6.098   1.676   2.447  0.7173 -0.4929 -0.4232
 2855TIP3   OH230055   5.225   3.251  14.518  0.4192 -0.2808 -0.4708
 2855TIP3    H130056   5.297   3.281  14.574  0.5886 -1.8717  0.1864
 2855TIP3    H230057   5.251   3.163  14.489 -0.7361 -0.4146 -1.1590
 2856TIP3   OH230058   6.767   6.568  13.680 -0.1337  0.4655  0.1177
 2856TIP3    H130059   6.730   6.537  13.598 -0.5401  0.9877  0.1060
 2856TIP3    H230060   6.788   6.660  13.665 -0.7754  0.7280  0.7893
 2857TIP3   OH230061   5.515   5.818   1.128 -0.5384  0.0064  0.1446
 2857TIP3    H130062   5.535   5.876   1.055  0.5364  0.2464  0.6205
 2857TIP3    H230063   5.598   5.775   1.148 -0.5598  0.7053  1.8903
 2858TIP3   OH230064   4.169   2.086   0.404 -0.3686 -0.0656  0.1669
 2858TIP3    H130065   4.132   1.998   0.412 -1.4347  0.4219  0.7988
 2858TIP3    H230066   4.093   2.144   0.414  0.6579  0.9827  2.1852
 2859TIP3   OH230067   1.445   4.321   3.383  0.2801 -0.4801 -0.0057
 2859TIP3    H130068   1.361   4.358   3.355  0.3124 -0.4079 -0.0070
 2859TIP3    H230069   1.507   4.393   3.374  0.3080 -0.4819  0.1684
 2860TIP3   OH230070   5.462   6.817  15.656  0.3146 -0.3881  0.3087
 2860TIP3    H130071   5.555   6.841  15.652  0.4249 -0.8066  0.3314
 2860TIP3    H230072   5.462   6.729  15.695  0.0794 -1.4805 -2.0860
 2861TIP3   OH230073   6.483   0.326  14.100 -0.4247  0.5244  0.1868
 2861TIP3    H130074   6.413   0.356  14.158  1.2114  3.7409  0.6234
 2861TIP3    H230075   6.465   0.369  14.017 -0.6943 -1.1160 -0.6086
 2862TIP3   OH230076   4.171   6.552   3.262  0.2633 -0.0965 -0.3047
 2862TIP3    H130077   4.135   6.609   3.330  1.5311  1.8179 -1.1827
 2862TIP3    H230078   4.227   6.490   3.310 -0.0965  0.2173  0.5376
 2863TIP3   OH230079   2.664   6.715  14.292  0.1614  0.2571 -0.0297
 2863TIP3    H130080   2.569   6.712  14.277 -0.0663 -2.1013  1.5513
 2863TIP3    H230081   2.674   6.697  14.385  2.2341 -0.8729 -0.4384
 2864TIP3   OH230082   5.379   6.213  16.533  0.8191 -0.4666  0.2073
 2864TIP3    H130083   5.474   6.204  16.547  1.0423  0.3688 -0.7101
 2864TIP3    H230084   5.346   6.246  16.616  1.2087 -1.5739  0.8114
 2865TIP3   OH230085   6.312   4.085  15.137  0.1139  0.1005  0.2328
 2865TIP3    H130086   6.333   4.127  15.221  1.2124  0.5278 -0.2592
 2865TIP3    H230087   6.336   3.993  15.150 -0.2850  0.0418  0.5858
 2866TIP3   OH230088   2.339   5.561  11.128  0.3407 -0.7336 -0.5662
 2866TIP3    H130089   2.250   5.557  11.165  1.1851 -2.3367  1.4278
 2866TIP3    H230090   2.395   5.533  11.200  2.5116  0.5952 -1.7146
 2867TIP3   OH230091   6.303   6.528  14.636  0.1625 -0.0332 -0.0567
 2867TIP3    H130092   6.234   6.462  14.641 -0.7735  0.7749 -1.7616
 2867TIP3    H230093   6.255   6.612  14.635  1.2535  0.6063  0.6681
 2868TIP3   OH230094   1.634   3.610  13.346 -0.3116 -0.4819  0.6060
 2868TIP3    H130095   1.629   3.515  13.354 -1.7535 -0.3310  1.6945
 2868TIP3    H230096   1.547   3.637  13.316  0.1358  0.4735  0.1381
 2869TIP3   OH230097   1.442   3.798   1.147  0.2769  0.0319 -0.5678
 2869TIP3    H130098   1.399   3.832   1.226  1.9973 -2.6832  1.6206
 2869TIP3    H230099   1.536   3.804   1.166  0.6815 -2.4166 -1.6143
 2870TIP3   OH230100   6.655   1.299  15.213  0.1104 -0.3573  0.8071
 2870TIP3    H130101   6.625   1.299  15.123  1.2916 -0.6218  0.4078
 2870TIP3    H230102   6.740   1.344  15.210  1.4562 -2.8068  1.3425
 2871TIP3   OH230103   3.532   1.140   0.433 -0.2303 -0.2146 -0.0544
 2871TIP3    H130104   3.546   1.063   0.377  1.8994 -0.6200  0.9687
 2871TIP3    H230105   3.446   1.172   0.408 -1.3638 -3.1839 -0.2353
 2872TIP3   OH230106   6.285   4.984   3.239 -0.4234 -0.0557  0.1223
 2872TIP3    H130107   6.256   5.030   3.160  0.6717 -0.2709 -0.4068
 2872TIP3    H230108   6.379   4.972   3.227  0.0231  1.1774  2.1080
 2873TIP3   OH230109   5.522   3.857   1.455  0.3235 -0.5964 -0.0870
 2873TIP3    H130110   5.481   3.917   1.518  0.6714  0.4449 -0.8243
 2873TIP3    H230111   5.451   3.832   1.396  0.9389  2.2563 -2.1675
 2874TIP3   OH230112   4.599   3.881   3.686  0.2199  0.1698  0.6962
 2874TIP3    H130113   4.562   3.951   3.739 -0.6475  0.2247  0.0295
 2874TIP3    H230114   4.667   3.924   3.634 -0.4390  0.5617  0.1490
 2875TIP3   OH230115   3.693   1.155   1.214  0.2800 -0.3571  0.3627
 2875TIP3    H130116   3.747   1.108   1.151  2.6386  0.6095  1.5786
 2875TIP3    H230117   3.626   1.198   1.161  0.8985 -1.3283 -1.2377
 2876TIP3   OH230118   0.234   6.725  15.251  0.6319 -0.1451 -0.1022
 2876TIP3    H130119   0.176   6.666  15.300 -0.5989  0.5180 -0.7465
 2876TIP3    H230120   0.237   6.687  15.163  0.5431  0.2669 -0.2816
 2877TIP3   OH230121   6.350   1.000  13.562  0.2831  0.2236 -0.5943
 2877TIP3    H130122   6.298   0.937  13.512 -0.4348 -0.6298  1.1477
 2877TIP3    H230123   6.383   1.062  13.498  0.6380 -1.6957 -2.3088
 2878TIP3   OH230124   5.955   4.854   4.322  0.2014 -0.0546  0.0781
 2878TIP3    H130125   6.042   4.858   4.362 -0.6012 -0.1315  1.8869
 2878TIP3    H230126   5.904   4.920   4.369 -0.8403 -0.3165 -0.6692
 2879TIP3   OH230127   1.762   1.026   4.891  0.1163 -0.2558 -0.3754
 2879TIP3    H130128   1.708   1.093   4.933 -0.6689 -1.1196  0.0014
 2879TIP3    H230129   1.699   0.963   4.856  0.9189 -1.9334  1.1563
 2880TIP3   OH230130   3.293   2.820  16.486 -0.4350 -0.6504 -0.2772
 2880TIP3    H130131   3.273   2.808  16.579  0.0902 -0.6619 -0.1700
 2880TIP3    H230132   3.207   2.814  16.442 -0.4482 -2.5817 -0.0053
 2881TIP3   OH230133   3.681   6.320  16.094 -0.5612  0.2349 -0.1849
 2881TIP3    H130134   3.740   6.345  16.165 -0.6843 -0.3146  0.1134
 2881TIP3    H230135   3.710   6.232  16.070 -0.1602  0.6416 -1.1964
 2882TIP3   OH230136   0.516   1.924   0.340 -0.0150  0.1510  0.0944
 2882TIP3    H130137   0.496   1.846   0.391 -2.5946 -0.0671 -1.1332
 2882TIP3    H230138   0.457   1.991   0.374 -0.1749  0.6169 -1.0628
 2883TIP3   OH230139   1.381   4.983   3.572  0.2101 -0.2858 -0.4330
 2883TIP3    H130140   1.422   4.913   3.521  1.3413 -1.3872  1.9478
 2883TIP3    H230141   1.329   4.938   3.638  0.9525  1.0879  1.1354
 2884TIP3   OH230142   1.514   0.845   3.793 -0.4130  0.7348  0.3799
 2884TIP3    H130143   1.439   0.814   3.843  0.7084 -0.1135  1.5807
 2884TIP3    H230144   1.587   0.840   3.854  1.1093 -0.9028 -1.5091
 2885TIP3   OH230145   0.953   2.867   3.951  0.0761 -0.1300  0.1850
 2885TIP3    H130146   1.014   2.816   3.897 -0.7605  1.1716 -2.0677
 2885TIP3    H230147   0.985   2.957   3.944 -0.7391  0.2238  0.9220
 2886TIP3   OH230148   0.883   4.668   0.730 -0.7732 -0.2787  0.0130
 2886TIP3    H130149   0.833   4.588   0.743 -1.7043  0.1323 -0.9727
 2886TIP3    H230150   0.848   4.706   0.650 -0.4082  1.1524  0.5071
 2887TIP3   OH230151   0.447   2.477   1.414 -0.0182  0.0218 -0.0753
 2887TIP3    H130152   0.429   2.484   1.320  1.1359 -0.4181 -0.3348
 2887TIP3    H230153   0.366   2.505   1.455 -0.3764  0.6927 -1.2015
 2888TIP3   OH230154   1.534   0.624   0.782 -0.4370  0.8789  0.0596
 2888TIP3    H130155   1.449   0.656   0.750  1.3078  3.9173 -1.7687
 2888TIP3    H230156   1.553   0.678   0.858  0.1181  0.5942  0.1252
 2889TIP3   OH230157   1.186   4.102  16.201 -0.4230 -0.2968 -0.0267
 2889TIP3    H130158   1.130   4.156  16.257 -0.6785 -0.3296 -0.2516
 2889TIP3    H230159   1.271   4.103  16.246 -0.8943 -1.1729  0.9067
 2890TIP3   OH230160   4.123   1.194  15.846  0.2253 -0.1408  0.6998
 2890TIP3    H130161   4.097   1.251  15.774 -0.2900  0.0229  1.0048
 2890TIP3    H230162   4.140   1.109  15.806 -2.6226 -0.7736  0.6888
 2891TIP3   OH230163   5.926   0.723  15.949  0.1947  0.1940 -0.1194
 2891TIP3    H130164   5.869   0.738  16.024 -0.7101  1.1432 -0.9799
 2891TIP3    H230165   5.990   0.794  15.952  1.2525 -0.7865  0.7611
 2892TIP3   OH230166   3.954   5.831   5.174  0.0798  0.2932 -0.7868
 2892TIP3    H130167   3.976   5.738   5.182  2.4966  0.8986 -0.0688
 2892TIP3    H230168   3.914   5.853   5.259  2.5659  0.6749  0.3214
 2893TIP3   OH230169   2.187   2.104  16.746  0.2054 -0.2659  0.3558
 2893TIP3    H130170   2.217   2.032  16.689 -0.8800 -2.4899  2.5111
 2893TIP3    H230171   2.094   2.114  16.725  0.2810  0.3256  0.2874
 2894TIP3   OH230172   1.604   0.739  13.608 -0.3133 -0.3382 -0.2178
 2894TIP3    H130173   1.629   0.700  13.691  0.0067  0.9505  0.2933
 2894TIP3    H230174   1.543   0.809  13.632 -0.0081  0.2130 -1.0524
 2895TIP3   OH230175   5.220   0.087   4.835  0.5513 -0.4086  0.5575
 2895TIP3    H130176   5.233   0.056   4.746 -0.9455 -0.0944  0.2221
 2895TIP3    H230177   5.262   0.174   4.836 -2.4848  1.1333 -0.8674
 2896TIP3   OH230178   2.085   0.472   0.554 -0.4581 -0.0069 -0.7750
 2896TIP3    H130179   2.016   0.415   0.587 -1.4267  0.7084 -1.5586
 2896TIP3    H230180   2.063   0.558   0.589 -0.4589  0.3947 -1.7590
 2897TIP3   OH230181   3.242   5.838   3.447 -0.3338  0.2258 -0.3851
 2897TIP3    H130182   3.239   5.787   3.528 -0.3319 -0.7844 -1.0116
 2897TIP3    H230183   3.250   5.772   3.377 -2.4276  0.9647 -1.3655
 2898TIP3   OH230184   2.541   4.738  14.552  0.3668  0.4857 -0.0511
 2898TIP3    H130185   2.492   4.817  14.530  0.7782  0.7701  0.0452
 2898TIP3    H230186   2.498   4.668  14.502  1.7219  1.2373 -2.3494
 2899TIP3   OH230187   5.493   6.152   5.653 -0.2101 -0.1973  0.0152
 2899TIP3    H130188   5.414   6.174   5.703 -0.1836  1.0928 -0.4706
 2899TIP3    H230189   5.564   6.187   5.706 -0.1379  0.6252 -0.6133
 2900TIP3   OH230190   3.196   4.715  12.594  0.6462  0.3289 -0.2229
 2900TIP3    H130191   3.122   4.666  12.557  0.1885 -0.1156  1.2694
 2900TIP3    H230192   3.269   4.653  12.593  0.6246  0.3050 -0.3354
 2901TIP3   OH230193   1.994   2.673  10.675 -0.1842  0.2728 -0.2329
 2901TIP3    H130194   2.024   2.760  10.651  0.0611  0.1203 -0.4964
 2901TIP3    H230195   1.943   2.644  10.599 -0.2900  0.2006 -0.1348
 2902TIP3   OH230196   4.048   2.068   1.839 -0.3994  0.7633 -0.0635
 2902TIP3    H130197   3.994   2.147   1.836  1.5881  2.1185 -1.4613
 2902TIP3    H230198   4.068   2.050   1.747  1.7330  0.4520  0.4460
 2903TIP3   OH230199   4.465   3.641  13.429  0.0976 -0.2419 -0.1225
 2903TIP3    H130200   4.495   3.724  13.393  1.1597  0.0765  1.4607
 2903TIP3    H230201   4.407   3.605  13.361  1.2583  0.8002 -1.6966
 2904TIP3   OH230202   2.709   1.697  11.965 -0.1536  0.5890 -0.5118
 2904TIP3    H130203   2.631   1.664  11.921 -0.1151 -0.2065  0.0052
 2904TIP3    H230204   2.705   1.661  12.053  0.4001  1.1724 -0.2407
 2905TIP3   OH230205   4.822   2.634   0.299  0.3461  0.2398  0.5563
 2905TIP3    H130206   4.802   2.668   0.387  1.7879  1.9082  0.2539
 2905TIP3    H230207   4.899   2.578   0.312  0.1099 -0.1007  0.4794
 2906TIP3   OH230208   2.814   5.978   2.208 -0.2840 -0.3417  0.9248
 2906TIP3    H130209   2.735   6.014   2.249 -1.7353 -0.1604 -1.9108
 2906TIP3    H230210   2.796   5.884   2.200 -0.3590 -0.2461 -0.0379
 2907TIP3   OH230211   4.873   0.742   1.668 -0.3991 -0.1796 -0.3437
 2907TIP3    H130212   4.853   0.684   1.595  0.1359 -0.1828 -0.4900
 2907TIP3    H230213   4.958   0.780   1.645 -0.0854 -0.4189  0.4292
 2908TIP3   OH230214   1.470   6.128  14.252  0.1797  0.2650  0.2261
 2908TIP3    H130215   1.492   6.182  14.328 -0.6626  0.3636  0.3977
 2908TIP3    H230216   1.436   6.047  14.289  1.1151 -0.2609 -0.0380
 2909TIP3   OH230217   3.200   5.026  12.934 -0.1440 -0.0248 -0.2396
 2909TIP3    H130218   3.105   5.015  12.941 -0.2710  0.4983 -1.1428
 2909TIP3    H230219   3.213   5.068  12.849  0.8214  0.8534  0.3394
 2910TIP3   OH230220   2.212   5.533  15.499  0.2145 -0.1937 -0.2954
 2910TIP3    H130221   2.205   5.602  15.566  0.1513 -1.6864  1.2721
 2910TIP3    H230222   2.201   5.579  15.416  0.4563  1.7358  0.7093
 2911TIP3   OH230223   6.628   4.740   2.390  0.6014  0.2541 -0.0138
 2911TIP3    H130224   6.608   4.742   2.296  0.6113  0.1074 -0.0194
 2911TIP3    H230225   6.590   4.821   2.425  2.2349  1.2516 -0.4726
 2912TIP3   OH230226   0.315   3.681  13.571  0.3000  0.9930 -0.6732
 2912TIP3    H130227   0.262   3.643  13.500 -0.7005  0.6715  0.2252
 2912TIP3    H230228   0.397   3.632  13.569 -0.2305  0.1061 -0.7643
 2913TIP3   OH230229   5.815   6.428   3.637  0.0612 -0.2855  0.2281
 2913TIP3    H130230   5.857   6.373   3.570 -0.0582  0.6725 -0.6439
 2913TIP3    H230231   5.873   6.504   3.645 -1.1030  0.6906 -0.4506
 2914TIP3   OH230232   1.326   5.040   1.197  0.2195 -0.0822 -0.3735
 2914TIP3    H130233   1.239   5.070   1.172  0.4891  0.0876 -1.1099
 2914TIP3    H230234   1.326   4.947   1.174 -0.8010 -0.8196  2.3966
 2915TIP3   OH230235   3.680   3.722  16.356 -0.2235  0.2685  0.1714
 2915TIP3    H130236   3.633   3.749  16.435 -0.6617  1.0371 -0.3457
 2915TIP3    H230237   3.658   3.789  16.291 -0.1458 -0.5459 -0.7060
 2916TIP3   OH230238   4.362   6.653  11.864  0.3402  0.0065  0.7985
 2916TIP3    H130239   4.433   6.693  11.915  0.4905  0.8614 -0.0548
 2916TIP3    H230240   4.338   6.575  11.913  1.6886 -0.1436  1.2426
 2917TIP3   OH230241   2.160   1.010  13.076  0.1060  0.0310  0.0318
 2917TIP3    H130242   2.215   0.931  13.076  0.7443  0.4592  1.1793
 2917TIP3    H230243   2.198   1.066  13.144 -0.0876  1.5112 -1.0431
 2918TIP3   OH230244   1.725   1.443   2.045 -0.2230 -0.4580 -0.4807
 2918TIP3    H130245   1.719   1.354   2.010  0.1016 -0.2065 -1.1964
 2918TIP3    H230246   1.819   1.461   2.048 -0.2668 -0.3114  0.1078
 2919TIP3   OH230247   6.101   0.305   0.551 -0.3436 -0.0084 -0.4740
 2919TIP3    H130248   6.187   0.341   0.572 -0.6131  0.0882  0.5042
 2919TIP3    H230249   6.040   0.375   0.572 -0.7337 -0.3964 -0.3054
 2920TIP3   OH230250   6.107   2.217   5.848 -0.4277 -0.2019  0.4127
 2920TIP3    H130251   6.194   2.241   5.817 -0.4224 -0.7524  0.0008
 2920TIP3    H230252   6.119   2.198   5.941  0.1496 -1.5510  0.0714
 2921TIP3   OH230253   5.406   5.974   4.230 -0.6162 -0.2950 -0.1580
 2921TIP3    H130254   5.340   5.924   4.278  0.2076 -0.1334  1.1628
 2921TIP3    H230255   5.469   6.002   4.297  0.5138 -0.0116 -1.3132
 2922TIP3   OH230256   3.745   1.808   4.760  0.4789 -0.4825  0.1929
 2922TIP3    H130257   3.741   1.900   4.736 -2.6262 -0.1138  1.8565
 2922TIP3    H230258   3.710   1.762   4.684  1.1016 -0.2104 -0.2590
 2923TIP3   OH230259   1.924   3.986   2.683  0.1026 -0.2589 -0.4011
 2923TIP3    H130260   1.986   3.951   2.618 -1.2803 -0.9935 -1.3650
 2923TIP3    H230261   1.903   3.911   2.738 -1.1549 -0.4148 -1.0787
 2924TIP3   OH230262   2.026   2.356  15.979 -0.2482  0.5982  0.0842
 2924TIP3    H130263   2.068   2.378  15.896  0.0626  1.0281  0.3508
 2924TIP3    H230264   2.003   2.441  16.017  1.4344  0.5040  1.3778
 2925TIP3   OH230265   4.856   2.323  16.140 -0.5958  0.6811  0.4779
 2925TIP3    H130266   4.891   2.361  16.221 -0.5039 -0.3003  0.9128
 2925TIP3    H230267   4.831   2.398  16.087  2.1601  1.4460  0.1594
 2926TIP3   OH230268   0.695   0.571   2.047 -0.6562 -0.0125 -0.4831
 2926TIP3    H130269   0.639   0.565   1.970 -1.0594 -1.5780 -0.0856
 2926TIP3    H230270   0.679   0.490   2.095 -0.3290  0.9038  1.2014
 2927TIP3   OH230271   4.474   0.260   3.198  0.5865  0.0094 -0.1718
 2927TIP3    H130272   4.399   0.320   3.194  0.8225  0.2344 -1.4728
 2927TIP3    H230273   4.436   0.175   3.219  0.2527  0.6135  1.7276
 2928TIP3   OH230274   3.654   2.276   4.816 -0.4863  0.6227 -0.4724
 2928TIP3    H130275   3.577   2.222   4.836 -0.0332 -0.0031 -0.3816
 2928TIP3    H230276   3.688   2.302   4.901 -0.2259  0.3521 -0.4890
 2929TIP3   OH230277   0.658   4.395   4.865  0.2552 -0.8301  0.2726
 2929TIP3    H130278   0.643   4.455   4.939 -0.2499  2.0045 -2.0172
 2929TIP3    H230279   0.584   4.411   4.806  2.0437 -1.0361 -2.1021
 2930TIP3   OH230280   5.400   1.671   0.288  0.9143 -0.0441 -0.2474
 2930TIP3    H130281   5.372   1.606   0.353 -0.8150  0.3900 -0.5369
 2930TIP3    H230282   5.403   1.753   0.336 -0.3790  0.2799 -0.6945
 2931TIP3   OH230283   4.611   3.720  11.641  0.8603  0.1206 -0.2693
 2931TIP3    H130284   4.517   3.731  11.645  0.9968  1.1494  0.2505
 2931TIP3    H230285   4.646   3.788  11.699  1.9111 -0.3008 -0.3938
 2932TIP3   OH230286   3.588   3.763  17.108  0.1744 -0.1805 -0.2418
 2932TIP3    H130287   3.559   3.702  17.041  0.4399 -0.9457  0.3324
 2932TIP3    H230288   3.683   3.753  17.112  0.0687 -0.8319  0.8999
 2933TIP3   OH230289   0.395   6.249   3.431  0.1401 -0.5200 -0.3348
 2933TIP3    H130290   0.425   6.249   3.521 -0.1524  2.2562 -0.1841
 2933TIP3    H230291   0.310   6.205   3.434 -0.8346  1.3736  1.1465
 2934TIP3   OH230292   4.468   3.927   0.801  0.5015  0.2334 -0.1228
 2934TIP3    H130293   4.390   3.981   0.812  1.4822  1.3976  1.2912
 2934TIP3    H230294   4.537   3.989   0.778  1.1523 -0.7203 -0.8009
 2935TIP3   OH230295   1.271   1.938   4.754  0.0273 -0.2096  0.3440
 2935TIP3    H130296   1.264   2.017   4.700  0.7396  0.8242  1.7285
 2935TIP3    H230297   1.231   1.869   4.701 -0.0014  0.9404 -1.1613
 2936TIP3   OH230298   4.590   5.759  12.904 -0.5559  0.6030 -0.1323
 2936TIP3    H130299   4.605   5.836  12.848  0.1291 -0.1503 -1.0099
 2936TIP3    H230300   4.678   5.723  12.918 -0.9866 -0.7388 -0.7825
 2937TIP3   OH230301   5.276   2.240  15.774 -0.0032  0.8290  0.4946
 2937TIP3    H130302   5.273   2.336  15.777 -0.3156  0.7899  1.5265
 2937TIP3    H230303   5.185   2.213  15.781 -0.0369  0.4800 -1.0986
 2938TIP3   OH230304   2.435   4.738  15.195  0.0499  0.3141 -0.1204
 2938TIP3    H130305   2.466   4.651  15.168 -0.3149  0.4176 -0.8790
 2938TIP3    H230306   2.371   4.719  15.264  0.4240  0.0127  0.1490
 2939TIP3   OH230307   1.377   2.559  13.420 -0.1010 -0.1059  0.5492
 2939TIP3    H130308   1.429   2.623  13.470 -1.2382  1.6142 -0.4260
 2939TIP3    H230309   1.286   2.582  13.439 -0.5399 -1.7634  0.5522
 2940TIP3   OH230310   6.617   2.398  13.633  0.1549  0.2482 -0.0364
 2940TIP3    H130311   6.595   2.306  13.623 -1.5649  0.7836 -1.3402
 2940TIP3    H230312   6.687   2.413  13.569  0.4276 -0.1315  0.1654
 2941TIP3   OH230313   5.905   0.252  11.175  0.3849 -0.0849  0.1835
 2941TIP3    H130314   5.828   0.254  11.118  0.0104  1.6002  0.7251
 2941TIP3    H230315   5.968   0.197  11.128 -0.5642 -0.1878 -0.9947
 2942TIP3   OH230316   4.489   4.124  14.453  0.0713  0.8203 -0.2398
 2942TIP3    H130317   4.583   4.133  14.438  0.2121 -0.3388 -0.1132
 2942TIP3    H230318   4.450   4.201  14.411  1.0414  1.1264 -0.5891
 2943TIP3   OH230319   6.754   3.712  12.047 -0.0369 -0.3251 -0.1471
 2943TIP3    H130320   6.689   3.642  12.035 -0.5947  0.1667 -0.0132
 2943TIP3    H230321   6.835   3.675  12.012 -0.4810 -0.7902 -0.6982
 2944TIP3   OH230322   6.796   2.739  16.833  0.2317 -0.3311 -0.2295
 2944TIP3    H130323   6.798   2.649  16.864 -0.3460  0.2561  1.6054
 2944TIP3    H230324   6.707   2.769  16.852  0.3396  0.5436 -1.0634
 2945TIP3   OH230325   2.872   2.568  12.744  0.1761 -0.3950 -0.3257
 2945TIP3    H130326   2.827   2.653  12.742 -0.2894 -0.6221  0.4075
 2945TIP3    H230327   2.871   2.543  12.837  0.2934 -1.2182 -0.5488
 2946TIP3   OH230328   6.622   5.882  16.086  1.2114 -0.2947  0.3730
 2946TIP3    H130329   6.588   5.806  16.133 -0.9974 -0.6664 -1.7304
 2946TIP3    H230330   6.592   5.957  16.138 -0.8578 -0.7214 -0.1253
 2947TIP3   OH230331   5.174   2.332  11.191 -0.0738  0.8547 -0.0288
 2947TIP3    H130332   5.223   2.341  11.109  0.5940 -0.8662  0.1640
 2947TIP3    H230333   5.201   2.408  11.243  0.5830  1.2014 -0.8596
 2948TIP3   OH230334   5.652   2.799  11.397  0.3590  0.1640 -0.1022
 2948TIP3    H130335   5.690   2.873  11.349  0.7241  1.2024  1.7437
 2948TIP3    H230336   5.558   2.818  11.400  0.5194  0.8435  0.8376
 2949TIP3   OH230337   0.291   3.099  14.933 -0.3831 -0.2214  0.2287
 2949TIP3    H130338   0.196   3.106  14.927 -0.2734  1.1867  0.0471
 2949TIP3    H230339   0.315   3.161  15.002  0.4869  0.0746 -0.3385
 2950TIP3   OH230340   5.079   5.861   0.061 -0.0518  0.0164 -0.3944
 2950TIP3    H130341   5.069   5.953   0.039 -0.1515  0.2162  0.4446
 2950TIP3    H230342   4.991   5.832   0.085  0.4692  0.5327  2.3824
 2951TIP3   OH230343   6.054   2.639   5.376 -0.2184  0.2581  0.4250
 2951TIP3    H130344   6.055   2.659   5.469  0.6268  0.9831  0.2655
 2951TIP3    H230345   6.031   2.722   5.334  0.4189  0.1875 -0.0699
 2952TIP3   OH230346   6.797   0.357  15.617  0.0450 -0.1336  0.2171
 2952TIP3    H130347   6.709   0.379  15.649  0.2908  0.1568  0.7053
 2952TIP3    H230348   6.845   0.332  15.696  0.6059  0.4064  0.0483
 2953TIP3   OH230349   1.186   3.995  17.154 -0.1222  0.8448  0.2153
 2953TIP3    H130350   1.170   4.061  17.086 -0.9914 -1.8568 -2.3423
 2953TIP3    H230351   1.279   3.972  17.144 -0.7618 -1.1374 -1.6562
 2954TIP3   OH230352   1.756   5.456  16.163  0.0878  0.0538 -0.1965
 2954TIP3    H130353   1.716   5.471  16.248  0.3336  0.1222 -0.0949
 2954TIP3    H230354   1.714   5.376  16.130  1.7508 -1.3797  1.0627
 2955TIP3   OH230355   2.245   3.696   0.254  0.2611  0.2616 -0.7198
 2955TIP3    H130356   2.207   3.615   0.221 -0.5479  0.2927  0.1044
 2955TIP3    H230357   2.329   3.703   0.209  0.0133 -0.6490 -1.3502
 2956TIP3   OH230358   3.918   3.518  17.193 -0.2448  0.1762  0.4997
 2956TIP3    H130359   3.938   3.424  17.185 -0.2529  0.2190 -0.0204
 2956TIP3    H230360   3.872   3.525  17.277 -0.6140 -0.3480  0.3430
 2957TIP3   OH230361   3.385   1.625   6.335 -0.3172 -0.0903  0.1188
 2957TIP3    H130362   3.334   1.545   6.350 -0.5010  0.4194  2.2681
 2957TIP3    H230363   3.320   1.694   6.326 -0.0322  0.5291  2.6727
 2958TIP3   OH230364   6.204   4.787  13.010 -0.1215  0.3371  0.3020
 2958TIP3    H130365   6.141   4.818  12.945  1.8028 -0.1005 -1.8378
 2958TIP3    H230366   6.152   4.775  13.090 -2.4543  1.2975 -1.0078
 2959TIP3   OH230367   1.354   5.083   3.181 -0.0716 -0.2606  0.1541
 2959TIP3    H130368   1.354   5.026   3.105  0.3340  0.7246 -0.5894
 2959TIP3    H230369   1.446   5.095   3.204 -0.0921  0.8528 -0.2834
 2960TIP3   OH230370   2.008   4.312  11.487  0.0620  0.4238  0.4286
 2960TIP3    H130371   1.980   4.239  11.431 -1.4899  0.8991  0.5520
 2960TIP3    H230372   2.059   4.369  11.428  3.1043 -1.7715  0.8321
 2961TIP3   OH230373   3.404   6.581   1.181  0.0402 -0.8072  0.0551
 2961TIP3    H130374   3.425   6.642   1.110 -0.0403  0.2565  0.9320
 2961TIP3    H230375   3.412   6.494   1.142 -0.7631 -0.2115 -1.4749
 2962TIP3   OH230376   5.137   1.750   0.523 -0.8701  0.0659 -0.0485
 2962TIP3    H130377   5.151   1.667   0.477 -0.8316  0.8394 -1.4590
 2962TIP3    H230378   5.049   1.777   0.497 -0.7481  0.6398  0.1376
 2963TIP3   OH230379   0.576   1.747   0.730 -0.1364 -0.4598 -0.6359
 2963TIP3    H130380   0.484   1.760   0.709 -0.5826 -0.0561  1.4625
 2963TIP3    H230381   0.584   1.652   0.742 -0.4219 -0.4286 -0.1879
 2964TIP3   OH230382   5.127   6.114   2.504 -0.0435 -0.3450  0.0065
 2964TIP3    H130383   5.074   6.104   2.425  1.0545  1.0023 -0.9217
 2964TIP3    H230384   5.153   6.206   2.504 -2.0140  0.2869  3.2358
 2965TIP3   OH230385   4.701   2.386   3.399  0.4212  0.3943 -0.8702
 2965TIP3    H130386   4.638   2.450   3.432  0.7381  1.0641 -1.5697
 2965TIP3    H230387   4.770   2.383   3.466  0.0621  0.2743 -0.5076
 2966TIP3   OH230388   4.523   1.656  12.779  0.4346  0.3375  0.7806
 2966TIP3    H130389   4.589   1.637  12.846  2.1270 -0.1450 -0.9901
 2966TIP3    H230390   4.542   1.595  12.708 -1.0426  1.1471 -0.3492
 2967TIP3   OH230391   4.357   3.053  15.200 -0.3139  0.2339 -0.4447
 2967TIP3    H130392   4.284   3.063  15.138 -0.7378 -2.2202 -0.4023
 2967TIP3    H230393   4.436   3.064  15.146 -0.6928 -1.0071 -1.2668
 2968TIP3   OH230394   5.786   6.752   2.720 -0.8001 -0.0506 -0.8941
 2968TIP3    H130395   5.720   6.687   2.743 -0.7153  0.3568  0.5492
 2968TIP3    H230396   5.869   6.710   2.740 -0.6843  0.0283 -1.1962
 2969TIP3   OH230397   3.346   0.203  15.647 -0.2754 -0.2184 -0.1104
 2969TIP3    H130398   3.320   0.113  15.666  0.2431 -0.5033 -0.7329
 2969TIP3    H230399   3.263   0.250  15.634 -0.5613 -0.4573  0.8643
 2970TIP3   OH230400   1.458   3.738   4.322  0.0183 -0.3670 -0.5503
 2970TIP3    H130401   1.432   3.651   4.354 -1.3868 -0.1347 -1.0042
 2970TIP3    H230402   1.383   3.794   4.343  0.8076  0.6817 -0.5074
 2971TIP3   OH230403   4.186   3.742   4.750 -0.1643 -0.0688  0.0411
 2971TIP3    H130404   4.242   3.817   4.769  1.7398 -1.5462  0.3606
 2971TIP3    H230405   4.098   3.771   4.777  0.2588  2.5476 -1.1981
 2972TIP3   OH230406   1.260   4.038   4.782 -0.5195  0.8770 -0.0273
 2972TIP3    H130407   1.189   4.015   4.842 -1.7106  0.7130 -1.4719
 2972TIP3    H230408   1.306   3.955   4.768 -1.0888  0.6285 -0.4362
 2973TIP3   OH230409   4.989   6.119   0.127 -0.0547 -0.5272  0.0936
 2973TIP3    H130410   5.081   6.145   0.134  0.0817 -1.1674  0.7883
 2973TIP3    H230411   4.954   6.130   0.216 -0.6914 -0.1224 -0.2037
 2974TIP3   OH230412   4.249   0.123  13.573  0.4145 -0.7876 -0.0490
 2974TIP3    H130413   4.322   0.064  13.590  0.8577 -0.2557 -0.1032
 2974TIP3    H230414   4.243   0.176  13.652  0.0151 -0.9053 -0.0003
 2975TIP3   OH230415   0.172   4.886  16.609  0.1120  0.1412 -0.3936
 2975TIP3    H130416   0.225   4.951  16.562 -0.6600 -0.3313 -1.9519
 2975TIP3    H230417   0.145   4.824  16.542 -1.4794 -0.2556  0.5797
 2976TIP3   OH230418   4.266   3.616   4.522 -0.4492 -0.5308  0.2839
 2976TIP3    H130419   4.238   3.652   4.606 -0.3689  1.4578 -0.5141
 2976TIP3    H230420   4.184   3.588   4.480 -0.5329 -1.0950  0.8069
 2977TIP3   OH230421   3.147   0.749   1.213  0.3227  0.7028  0.3839
 2977TIP3    H130422   3.079   0.703   1.263  0.4028  0.4694  0.2770
 2977TIP3    H230423   3.162   0.694   1.137  3.4354 -1.2777  2.3038
 2978TIP3   OH230424   0.682   1.487  16.979 -0.0848  0.0335 -0.6439
 2978TIP3    H130425   0.713   1.559  17.034  1.4262 -1.4453  0.4840
 2978TIP3    H230426   0.613   1.526  16.925 -0.5242  1.8942  1.1962
 2979TIP3   OH230427   4.096   1.179   0.421 -0.1008  0.7578 -0.3804
 2979TIP3    H130428   4.168   1.169   0.483 -0.8866 -2.0499  0.1454
 2979TIP3    H230429   4.135   1.157   0.336 -0.1263  0.0123 -0.2058
 2980TIP3   OH230430   4.932   5.768  10.181  0.2960 -0.3423 -0.1017
 2980TIP3    H130431   4.872   5.840  10.159 -0.2553 -0.4957  0.8623
 2980TIP3    H230432   4.973   5.796  10.263  0.5872 -0.8248 -0.0848
 2981TIP3   OH230433   3.642   2.428   3.551 -0.8397  0.1422  0.2909
 2981TIP3    H130434   3.609   2.486   3.482 -2.6378  0.5837  1.4855
 2981TIP3    H230435   3.618   2.340   3.521  1.0150  0.0589 -1.0453
 2982TIP3   OH230436   1.171   0.311  13.396 -0.2826 -0.2178  0.2245
 2982TIP3    H130437   1.176   0.398  13.356  0.1577  0.0209  0.7985
 2982TIP3    H230438   1.089   0.311  13.444 -1.0583 -0.6790 -1.0788
 2983TIP3   OH230439   4.487   6.273   5.512 -0.0708 -0.0808 -0.0175
 2983TIP3    H130440   4.489   6.181   5.538  0.1334  0.1287  0.7306
 2983TIP3    H230441   4.394   6.292   5.498 -0.0599 -0.5467 -0.7205
 2984TIP3   OH230442   3.042   6.224  12.537 -0.5247  0.1758  0.5386
 2984TIP3    H130443   3.008   6.218  12.627 -2.1717 -3.5073 -0.2260
 2984TIP3    H230444   2.975   6.272  12.489 -0.2105  1.0686  0.9640
 2985TIP3   OH230445   3.665   1.056   4.612  0.4519 -0.4586  0.6982
 2985TIP3    H130446   3.721   1.008   4.673 -0.4846  1.0448  2.8260
 2985TIP3    H230447   3.598   0.993   4.586  0.9074 -1.1468  1.1831
 2986TIP3   OH230448   3.893   4.332   3.704 -0.4375  0.0053  0.3540
 2986TIP3    H130449   3.823   4.287   3.750 -0.4620  0.1393  0.4465
 2986TIP3    H230450   3.866   4.424   3.702 -0.6835 -0.0808 -0.3743
 2987TIP3   OH230451   4.277   1.074  16.327 -0.0416  0.2840 -0.1146
 2987TIP3    H130452   4.289   1.037  16.414 -2.0308 -0.2883 -0.0519
 2987TIP3    H230453   4.290   1.168  16.339 -0.4074  0.2189  0.8380
 2988TIP3   OH230454   1.040   3.261  12.561  0.2195  0.1667  0.1633
 2988TIP3    H130455   1.123   3.273  12.516 -0.2333 -0.6762 -0.9185
 2988TIP3    H230456   0.981   3.225  12.494 -1.1165  1.0905  0.8036
 2989TIP3   OH230457   4.037   6.047  10.593  0.0012 -0.8046 -0.3767
 2989TIP3    H130458   3.963   6.034  10.653 -0.6332 -1.5229 -1.3057
 2989TIP3    H230459   4.112   6.062  10.651 -0.9920  0.6715  0.5639
 2990TIP3   OH230460   5.703   6.773  14.390  0.1352 -0.1694  0.0991
 2990TIP3    H130461   5.610   6.760  14.372  0.3862 -1.6949 -0.1231
 2990TIP3    H230462   5.715   6.742  14.480  0.7126 -1.4183 -0.3924
 2991TIP3   OH230463   5.082   3.599   4.622 -0.3255 -0.3091  0.4913
 2991TIP3    H130464   5.145   3.643   4.564  0.3863 -2.3195 -0.3044
 2991TIP3    H230465   5.002   3.592   4.569 -0.5783  0.4458  0.7794
 2992TIP3   OH230466   6.522   3.736   1.642 -0.3429  0.3750  0.5434
 2992TIP3    H130467   6.494   3.705   1.556  0.8161  0.6843  0.0495
 2992TIP3    H230468   6.616   3.747   1.634 -0.0549 -0.6843  2.1980
 2993TIP3   OH230469   2.566   4.683   2.311 -0.7780 -0.1289  0.0378
 2993TIP3    H130470   2.538   4.591   2.311  1.6370 -0.8997  0.7108
 2993TIP3    H230471   2.658   4.680   2.284 -0.7455  2.1260 -0.1523
 2994TIP3   OH230472   2.399   2.042   2.539  0.7723 -0.5967  0.6339
 2994TIP3    H130473   2.304   2.053   2.542  0.6945 -0.9121 -0.4732
 2994TIP3    H230474   2.432   2.129   2.515  0.4389 -1.5932 -3.7287
 2995TIP3   OH230475   3.920   6.052   4.792 -0.4938  0.2250 -0.4629
 2995TIP3    H130476   3.835   6.091   4.772 -0.9197 -0.8898 -0.8111
 2995TIP3    H230477   3.962   6.042   4.706 -0.4690 -0.2884 -0.3895
 2996TIP3   OH230478   3.414   4.580   2.270 -0.0956  0.1131  0.5590
 2996TIP3    H130479   3.483   4.642   2.292  1.0068 -0.7416 -0.4683
 2996TIP3    H230480   3.456   4.494   2.274 -1.0199 -0.3916 -0.3324
 2997TIP3   OH230481   0.849   6.167  13.280  0.0974  0.3057 -0.5754
 2997TIP3    H130482   0.842   6.072  13.271  0.2199  0.3327 -0.9285
 2997TIP3    H230483   0.763   6.200  13.254 -0.6871  0.1433  1.6194
 2998TIP3   OH230484   3.697   6.702   4.753  0.2980 -0.1706 -0.1236
 2998TIP3    H130485   3.776   6.648   4.750 -0.0988 -0.8054  0.7214
 2998TIP3    H230486   3.705   6.760   4.678  0.9800 -1.0617 -0.7505
 2999TIP3   OH230487   1.555   3.920  13.349 -0.1661 -0.0933  0.1685
 2999TIP3    H130488   1.613   3.850  13.378 -0.2924  0.5057  1.9443
 2999TIP3    H230489   1.591   3.999  13.390 -3.3335  0.0106  2.9877
 3000TIP3   OH230490   5.567   1.664  13.649 -0.0345  0.2831  0.6000
 3000TIP3    H130491   5.561   1.597  13.581 -2.7060 -1.6660  2.6633
 3000TIP3    H230492   5.526   1.741  13.610 -0.9748 -0.6256 -0.2351
 3001TIP3   OH230493   3.177   0.130  13.739  0.0196  0.5898 -0.3081
 3001TIP3    H130494   3.086   0.111  13.762 -0.8629  1.3828 -2.9102
 3001TIP3    H230495   3.192   0.080  13.658  1.0845  2.4017 -1.2643
 3002TIP3   OH230496   5.699   1.234   4.561 -0.0398  1.0837  0.0020
 3002TIP3    H130497   5.650   1.317   4.567 -2.4663 -0.3626  0.9627
 3002TIP3    H230498   5.667   1.194   4.480 -0.8162 -0.0705  0.8587
 3003TIP3   OH230499   4.486   2.701  12.034  0.2746 -0.3558  0.0148
 3003TIP3    H130500   4.463   2.667  12.120  1.1364  1.6809  1.0871
 3003TIP3    H230501   4.580   2.717  12.039 -0.1102  2.1855 -0.4293
 3004TIP3   OH230502   4.455   5.224   4.963  0.2408  0.6884 -0.1656
 3004TIP3    H130503   4.413   5.184   5.039  0.5116  2.0344  0.7123
 3004TIP3    H230504   4.407   5.191   4.887  0.5733 -1.4122  0.5260
 3005TIP3   OH230505   6.306   5.398   2.420 -0.0517  0.2810 -0.2567
 3005TIP3    H130506   6.214   5.404   2.393  0.0792  0.6504 -0.6272
 3005TIP3    H230507   6.313   5.457   2.495 -0.2887 -0.3206  0.2431
 3006TIP3   OH230508   6.808   1.912  13.633 -0.2251 -0.6364  0.2671
 3006TIP3    H130509   6.883   1.912  13.573  0.6082 -0.4541  1.2896
 3006TIP3    H230510   6.811   1.998  13.675  0.2691 -1.4154  1.8678
 3007TIP3   OH230511   4.636   4.703   2.201 -0.0956 -0.9603 -0.1418
 3007TIP3    H130512   4.724   4.704   2.236 -0.1184  0.4373 -0.0857
 3007TIP3    H230513   4.580   4.731   2.274 -0.2997  0.5259 -0.8464
 3008TIP3   OH230514   1.046   4.734   4.693  0.0599  0.1205  0.7000
 3008TIP3    H130515   1.095   4.813   4.671 -0.7766  1.0441  2.1135
 3008TIP3    H230516   0.962   4.765   4.727 -1.2417 -1.4253 -0.9481
 3009TIP3   OH230517   3.957   2.342  17.223 -0.2604 -0.0723  0.6781
 3009TIP3    H130518   3.873   2.366  17.184 -0.6531 -0.5482  1.2211
 3009TIP3    H230519   4.018   2.337  17.149 -1.3714 -2.6127 -0.1297
 3010TIP3   OH230520   0.417   5.140   5.740 -0.0441  0.2828 -0.0269
 3010TIP3    H130521   0.391   5.229   5.762 -0.2402  0.3598 -0.5726
 3010TIP3    H230522   0.340   5.086   5.759 -0.3343  0.4001 -0.8760
 3011TIP3   OH230523   1.564   4.486  12.113 -0.6587  0.2549 -0.3705
 3011TIP3    H130524   1.539   4.398  12.083  1.7446 -0.3593 -0.6845
 3011TIP3    H230525   1.577   4.536  12.033  1.2017 -0.0581 -0.2798
 3012TIP3   OH230526   3.045   1.193  17.071 -0.0201 -0.0483  0.0476
 3012TIP3    H130527   2.951   1.207  17.080 -0.0105  1.4080 -1.6523
 3012TIP3    H230528   3.075   1.269  17.020  2.1376 -0.2754  0.9428
 3013TIP3   OH230529   4.690   5.653   1.483  0.0622 -0.1743  0.4592
 3013TIP3    H130530   4.785   5.660   1.482  0.1442 -1.1959 -0.7383
 3013TIP3    H230531   4.659   5.740   1.507  1.3049  0.0456  1.2819
 3014TIP3   OH230532   0.328   3.096  17.221  0.1599  0.0069 -0.3252
 3014TIP3    H130533   0.371   3.134  17.145 -3.2056 -0.4003 -2.4944
 3014TIP3    H230534   0.235   3.096  17.200 -0.9873  0.5422  4.0783
 3015TIP3   OH230535   4.764   0.437   0.868 -0.2271 -0.1775  0.2632
 3015TIP3    H130536   4.750   0.515   0.814  1.8969 -1.2580 -1.9550
 3015TIP3    H230537   4.681   0.389   0.861 -0.8819  0.9307  0.0973
 3016TIP3   OH230538   0.707   3.935   5.629  0.8937 -0.4361  0.1779
 3016TIP3    H130539   0.724   3.974   5.543  1.2336 -1.5644 -0.2741
 3016TIP3    H230540   0.768   3.980   5.687  1.6640 -0.6634 -0.4384
 3017TIP3   OH230541   6.059   4.872   1.947 -0.2290 -0.0413  0.2145
 3017TIP3    H130542   6.000   4.914   2.009 -0.1694 -0.1553  0.3504
 3017TIP3    H230543   6.092   4.795   1.994 -0.0735 -0.0490  0.0932
 3018TIP3   OH230544   2.846   2.518  13.916  0.6077 -0.1152 -0.3124
 3018TIP3    H130545   2.828   2.563  13.833  0.8984  0.6261  0.0196
 3018TIP3    H230546   2.914   2.571  13.958 -0.0256 -0.0970  0.7069
 3019TIP3   OH230547   0.595   5.491  14.809  0.2787  0.2816 -0.0917
 3019TIP3    H130548   0.549   5.490  14.725 -1.2745  0.7350  0.7321
 3019TIP3    H230549   0.672   5.546  14.794  0.0307  0.3248 -1.2257
 3020TIP3   OH230550   2.074   1.388  11.538 -0.0745 -0.4995  0.5419
 3020TIP3    H130551   2.070   1.419  11.447 -1.4561 -3.2049 -0.3885
 3020TIP3    H230552   1.984   1.394  11.569  0.5358  1.2181  2.0533
 3021TIP3   OH230553   5.297   3.221  15.500 -0.2833  0.3596  0.3738
 3021TIP3    H130554   5.247   3.193  15.423 -1.5888 -0.4173  1.4708
 3021TIP3    H230555   5.256   3.303  15.527 -0.2674  0.2847  0.6307
 3022TIP3   OH230556   1.041   1.727   4.388  0.6077  0.3444  0.6978
 3022TIP3    H130557   1.090   1.771   4.319  0.5501 -1.6080 -0.6168
 3022TIP3    H230558   1.108   1.698   4.450  1.1562 -2.0560 -0.9477
 3023TIP3   OH230559   5.227   6.462  14.281  0.3387 -0.4619  0.5151
 3023TIP3    H130560   5.199   6.388  14.226  2.3833 -1.1864  0.3959
 3023TIP3    H230561   5.145   6.502  14.311 -0.8086 -1.4073 -1.2487
 3024TIP3   OH230562   6.105   4.131  17.005  0.1308 -0.0722  0.1514
 3024TIP3    H130563   6.057   4.052  17.032  0.7969  0.0858  1.8835
 3024TIP3    H230564   6.074   4.149  16.916 -2.5285 -0.3519  0.9639
 3025TIP3   OH230565   3.265   1.635  14.888 -0.3810  0.5756 -0.5083
 3025TIP3    H130566   3.220   1.567  14.937  0.9533 -0.1202 -0.2152
 3025TIP3    H230567   3.244   1.716  14.934 -2.1302  0.4100 -0.9657
 3026TIP3   OH230568   5.424   5.575  13.759 -0.1432  0.0367 -0.2159
 3026TIP3    H130569   5.477   5.594  13.681  0.6806 -1.8040 -0.1271
 3026TIP3    H230570   5.334   5.595  13.733  0.0848 -0.9189 -1.7673
 3027TIP3   OH230571   5.076   0.329  12.538 -0.2099 -0.4589  0.0455
 3027TIP3    H130572   4.991   0.337  12.495  0.0901 -0.7831 -0.6118
 3027TIP3    H230573   5.107   0.419  12.548 -0.0685 -0.4024 -0.8537
 3028TIP3   OH230574   0.213   6.257   0.743  0.2632 -0.1723 -0.0383
 3028TIP3    H130575   0.219   6.168   0.709  3.1134  0.1480 -0.5432
 3028TIP3    H230576   0.296   6.271   0.790 -1.0444  1.4856  1.8801
 3029TIP3   OH230577   0.046   2.069  11.607 -0.6963 -0.1759 -0.2652
 3029TIP3    H130578   0.075   2.127  11.537 -1.3429 -0.1708 -0.5319
 3029TIP3    H230579   0.113   2.077  11.675  1.5087 -2.4349 -2.1106
 3030TIP3   OH230580   0.510   3.859   1.509  0.5543  0.2430  0.1164
 3030TIP3    H130581   0.436   3.917   1.525  0.2675 -0.0080 -0.2724
 3030TIP3    H230582   0.477   3.796   1.444 -0.2517 -2.4339  2.9661
 3031TIP3   OH230583   5.617   2.843   1.602  0.2712 -0.0692  0.3452
 3031TIP3    H130584   5.654   2.757   1.623 -0.8387 -1.1306 -1.9273
 3031TIP3    H230585   5.680   2.883   1.542  0.1701  0.2035  0.4186
 3032TIP3   OH230586   1.787   6.027  16.623  0.4628 -0.4302  0.2102
 3032TIP3    H130587   1.711   6.086  16.618 -0.2411 -1.4419 -1.5699
 3032TIP3    H230588   1.845   6.057  16.553 -0.1580 -2.1594 -1.0866
 3033TIP3   OH230589   0.169   4.474  10.796 -0.2822  0.4384  0.1745
 3033TIP3    H130590   0.107   4.539  10.830 -0.8342  0.0175 -0.0299
 3033TIP3    H230591   0.243   4.526  10.764 -0.0307  0.8761  1.4523
 3034TIP3   OH230592   4.681   5.088   0.102  0.0767  0.1336 -0.0455
 3034TIP3    H130593   4.755   5.046   0.145 -0.1247  1.2536  1.4519
 3034TIP3    H230594   4.663   5.165   0.156 -1.9533  0.0587 -0.5817
 3035TIP3   OH230595   1.436   2.547   2.444 -0.2224  0.1340 -0.1461
 3035TIP3    H130596   1.356   2.589   2.413 -0.3731 -0.5185 -0.6303
 3035TIP3    H230597   1.447   2.580   2.534 -0.1116  1.5409 -0.6650
 3036TIP3   OH230598   0.503   0.036  13.826  0.0917  0.7103  0.1946
 3036TIP3    H130599   0.558   0.006  13.754 -1.6831 -2.8650  0.2154
 3036TIP3    H230600   0.414   0.014  13.799 -0.8147  1.3677  2.5331
 3037TIP3   OH230601   4.714   2.464  11.195 -0.0949  0.3656 -0.1486
 3037TIP3    H130602   4.791   2.507  11.158 -1.0453  0.5291 -1.9890
 3037TIP3    H230603   4.676   2.528  11.256 -1.1231  1.9109 -2.3655
 3038TIP3   OH230604   5.212   0.892  16.039 -0.4110 -0.0655 -0.0766
 3038TIP3    H130605   5.241   0.955  16.105 -1.2255 -1.1275  1.2914
 3038TIP3    H230606   5.222   0.807  16.080 -1.8292 -0.6828 -0.9857
 3039TIP3   OH230607   3.610   5.635   2.215  0.2740  0.4259  0.8473
 3039TIP3    H130608   3.628   5.544   2.235  1.4848  0.3226 -0.6735
 3039TIP3    H230609   3.682   5.663   2.158 -0.5538  2.0633  0.5565
 3040TIP3   OH230610   3.208   3.136  15.151 -0.7530 -0.4009 -0.1891
 3040TIP3    H130611   3.172   3.048  15.156  2.5685 -1.8523 -0.7276
 3040TIP3    H230612   3.218   3.163  15.242 -1.4638 -0.6845 -0.0232
 3041TIP3   OH230613   3.878   1.730  16.476 -0.0070  0.6349 -0.1831
 3041TIP3    H130614   3.864   1.784  16.554 -1.9012 -1.4669  0.9861
 3041TIP3    H230615   3.942   1.665  16.502 -2.0194 -1.2249  0.2547
 3042TIP3   OH230616   4.337   5.957   4.241 -0.0240 -0.1075 -0.1795
 3042TIP3    H130617   4.248   5.954   4.277  0.1495 -0.9679  0.1851
 3042TIP3    H230618   4.391   5.985   4.315  0.3808 -2.1945  0.3498
 3043TIP3   OH230619   4.176   3.668  17.268  0.4483  0.3618 -0.5806
 3043TIP3    H130620   4.100   3.610  17.262  0.6383 -0.0030  0.4649
 3043TIP3    H230621   4.187   3.684  17.362  0.4505  2.0399 -0.8672
 3044TIP3   OH230622   5.903   0.258  17.232 -0.4501  0.4026  0.8552
 3044TIP3    H130623   5.818   0.260  17.276  0.3752 -1.2197  2.5724
 3044TIP3    H230624   5.937   0.347  17.242 -1.5635  0.8358  0.8874
 3045TIP3   OH230625   1.977   1.298   2.089  0.6149  0.0012  0.0719
 3045TIP3    H130626   2.042   1.228   2.091  1.5418  0.8103 -1.0544
 3045TIP3    H230627   1.977   1.333   2.177  1.2962 -0.3827  0.2320
 3046TIP3   OH230628   1.135   1.817  11.333  0.6536 -0.1411 -0.0541
 3046TIP3    H130629   1.156   1.827  11.240  0.9815  1.0683  0.1516
 3046TIP3    H230630   1.220   1.817  11.377  0.4952 -0.6713  0.2546
 3047TIP3   OH230631   1.528   4.428   0.932 -0.0899  0.3658 -0.2664
 3047TIP3    H130632   1.494   4.347   0.895 -1.6837  1.2469 -0.8170
 3047TIP3    H230633   1.492   4.497   0.876  1.2716  1.4563  0.1623
 3048TIP3   OH230634   2.460   6.107   5.744  0.0538 -0.5305 -0.4928
 3048TIP3    H130635   2.452   6.021   5.702 -0.5418 -0.9414  0.4330
 3048TIP3    H230636   2.399   6.103   5.818  0.5331  0.4457 -0.0369
 3049TIP3   OH230637   0.650   4.031  15.345 -0.7307 -0.7148  0.0257
 3049TIP3    H130638   0.577   3.988  15.390 -0.8107 -2.2204 -1.5105
 3049TIP3    H230639   0.613   4.115  15.316 -0.9533 -0.1336  1.8702
 3050TIP3   OH230640   0.751   2.779  13.927  0.3312 -0.3057 -0.9717
 3050TIP3    H130641   0.784   2.689  13.927 -1.2584 -0.9528  2.2540
 3050TIP3    H230642   0.689   2.782  13.854  0.8270 -1.6289 -1.4718
 3051TIP3   OH230643   3.892   0.108  13.808  0.1240  0.1184 -0.5934
 3051TIP3    H130644   3.911   0.041  13.873  1.1399 -0.1672 -1.1631
 3051TIP3    H230645   3.818   0.074  13.758 -0.2599  0.0629  0.0052
 3052TIP3   OH230646   3.153   1.097  16.404 -0.0776  0.0682  0.3367
 3052TIP3    H130647   3.125   1.009  16.377 -0.0180  0.0720  0.2641
 3052TIP3    H230648   3.079   1.153  16.383 -0.0027  0.0828  0.1167
 3053TIP3   OH230649   2.806   3.433   0.971 -0.4258 -0.3046  0.3885
 3053TIP3    H130650   2.864   3.433   1.047  1.2183 -0.0629 -0.8434
 3053TIP3    H230651   2.769   3.345   0.969  1.6674 -1.2004 -0.1170
 3054TIP3   OH230652   3.367   6.819   4.753 -0.6495  0.2691 -0.3332
 3054TIP3    H130653   3.448   6.862   4.725 -0.3350 -0.4592 -0.5483
 3054TIP3    H230654   3.368   6.826   4.849 -0.0470 -0.2406 -0.2974
 3055TIP3   OH230655   4.380   3.667   3.624 -0.2122  0.0069 -0.8224
 3055TIP3    H130656   4.374   3.591   3.682  0.1442 -0.1419 -0.9779
 3055TIP3    H230657   4.465   3.706   3.645  0.2813 -0.5110 -1.8098
 3056TIP3   OH230658   0.814   3.512  14.200 -0.4362  0.4279 -0.4455
 3056TIP3    H130659   0.798   3.517  14.294  2.3364  1.1163  0.0428
 3056TIP3    H230660   0.764   3.435  14.171 -0.6806 -0.2621  1.7125
 3057TIP3   OH230661   3.602   1.726  12.178  0.2584 -0.8318 -0.5684
 3057TIP3    H130662   3.626   1.667  12.249  0.0859 -3.2243 -2.4135
 3057TIP3    H230663   3.685   1.750  12.138  0.3657  0.6394  0.5232
 3058TIP3   OH230664   5.857   5.237   5.882  0.0342 -0.1961  0.4810
 3058TIP3    H130665   5.891   5.148   5.890  0.4687 -0.0610  0.1114
 3058TIP3    H230666   5.934   5.293   5.893 -0.2488  0.1340  0.7740
 3059TIP3   OH230667   4.313   5.382   2.768  0.3678 -0.2448 -0.3299
 3059TIP3    H130668   4.241   5.351   2.823  1.2082 -1.1457  0.2875
 3059TIP3    H230669   4.390   5.337   2.802  1.6097  2.3838  0.4497
 3060TIP3   OH230670   3.969   6.180   3.783  0.1546 -0.8017 -0.6078
 3060TIP3    H130671   3.990   6.087   3.790 -0.7931 -0.9327  0.6501
 3060TIP3    H230672   3.877   6.186   3.807  0.4181  0.5602  0.0937
 3061TIP3   OH230673   6.478   1.152   4.641 -0.4274 -0.0858  0.5855
 3061TIP3    H130674   6.459   1.206   4.564 -0.6343 -2.2774 -0.9188
 3061TIP3    H230675   6.568   1.124   4.629  0.5160  1.9029  2.6198
 3062TIP3   OH230676   4.552   0.569   1.725  0.4186  0.3079 -0.1997
 3062TIP3    H130677   4.592   0.610   1.802 -0.1900  0.6643 -0.0753
 3062TIP3    H230678   4.522   0.642   1.671 -0.9750  0.0257  0.1880
 3063TIP3   OH230679   4.392   3.598   5.654 -0.1133  0.0508  0.4409
 3063TIP3    H130680   4.405   3.540   5.730 -0.8028  0.4477  0.8686
 3063TIP3    H230681   4.478   3.603   5.613  0.4018  0.3038  1.5399
 3064TIP3   OH230682   4.362   2.604  11.600 -0.0664 -0.7442  0.4257
 3064TIP3    H130683   4.313   2.661  11.540 -1.4002 -0.3456  1.8612
 3064TIP3    H230684   4.361   2.519  11.558 -0.9891 -0.4635 -0.1400
 3065TIP3   OH230685   1.455   3.030   5.665  0.2979  0.1257  0.4823
 3065TIP3    H130686   1.463   3.066   5.577 -0.3841  0.8263  0.7061
 3065TIP3    H230687   1.532   3.062   5.712  0.2547  0.3951  0.3678
 3066TIP3   OH230688   6.449   1.407   4.480  0.1193 -0.3091  0.0546
 3066TIP3    H130689   6.540   1.430   4.460  1.1399 -2.4752  2.0519
 3066TIP3    H230690   6.414   1.485   4.522  0.8846  0.7151 -1.1442
 3067TIP3   OH230691   3.452   2.386   1.830 -0.0795 -0.5973  0.6059
 3067TIP3    H130692   3.505   2.463   1.806  0.2302 -0.7536  0.7875
 3067TIP3    H230693   3.517   2.317   1.844 -0.2517 -0.4916  1.9763
 3068TIP3   OH230694   6.487   6.336  13.075  0.4316 -0.3675  0.2633
 3068TIP3    H130695   6.513   6.407  13.017 -0.1694 -0.6397 -0.3410
 3068TIP3    H230696   6.507   6.368  13.163  0.3117  0.4739 -0.0139
 3069TIP3   OH230697   2.350   0.966  14.475 -0.2203 -0.2357  0.1065
 3069TIP3    H130698   2.257   0.989  14.469  0.3478  2.1619 -0.1168
 3069TIP3    H230699   2.362   0.939  14.566 -1.4128 -2.0042 -0.2291
 3070TIP3   OH230700   1.577   3.731  16.583  0.5823 -0.9354 -0.0379
 3070TIP3    H130701   1.527   3.725  16.501  1.5032  0.6171 -0.7510
 3070TIP3    H230702   1.580   3.825  16.601  1.1325 -1.2070  1.3278
 3071TIP3   OH230703   5.948   0.830   4.841 -0.1884  0.6712 -0.1839
 3071TIP3    H130704   5.910   0.918   4.838 -0.9345  0.3223 -1.1347
 3071TIP3    H230705   6.017   0.832   4.774 -0.0616  0.5943 -0.0563
 3072TIP3   OH230706   0.196   1.564  15.117  0.0245  0.0625 -0.1198
 3072TIP3    H130707   0.152   1.522  15.191  0.5169  0.5356  0.4413
 3072TIP3    H230708   0.165   1.516  15.040 -2.3947  1.1456  0.1455
 3073TIP3   OH230709   0.249   1.862   2.204  0.1574  0.1565  0.1210
 3073TIP3    H130710   0.281   1.774   2.183 -0.8898 -0.2263  0.0771
 3073TIP3    H230711   0.317   1.900   2.259  0.9617 -0.4082 -0.4667
 3074TIP3   OH230712   0.083   3.571   4.841  0.0038 -0.4311 -0.5286
 3074TIP3    H130713  -0.005   3.573   4.878  0.0627  0.5140 -0.4297
 3074TIP3    H230714   0.103   3.662   4.822  1.7173 -0.3780  1.2790
 3075TIP3   OH230715   3.213   3.869   1.770  0.3769 -0.3541 -0.4877
 3075TIP3    H130716   3.180   3.959   1.768 -1.2443 -0.8780  1.1001
 3075TIP3    H230717   3.259   3.862   1.854 -1.0784 -1.5205  0.2317
 3076TIP3   OH230718   0.840   1.419   5.634 -0.6184  0.1915 -0.1132
 3076TIP3    H130719   0.867   1.478   5.705 -2.0348  0.1818  0.4512
 3076TIP3    H230720   0.913   1.358   5.625 -1.3069 -1.1762  2.8878
 3077TIP3   OH230721   5.977   2.855   5.224 -0.0917 -0.6106 -0.3965
 3077TIP3    H130722   6.058   2.841   5.175  1.1726  2.4990  0.6839
 3077TIP3    H230723   5.920   2.904   5.164  0.8609  1.8054  0.6026
 3078TIP3   OH230724   6.338   3.269   4.496 -0.5352  0.7452  0.3449
 3078TIP3    H130725   6.253   3.267   4.452 -0.9294 -0.0669  1.1201
 3078TIP3    H230726   6.397   3.221   4.438 -0.4920  1.6934 -0.4074
 3079TIP3   OH230727   2.088   3.611  15.230  0.3399 -0.5889  0.5606
 3079TIP3    H130728   2.152   3.542  15.243  3.1739  1.5657 -1.3938
 3079TIP3    H230729   2.049   3.593  15.144  0.8336  0.0095  0.2034
 3080TIP3   OH230730   4.306   5.457  11.531 -0.3838  0.3558 -0.1877
 3080TIP3    H130731   4.389   5.482  11.571  0.8916 -0.3691 -2.2892
 3080TIP3    H230732   4.272   5.387  11.586 -0.0452  1.2528  1.1755
 3081TIP3   OH230733   5.161   0.311   0.828 -0.0792  0.1422 -0.1287
 3081TIP3    H130734   5.117   0.395   0.840  1.1344  0.6817  0.6554
 3081TIP3    H230735   5.246   0.334   0.791 -0.1783 -0.8379 -1.0056
 3082TIP3   OH230736   1.149   0.686  12.460 -0.2619 -0.2312 -0.0246
 3082TIP3    H130737   1.100   0.764  12.485  0.5156  0.1039  0.4745
 3082TIP3    H230738   1.202   0.665  12.537  0.4768 -0.5103 -0.5957
 3083TIP3   OH230739   2.319   5.506   0.039  0.5977  0.3373 -0.2380
 3083TIP3    H130740   2.259   5.435   0.019  0.3780  0.6841 -0.8056
 3083TIP3    H230741   2.263   5.584   0.045  1.0594  0.7625 -1.3305
 3084TIP3   OH230742   3.781   4.498   5.227 -0.5792 -0.4323  0.3179
 3084TIP3    H130743   3.875   4.489   5.215 -0.9269  0.7325 -4.0501
 3084TIP3    H230744   3.767   4.591   5.243 -1.0800 -0.3544 -0.5237
 3085TIP3   OH230745   3.410   2.514   0.591  0.4245 -0.0791  0.6173
 3085TIP3    H130746   3.494   2.542   0.628  0.6650  0.4498 -0.3078
 3085TIP3    H230747   3.434   2.463   0.514 -0.1194  0.9459 -0.2442
 3086TIP3   OH230748   0.983   5.063   1.708  0.0610  1.2493 -0.0674
 3086TIP3    H130749   0.928   5.079   1.631  1.7848 -0.1151 -1.6284
 3086TIP3    H230750   1.031   5.145   1.721 -0.9604  1.8186  0.1782
 3087TIP3   OH230751   0.460   4.442   1.483 -0.1405 -0.3263 -0.0320
 3087TIP3    H130752   0.552   4.433   1.457  0.2427  0.5553  0.9782
 3087TIP3    H230753   0.415   4.466   1.403  0.7343  0.5695 -0.2640
 3088TIP3   OH230754   1.846   4.064   1.958 -0.7951  0.0882 -0.6877
 3088TIP3    H130755   1.838   4.001   1.887 -0.9564 -0.3289 -0.2985
 3088TIP3    H230756   1.912   4.126   1.927 -0.9902  0.0064 -1.2724
 3089TIP3   OH230757   1.671   5.430  14.883 -0.7259 -0.6190  0.6671
 3089TIP3    H130758   1.589   5.402  14.922 -0.9838 -0.8542 -0.0394
 3089TIP3    H230759   1.738   5.377  14.926 -1.0934 -1.4790  0.1757
 3090TIP3   OH230760   2.195   3.728  13.076 -0.4254  0.4950 -0.7570
 3090TIP3    H130761   2.289   3.734  13.058  0.0606  0.9713  1.7751
 3090TIP3    H230762   2.158   3.805  13.032  0.4614  0.7161 -1.1322
 3091TIP3   OH230763   4.659   4.167   2.877 -0.5213 -0.8322  0.2461
 3091TIP3    H130764   4.730   4.230   2.869 -1.8742  1.0179  2.2839
 3091TIP3    H230765   4.604   4.183   2.801  0.8396 -1.8036 -0.9705
 3092TIP3   OH230766   2.884   5.305  14.892 -0.8579 -0.5456  0.2075
 3092TIP3    H130767   2.897   5.216  14.924  0.9509 -0.2716  0.2806
 3092TIP3    H230768   2.927   5.306  14.806 -0.4710  0.3735  0.4070
 3093TIP3   OH230769   4.766   0.175  15.391  0.2743 -0.2873  0.6591
 3093TIP3    H130770   4.790   0.102  15.448 -0.6361  0.0992  1.5664
 3093TIP3    H230771   4.695   0.219  15.438 -0.7412 -0.1679 -0.9362
 3094TIP3   OH230772   0.327   0.670   6.109 -0.3161 -0.2760 -0.2414
 3094TIP3    H130773   0.280   0.609   6.165  0.2062  1.3878  2.0641
 3094TIP3    H230774   0.392   0.616   6.063  0.1395 -1.4617  1.7475
 3095TIP3   OH230775   4.905   3.236  15.614  0.3668 -0.3138 -0.0295
 3095TIP3    H130776   4.990   3.280  15.614 -1.0427  2.5799 -1.3549
 3095TIP3    H230777   4.903   3.187  15.532 -0.0394  1.3852 -1.0787
 3096TIP3   OH230778   4.736   3.969   4.235  0.4033  0.3322  0.1377
 3096TIP3    H130779   4.809   4.031   4.227  2.5450 -2.2730 -0.8700
 3096TIP3    H230780   4.756   3.919   4.314 -1.0007  0.4687  0.5934
 3097TIP3   OH230781   6.530   1.081  14.791 -0.4798 -0.1656 -0.1826
 3097TIP3    H130782   6.536   0.986  14.785  0.8080 -0.0111 -1.6691
 3097TIP3    H230783   6.523   1.110  14.701 -0.2052  1.1999  0.2255
 3098TIP3   OH230784   1.722   1.148   3.295 -0.3412  0.0111  0.3985
 3098TIP3    H130785   1.776   1.071   3.275  0.6409  0.7745  0.0794
 3098TIP3    H230786   1.785   1.214   3.324 -1.1585  0.7536  0.4821
 3099TIP3   OH230787   0.769   3.467  16.520 -0.1324  0.0553 -0.3432
 3099TIP3    H130788   0.863   3.449  16.532 -0.2065 -0.0939  0.0297
 3099TIP3    H230789   0.754   3.550  16.565 -0.6372 -1.0616  1.6520
 3100TIP3   OH230790   1.308   4.712  14.490 -0.2840  0.2261 -0.2138
 3100TIP3    H130791   1.374   4.758  14.542  0.1677 -1.4056  0.6787
 3100TIP3    H230792   1.275   4.643  14.548 -0.8995 -0.6287 -1.5580
 3101TIP3   OH230793   1.063   4.192   4.034  0.0049  0.7996 -0.4978
 3101TIP3    H130794   1.016   4.156   4.109  1.3612 -0.8865 -0.4281
 3101TIP3    H230795   1.140   4.235   4.072  0.6721 -0.0203 -0.9002
 3102TIP3   OH230796   5.698   5.604   3.572 -0.5353 -0.1285  0.1946
 3102TIP3    H130797   5.666   5.666   3.637 -0.9259 -0.9002  0.7389
 3102TIP3    H230798   5.746   5.539   3.622 -0.4410 -0.4725 -0.3373
 3103TIP3   OH230799   2.410   1.989  11.875  0.0197 -0.7656 -0.3071
 3103TIP3    H130800   2.392   1.896  11.891  1.6759 -1.0283  0.1440
 3103TIP3    H230801   2.349   2.035  11.933 -0.6601 -1.5702 -0.3725
 3104TIP3   OH230802   6.310   0.409  16.473  0.1279  0.5034 -0.5527
 3104TIP3    H130803   6.229   0.360  16.462  0.7782 -0.6505 -0.3370
 3104TIP3    H230804   6.283   0.494  16.508 -0.8624 -0.4256  0.9723
 3105TIP3   OH230805   6.061   2.163   3.833 -0.3434  0.3258 -0.1095
 3105TIP3    H130806   6.017   2.243   3.863  1.4660  0.9165  1.0670
 3105TIP3    H230807   6.017   2.092   3.879  1.0704  1.0594  2.4916
 3106TIP3   OH230808   3.667   0.271  11.507 -0.3647  0.1388  0.1207
 3106TIP3    H130809   3.691   0.193  11.457 -1.8771  0.7341 -1.6003
 3106TIP3    H230810   3.571   0.268  11.511 -0.3255  0.7516  1.9645
 3107TIP3   OH230811   1.748   1.102  15.810  0.3439  0.5920 -0.0488
 3107TIP3    H130812   1.814   1.127  15.746  0.9754  0.1134  0.4081
 3107TIP3    H230813   1.773   1.147  15.891  0.6059 -0.2642  0.3561
 3108TIP3   OH230814   1.632   2.864   3.979 -0.4005  0.1171 -0.5076
 3108TIP3    H130815   1.682   2.783   3.979  0.1138  0.4309 -0.3570
 3108TIP3    H230816   1.604   2.876   4.070 -1.6123 -0.5795 -0.7797
 3109TIP3   OH230817   4.867   3.732  10.962 -0.0287  0.6493  0.2119
 3109TIP3    H130818   4.921   3.756  11.037  1.1166 -0.1166 -0.3372
 3109TIP3    H230819   4.917   3.662  10.919 -0.6924  1.0327 -1.2156
 3110TIP3   OH230820   1.509   0.346   2.204  0.5284  0.1220 -0.5545
 3110TIP3    H130821   1.476   0.412   2.265  0.3349  0.2249 -0.7698
 3110TIP3    H230822   1.447   0.274   2.210  0.5778  0.0808 -0.5366
 3111TIP3   OH230823   5.894   4.572  15.155  0.0065  0.0968 -0.4299
 3111TIP3    H130824   5.933   4.646  15.203 -0.7889 -0.4283  1.0790
 3111TIP3    H230825   5.968   4.528  15.114  0.6667  0.7992 -0.0171
 3112TIP3   OH230826   6.074   1.772   0.102  0.1449  0.0197  0.2297
 3112TIP3    H130827   6.115   1.712   0.040  2.6475  0.7008  1.1548
 3112TIP3    H230828   6.144   1.792   0.165 -1.6832  1.1080  1.9628
 3113TIP3   OH230829   5.149   2.035   6.358  0.3164  0.0812 -0.1033
 3113TIP3    H130830   5.197   2.102   6.310 -0.4266 -0.1744 -1.2165
 3113TIP3    H230831   5.154   2.062   6.450  1.4167  0.7776 -0.3714
 3114TIP3   OH230832   2.370   4.320   3.254 -0.3886 -0.1745 -0.1695
 3114TIP3    H130833   2.294   4.363   3.293  0.9459  0.5988  1.6203
 3114TIP3    H230834   2.339   4.231   3.234 -1.3806 -0.3129  1.8216
 3115TIP3   OH230835   3.807   1.496  15.946 -0.0387 -0.1006 -0.1735
 3115TIP3    H130836   3.881   1.463  15.997  0.2348  0.1979 -0.3812
 3115TIP3    H230837   3.843   1.566  15.893 -0.5801  0.3899  0.1039
 3116TIP3   OH230838   3.017   6.453   5.519  0.2751 -0.2494 -0.0067
 3116TIP3    H130839   2.980   6.540   5.507 -0.5915 -0.6424 -0.1988
 3116TIP3    H230840   2.956   6.409   5.579  2.0081  0.1001  2.0909
 3117TIP3   OH230841   2.836   1.699   1.851  0.2060  0.2527  0.3093
 3117TIP3    H130842   2.801   1.782   1.821 -0.4060 -0.9159 -2.2844
 3117TIP3    H230843   2.761   1.653   1.889  0.1846  0.1796  0.1781
 3118TIP3   OH230844   3.466   3.597   0.005  0.2508 -0.1586  1.2767
 3118TIP3    H130845   3.509   3.652  -0.060  0.1072 -0.6287  0.7827
 3118TIP3    H230846   3.537   3.572   0.065  0.5592 -0.4661  0.7901
 3119TIP3   OH230847   1.181   2.750   4.131 -0.6550 -0.7931 -0.0593
 3119TIP3    H130848   1.107   2.714   4.081 -0.5810  2.2213 -2.4920
 3119TIP3    H230849   1.146   2.831   4.169  0.1756 -1.5617  2.4185
 3120TIP3   OH230850   3.406   2.441  11.525 -0.7452  0.5068  0.1484
 3120TIP3    H130851   3.401   2.530  11.492 -0.8316  0.5467  0.2700
 3120TIP3    H230852   3.324   2.428  11.573 -1.1623  0.0405 -0.6747
 3121TIP3   OH230853   0.890   3.864   0.472 -0.2118  0.0214 -0.0689
 3121TIP3    H130854   0.869   3.782   0.516 -0.5363  0.6152  0.8875
 3121TIP3    H230855   0.909   3.838   0.381 -0.4154 -1.0894  0.1981
 3122TIP3   OH230856   4.328   3.062  12.554  0.5031 -0.2639 -0.5482
 3122TIP3    H130857   4.352   3.152  12.575 -1.3400 -0.6650  3.8253
 3122TIP3    H230858   4.234   3.066  12.536  0.5279 -1.2095 -0.8982
 3123TIP3   OH230859   3.883   0.051  10.815 -0.4390 -0.2985  0.0707
 3123TIP3    H130860   3.944   0.028  10.745  0.2034 -1.9448  1.1310
 3123TIP3    H230861   3.815  -0.016  10.811 -0.0097 -0.8390  1.4583
 3124TIP3   OH230862   2.666   6.791   3.897 -0.0795  0.0700  0.0767
 3124TIP3    H130863   2.732   6.826   3.837 -0.4399 -1.0513 -0.9892
 3124TIP3    H230864   2.705   6.801   3.984  1.6950 -0.9656 -0.5682
 3125TIP3   OH230865   2.892   5.049   3.332  0.6604  0.6483  0.6016
 3125TIP3    H130866   2.819   5.095   3.292  0.6061  1.3845  1.5170
 3125TIP3    H230867   2.851   4.991   3.396  0.7232 -0.7365 -0.6005
 3126TIP3   OH230868   5.335   3.230   4.918  0.0288  0.1352  0.4386
 3126TIP3    H130869   5.283   3.288   4.862  1.7382  0.1577 -1.1987
 3126TIP3    H230870   5.426   3.258   4.903  0.6027 -0.7130  2.2604
 3127TIP3   OH230871   5.793   1.975  14.540  0.1489 -0.2443  0.1127
 3127TIP3    H130872   5.795   2.060  14.585  0.8909  0.7523 -1.7187
 3127TIP3    H230873   5.751   1.995  14.455 -3.3109 -2.4984  1.1952
 3128TIP3   OH230874   0.415   0.236  16.493  0.3436 -0.1714 -0.2590
 3128TIP3    H130875   0.398   0.210  16.584 -0.3261 -0.6839 -0.5290
 3128TIP3    H230876   0.456   0.160  16.453 -2.2311 -1.0981 -1.2373
 3129TIP3   OH230877   1.355   2.789  14.211  0.0809 -0.0539  1.0892
 3129TIP3    H130878   1.293   2.824  14.147  0.2830  2.1453  2.0851
 3129TIP3    H230879   1.300   2.760  14.284  0.1771  1.3027  1.6996
 3130TIP3   OH230880   4.056   4.622  14.386  0.7163 -0.4762  0.4766
 3130TIP3    H130881   3.987   4.687  14.393 -1.7943 -2.7727 -1.5799
 3130TIP3    H230882   4.091   4.614  14.474 -0.8920  1.5710  1.3225
 3131TIP3   OH230883   6.177   3.571  11.283  0.0522  0.3808 -0.2509
 3131TIP3    H130884   6.193   3.620  11.203  0.2176 -1.7594 -1.5565
 3131TIP3    H230885   6.258   3.581  11.334  0.6573  0.2175 -1.1763
 3132TIP3   OH230886   4.231   3.837  14.962  0.1296  0.2546  0.4095
 3132TIP3    H130887   4.148   3.864  15.001 -1.1485  0.0664 -2.0712
 3132TIP3    H230888   4.266   3.917  14.922 -0.5322 -0.3894 -1.4682
 3133TIP3   OH230889   2.317   0.927  10.836  0.0436  0.0378  0.0014
 3133TIP3    H130890   2.338   1.004  10.889 -0.0696  0.3223 -0.3719
 3133TIP3    H230891   2.377   0.859  10.868  0.2876  0.3372  0.1799
 3134TIP3   OH230892   0.911   1.944  14.942  0.4440 -0.2303 -0.0442
 3134TIP3    H130893   0.952   1.913  14.862 -0.9836 -0.9950 -0.4896
 3134TIP3    H230894   0.851   1.875  14.967 -1.0501  1.1423  0.2530
 3135TIP3   OH230895   0.579   2.891   6.084  0.2530  0.1637 -0.0257
 3135TIP3    H130896   0.669   2.859   6.085  0.9384  1.9841 -1.6393
 3135TIP3    H230897   0.535   2.837   6.018  0.5114  0.2073 -0.2327
 3136TIP3   OH230898   6.674   3.938   3.960 -0.1898 -0.6626 -0.6658
 3136TIP3    H130899   6.756   3.956   3.913  0.3703  0.8533  0.8393
 3136TIP3    H230900   6.613   3.912   3.891  0.9010  0.4981 -2.1196
 3137TIP3   OH230901   6.432   4.818   4.158 -0.2768  0.6424 -0.1924
 3137TIP3    H130902   6.340   4.797   4.141 -0.3505  1.4838 -0.8228
 3137TIP3    H230903   6.433   4.911   4.180  0.1892  0.2204  1.6595
 3138TIP3   OH230904   5.883   6.171   3.527  0.4611  0.4381 -0.3714
 3138TIP3    H130905   5.793   6.197   3.544  0.3059 -0.9788  1.1276
 3138TIP3    H230906   5.925   6.172   3.613  1.4871 -0.2883 -0.8503
 3139TIP3   OH230907   1.695   2.186   3.473  0.4684 -0.2636 -0.1290
 3139TIP3    H130908   1.611   2.144   3.491  1.4178 -2.3227 -0.3408
 3139TIP3    H230909   1.705   2.179   3.378 -0.2331  2.2144 -0.4269
 3140TIP3   OH230910   1.311   5.241  11.412 -0.2386  0.0430 -0.3217
 3140TIP3    H130911   1.372   5.200  11.351 -0.3878  0.2889 -0.6371
 3140TIP3    H230912   1.225   5.233  11.371 -0.6211 -1.5143  0.7550
 3141TIP3   OH230913   4.323   3.633  14.813 -1.0415  0.0471 -0.1232
 3141TIP3    H130914   4.416   3.635  14.789 -0.4426 -1.0038  1.9874
 3141TIP3    H230915   4.315   3.700  14.882 -1.6823 -0.4135  0.2495
 3142TIP3   OH230916   6.628   0.505   6.613 -0.4324 -0.1904 -0.6764
 3142TIP3    H130917   6.592   0.510   6.702  0.7202 -0.3377 -0.1955
 3142TIP3    H230918   6.565   0.553   6.559  0.1858  2.1786  0.6454
 3143TIP3   OH230919   6.343   1.191   1.448 -0.0975  0.0185  0.6212
 3143TIP3    H130920   6.288   1.114   1.440  1.6286 -1.0785 -1.1240
 3143TIP3    H230921   6.295   1.260   1.402  0.1164 -1.0064 -1.1860
 3144TIP3   OH230922   5.235   2.253   0.042  0.5143 -0.6024  0.0491
 3144TIP3    H130923   5.224   2.192   0.116 -1.9315  0.8854  0.9749
 3144TIP3    H230924   5.266   2.334   0.082  1.3236 -0.4534 -0.8583
 3145TIP3   OH230925   1.291   0.087  16.429  0.2052 -0.4660  0.4322
 3145TIP3    H130926   1.331   0.118  16.509 -0.7708 -0.9113  1.1033
 3145TIP3    H230927   1.290  -0.009  16.438  2.0677 -0.6660 -1.0709
 3146TIP3   OH230928   3.998   1.667  14.578 -0.2112  0.5621  0.1130
 3146TIP3    H130929   4.082   1.711  14.560  0.2392 -1.2465 -2.4660
 3146TIP3    H230930   3.932   1.732  14.554  0.4559  1.0164 -0.5399
 3147TIP3   OH230931   0.886   3.130  16.362  0.4058 -0.0123 -0.0958
 3147TIP3    H130932   0.912   3.118  16.453  1.0890 -0.6238 -0.3624
 3147TIP3    H230933   0.943   3.069  16.313 -0.1802  0.0714 -0.8899
 3148TIP3   OH230934   0.318   3.335  15.796 -0.2754 -0.7432  0.1709
 3148TIP3    H130935   0.256   3.355  15.725 -2.0359 -1.5842  1.4265
 3148TIP3    H230936   0.404   3.337  15.754 -1.0880  1.0290 -1.5065
 3149TIP3   OH230937   6.804   4.345  12.354 -0.4220 -0.4873 -0.3998
 3149TIP3    H130938   6.790   4.327  12.447  1.9792  0.7695  0.2378
 3149TIP3    H230939   6.860   4.422  12.352 -1.9524  0.6193 -2.9450
 3150TIP3   OH230940   5.707   5.937  12.992  0.4582  0.1325  0.1470
 3150TIP3    H130941   5.786   5.986  12.971  1.0146 -0.7518  0.1546
 3150TIP3    H230942   5.676   5.973  13.075  0.1070  1.3806 -0.5194
 3151TIP3   OH230943   6.030   0.695   6.058 -0.0215  0.2743  0.5136
 3151TIP3    H130944   6.120   0.676   6.032  0.0247 -0.8053  1.4422
 3151TIP3    H230945   6.033   0.785   6.090  0.3903  0.8124 -0.9997
 3152TIP3   OH230946   6.579   3.972   2.161  0.1830 -0.0347  0.2210
 3152TIP3    H130947   6.576   3.930   2.075 -0.1452  1.4791 -0.5261
 3152TIP3    H230948   6.504   4.031   2.161 -1.2901 -1.8133  2.5167
 3153TIP3   OH230949   3.553   4.918  15.815  0.0894  0.5924 -0.3311
 3153TIP3    H130950   3.537   4.825  15.799  0.6636  0.4265  0.0142
 3153TIP3    H230951   3.609   4.946  15.743  0.7971  0.4059  0.1420
 3154TIP3   OH230952   0.128   1.671  13.003 -0.1142 -0.0248 -0.8641
 3154TIP3    H130953   0.048   1.619  13.001 -0.0197 -0.2310  0.2924
 3154TIP3    H230954   0.183   1.633  12.934 -0.0008 -1.5361  0.0299
 3155TIP3   OH230955   1.682   2.945  12.424  0.1713  0.4617 -0.6477
 3155TIP3    H130956   1.759   2.888  12.422 -0.5189 -0.6563  1.9170
 3155TIP3    H230957   1.705   3.013  12.488 -1.7544 -1.1675  1.8849
 3156TIP3   OH230958   4.479   0.623   3.638  0.3113 -0.2125 -0.1971
 3156TIP3    H130959   4.478   0.546   3.695  0.2043 -0.4507 -0.5204
 3156TIP3    H230960   4.570   0.628   3.607  0.3072 -0.2379 -0.2139
 3157TIP3   OH230961   6.729   0.801   0.554 -0.2608  0.0236  0.0302
 3157TIP3    H130962   6.789   0.837   0.619 -1.1827 -1.6264  1.8194
 3157TIP3    H230963   6.686   0.878   0.517 -0.3342  0.9389  1.9481
 3158TIP3   OH230964   4.228   5.431   1.094  0.2604  0.3739 -0.2326
 3158TIP3    H130965   4.281   5.501   1.132  1.1667 -0.1336 -0.5686
 3158TIP3    H230966   4.290   5.373   1.051 -0.6915  0.5066 -1.8192
 3159TIP3   OH230967   1.737   2.851   3.707 -0.3342  0.3150  0.0637
 3159TIP3    H130968   1.741   2.943   3.680  0.4207  0.7803  1.7063
 3159TIP3    H230969   1.715   2.854   3.800 -2.1107 -1.2382 -0.2664
 3160TIP3   OH230970   5.095   1.579  12.678  0.1920  0.3750  0.2066
 3160TIP3    H130971   5.035   1.652  12.665 -1.2833 -1.2580 -2.4845
 3160TIP3    H230972   5.142   1.571  12.595  1.2946 -0.8872  0.9296
 3161TIP3   OH230973   3.776   1.877  15.603 -0.1162  0.3776  0.3537
 3161TIP3    H130974   3.682   1.866  15.590  0.0942 -0.3084 -0.6254
 3161TIP3    H230975   3.787   1.972  15.617 -0.9296  0.4772  0.3713
 3162TIP3   OH230976   6.566   5.328  14.922  0.5902  0.2307  0.1104
 3162TIP3    H130977   6.590   5.419  14.937 -0.5922  0.4196  0.8802
 3162TIP3    H230978   6.486   5.315  14.972  0.6287 -1.1762 -0.1624
 3163TIP3   OH230979   5.368   1.187  13.774  0.4028 -0.0394 -0.0418
 3163TIP3    H130980   5.342   1.201  13.865  1.4105 -1.5557  0.4906
 3163TIP3    H230981   5.370   1.275  13.736 -1.7556  0.4532  0.9067
 3164TIP3   OH230982   6.517   2.938  10.925 -0.0811 -0.5814  0.2244
 3164TIP3    H130983   6.454   2.893  10.868  0.8614 -1.4449 -0.1455
 3164TIP3    H230984   6.600   2.935  10.877  1.1268 -2.8502  2.3704
 3165TIP3   OH230985   1.146   5.589   2.245  0.3055  0.2571 -0.4112
 3165TIP3    H130986   1.112   5.515   2.194 -3.3851  2.3269 -1.1722
 3165TIP3    H230987   1.197   5.640   2.182  1.3994 -0.6949 -0.3114
 3166TIP3   OH230988   1.790   4.693  11.363 -0.4281 -0.1382 -0.2112
 3166TIP3    H130989   1.757   4.782  11.359 -0.8712 -0.1715  2.1990
 3166TIP3    H230990   1.711   4.639  11.371 -0.0787 -0.6454 -0.1723
 3167TIP3   OH230991   4.685   2.939  17.160  0.5953 -1.1614  0.5782
 3167TIP3    H130992   4.726   2.853  17.164  1.8232 -0.5287  1.9229
 3167TIP3    H230993   4.741   2.995  17.214 -0.5586  0.3265  0.2601
 3168TIP3   OH230994   3.841   3.504  12.487  0.3755 -0.0233 -0.4623
 3168TIP3    H130995   3.897   3.443  12.439  0.0447  1.0902 -2.3245
 3168TIP3    H230996   3.893   3.584  12.495  0.7892 -0.4906  1.9135
 3169TIP3   OH230997   3.968   0.335   4.054  0.0259 -0.2606 -0.0004
 3169TIP3    H130998   3.932   0.264   4.001  0.3983 -0.1800 -0.3613
 3169TIP3    H230999   4.062   0.333   4.036  0.2492 -0.6564  1.1624
 3170TIP3   OH231000   1.079   0.849   2.591 -0.3376  0.6132  0.1751
 3170TIP3    H131001   1.172   0.841   2.567 -0.4962  1.7745 -0.8574
 3170TIP3    H231002   1.041   0.764   2.568  0.3598  0.3097  0.1208
 3171TIP3   OH231003   0.215   2.624   2.770 -0.4010 -0.0257  0.3267
 3171TIP3    H131004   0.199   2.690   2.837 -0.8781 -0.3629  0.5532
 3171TIP3    H231005   0.224   2.542   2.819  3.0654  0.2756  0.2980
 3172TIP3   OH231006   0.011   2.333   2.022 -0.4238 -0.0338  0.2836
 3172TIP3    H131007   0.002   2.322   2.116 -0.1636  0.9840  0.4355
 3172TIP3    H231008   0.071   2.407   2.012 -0.3996 -0.1716 -0.6781
 3173TIP3   OH231009   3.188   3.666   4.849 -0.1210 -0.2183  0.5090
 3173TIP3    H131010   3.191   3.640   4.941 -1.3764 -0.4138  0.5087
 3173TIP3    H231011   3.230   3.752   4.846 -0.7814  0.1340  1.3960
 3174TIP3   OH231012   1.745   4.055  15.187 -0.2741  0.0464  0.0890
 3174TIP3    H131013   1.696   3.983  15.146 -0.2802  1.5124 -2.6152
 3174TIP3    H231014   1.677   4.109  15.229 -0.7551  0.7232 -1.5117
 3175TIP3   OH231015   4.461   0.956  16.775 -0.3866  0.5138  0.1197
 3175TIP3    H131016   4.530   0.927  16.835 -0.6082  0.3574  0.3028
 3175TIP3    H231017   4.386   0.973  16.832 -0.7647 -0.1526 -0.1761
 3176TIP3   OH231018   2.894   2.950   4.559  0.1323 -0.0966 -0.3633
 3176TIP3    H131019   2.838   2.890   4.510  0.8399 -0.2716 -0.9628
 3176TIP3    H231020   2.982   2.931   4.528  0.2887  1.7575 -1.0876
 3177TIP3   OH231021   3.893   0.682  13.931  0.0825 -0.0859  0.6375
 3177TIP3    H131022   3.913   0.648  14.017 -0.9084 -1.6178  0.2792
 3177TIP3    H231023   3.860   0.771  13.947  1.1704  0.1410  1.6964
 3178TIP3   OH231024   1.791   2.663  10.923  0.0497 -0.2183  0.1020
 3178TIP3    H131025   1.713   2.705  10.962 -1.0275 -0.7539 -1.4328
 3178TIP3    H231026   1.829   2.730  10.867  0.2220 -0.2329  0.2007
 3179TIP3   OH231027   0.587   3.695   5.689 -0.1574  0.2127  0.2064
 3179TIP3    H131028   0.632   3.643   5.623 -1.4398  1.5450 -1.7854
 3179TIP3    H231029   0.641   3.774   5.698 -1.5106  1.3607 -1.4517
 3180TIP3   OH231030   6.470   3.585  11.807 -0.0215 -0.0606 -0.6597
 3180TIP3    H131031   6.565   3.586  11.799  0.4824  0.2368  3.9118
 3180TIP3    H231032   6.449   3.497  11.839 -1.2103  0.0756 -1.0393
 3181TIP3   OH231033   1.197   5.980   4.438 -0.4086 -0.1586  0.9607
 3181TIP3    H131034   1.111   5.985   4.396 -0.1052  1.9979  0.4974
 3181TIP3    H231035   1.237   6.065   4.419  0.8876 -0.2393  3.1839
 3182TIP3   OH231036   3.505   2.676   1.468 -0.0482  0.0269 -0.4445
 3182TIP3    H131037   3.570   2.616   1.506 -0.7013 -0.6806 -0.4443
 3182TIP3    H231038   3.505   2.655   1.374 -0.5117 -0.1865 -0.3946
 3183TIP3   OH231039   3.221   0.850  15.563  0.0345  0.5794  0.2055
 3183TIP3    H131040   3.212   0.849  15.468 -1.0562  1.1781  0.2950
 3183TIP3    H231041   3.250   0.761  15.586 -2.6969 -0.5433 -0.4150
 3184TIP3   OH231042   6.078   4.634   3.805  0.6303 -0.7295  0.0916
 3184TIP3    H131043   6.070   4.687   3.885  3.3177  0.9373 -0.6797
 3184TIP3    H231044   5.992   4.642   3.763  1.0913  3.5874 -0.2695
 3185TIP3   OH231045   4.822   2.405  13.679  0.0100 -0.1092  0.0944
 3185TIP3    H131046   4.732   2.436  13.684 -0.2667 -0.6756 -1.1946
 3185TIP3    H231047   4.831   2.343  13.751 -0.6228 -0.0270  0.2388
 3186TIP3   OH231048   2.664   2.647  14.117  0.0058  0.1052  0.0343
 3186TIP3    H131049   2.657   2.723  14.059  0.0417  0.9890  1.1646
 3186TIP3    H231050   2.733   2.593  14.078  1.0788  1.4295  0.0872
 3187TIP3   OH231051   1.436   6.627  13.234  0.1684 -0.5459  0.6572
 3187TIP3    H131052   1.447   6.538  13.200  1.5574  0.0441 -0.4479
 3187TIP3    H231053   1.456   6.619  13.328 -0.0797 -1.4562  0.6392
 3188TIP3   OH231054   5.554   5.631   3.301 -0.1786  0.0963 -0.3375
 3188TIP3    H131055   5.571   5.714   3.257  0.3473  0.0446 -0.2329
 3188TIP3    H231056   5.562   5.651   3.394 -1.9914  0.3647 -0.2244
 3189TIP3   OH231057   6.355   4.989  10.441  0.2788 -0.4523  0.3985
 3189TIP3    H131058   6.317   5.069  10.478  0.2658  0.4716 -1.5828
 3189TIP3    H231059   6.446   5.012  10.425  0.0800 -0.5788 -0.9224
 3190TIP3   OH231060   2.207   2.370  13.870  0.3444 -0.1760 -0.3626
 3190TIP3    H131061   2.162   2.451  13.845  0.4641  0.4321  1.2984
 3190TIP3    H231062   2.273   2.357  13.802 -0.0303  0.8324 -0.9297
 3191TIP3   OH231063   4.881   4.423   5.979  0.5647 -0.0794  0.0108
 3191TIP3    H131064   4.884   4.421   6.075  2.3642 -3.6485 -0.0528
 3191TIP3    H231065   4.801   4.471   5.959  2.0598  4.0919  3.2257
 3192TIP3   OH231066   4.295   1.389  11.407  0.5153  0.1810  0.1169
 3192TIP3    H131067   4.378   1.365  11.367 -0.1883 -0.9766 -0.6921
 3192TIP3    H231068   4.318   1.446  11.480  2.0744 -0.9414  0.5152
 3193TIP3   OH231069   2.539   5.393  16.635  0.0883  0.1064 -0.2869
 3193TIP3    H131070   2.632   5.414  16.642 -0.0762  1.4122 -1.8630
 3193TIP3    H231071   2.498   5.474  16.607 -1.0993 -1.2523 -2.6542
 3194TIP3   OH231072   6.775   4.409   1.894 -0.4132 -0.0025  0.0031
 3194TIP3    H131073   6.800   4.329   1.848 -0.7643 -0.7305  1.0652
 3194TIP3    H231074   6.858   4.455   1.908 -0.0755 -0.7517  0.4476
 3195TIP3   OH231075   0.424   3.775  11.428 -0.6857  0.0607  1.2956
 3195TIP3    H131076   0.438   3.791  11.335 -1.8415  1.5031  1.3366
 3195TIP3    H231077   0.505   3.805  11.470 -0.2050 -0.4965  0.7637
 3196TIP3   OH231078   0.416   0.223  11.189 -0.5505  1.1264  0.3568
 3196TIP3    H131079   0.475   0.231  11.115  1.4948 -0.8080  1.7045
 3196TIP3    H231080   0.448   0.287  11.253 -0.2871  0.5229  0.8357
 3197TIP3   OH231081   4.205   4.898  12.265  0.3716 -0.0444  0.0804
 3197TIP3    H131082   4.287   4.877  12.310  0.3918  0.4399  0.2748
 3197TIP3    H231083   4.187   4.989  12.290 -0.0860 -0.0650 -0.1736
 3198TIP3   OH231084   4.936   1.061   1.817  0.1443 -0.0989  0.4783
 3198TIP3    H131085   4.883   1.121   1.764  1.2064  1.1942  0.8817
 3198TIP3    H231086   4.874   1.024   1.880 -0.4060  0.9517  0.5594
 3199TIP3   OH231087   1.177   5.722   0.031  0.7899  0.2332 -0.2832
 3199TIP3    H131088   1.153   5.678   0.112  1.8126  1.3264  0.6292
 3199TIP3    H231089   1.101   5.710  -0.027 -0.0999 -0.1980  0.9648
 3200TIP3   OH231090   2.356   2.754  16.729  0.3599 -0.2701 -0.2450
 3200TIP3    H131091   2.401   2.774  16.647 -0.8747  3.1567 -0.1496
 3200TIP3    H231092   2.268   2.727  16.703  0.4200 -0.6019 -0.1073
 3201TIP3   OH231093   3.204   3.926   0.061 -0.0071 -0.1008 -0.2516
 3201TIP3    H131094   3.210   3.836   0.095  0.9409 -0.7119 -1.9607
 3201TIP3    H231095   3.278   3.971   0.101 -0.5529 -0.0352  0.7053
 3202TIP3   OH231096   3.075   2.651  10.943  0.1562  0.2491  0.3218
 3202TIP3    H131097   3.138   2.694  10.885 -1.9601  0.7272 -1.6847
 3202TIP3    H231098   3.000   2.711  10.946 -0.8784 -1.0652  1.3518
 3203TIP3   OH231099   4.237   0.499  15.308  0.6198 -0.0316 -0.0475
 3203TIP3    H131100   4.316   0.493  15.253  2.0479 -0.2556  1.9814
 3203TIP3    H231101   4.236   0.589  15.339 -1.2497  0.6439 -1.9088
 3204TIP3   OH231102   5.006   6.534  10.572  0.7355 -0.0095 -0.2630
 3204TIP3    H131103   4.966   6.610  10.614 -0.3115 -0.9054  0.4021
 3204TIP3    H231104   5.073   6.570  10.515 -0.7209  1.4974 -1.0584
 3205TIP3   OH231105   1.480   2.495   0.143 -0.6680  0.4330  0.4974
 3205TIP3    H131106   1.495   2.588   0.161  2.2935  0.4614 -1.6931
 3205TIP3    H231107   1.532   2.449   0.208  0.6140  0.3740 -0.5580
 3206TIP3   OH231108   5.103   2.786   5.801 -0.7139  0.1156  0.0234
 3206TIP3    H131109   5.074   2.856   5.742 -1.8498 -0.1100  0.3035
 3206TIP3    H231110   5.129   2.715   5.743 -2.5597 -0.3942 -0.2068
 3207TIP3   OH231111   5.116   6.008  15.214  0.6833 -0.1113  0.5303
 3207TIP3    H131112   5.199   5.970  15.187 -0.3797 -0.7811 -1.9900
 3207TIP3    H231113   5.132   6.103  15.215  1.3033 -0.1996 -0.6085
 3208TIP3   OH231114   0.013   0.886   4.252 -0.1510 -0.4548  0.3109
 3208TIP3    H131115  -0.055   0.952   4.266 -0.0719 -0.2031 -0.4823
 3208TIP3    H231116   0.090   0.921   4.297 -0.1599 -0.0876  0.0420
 3209TIP3   OH231117   4.696   3.503  11.859 -0.4376 -0.3850 -0.3249
 3209TIP3    H131118   4.609   3.478  11.888 -1.4026  0.7019 -2.1629
 3209TIP3    H231119   4.683   3.586  11.813  1.5786 -0.1452 -0.5083
 3210TIP3   OH231120   3.861   3.548   5.497  0.2047  0.2801  0.0070
 3210TIP3    H131121   3.796   3.524   5.563 -1.6702  0.4065 -1.7407
 3210TIP3    H231122   3.861   3.644   5.496  0.3236  0.2806 -0.0706
 3211TIP3   OH231123   5.963   5.850   1.936  0.1087 -1.0936 -0.0951
 3211TIP3    H131124   6.029   5.899   1.985 -2.0067  1.0467  0.7050
 3211TIP3    H231125   5.944   5.774   1.991  0.1203 -0.4286  0.8381
 3212TIP3   OH231126   0.292   0.561  13.663 -0.4418 -0.1020 -0.4771
 3212TIP3    H131127   0.214   0.538  13.612 -0.5731 -0.9756  0.1024
 3212TIP3    H231128   0.365   0.540  13.606 -0.5321 -2.7364  0.2944
 3213TIP3   OH231129   2.061   3.271  15.714 -0.0557 -0.5195 -0.2388
 3213TIP3    H131130   2.088   3.357  15.748  0.4949 -0.8701  0.2229
 3213TIP3    H231131   2.116   3.209  15.761  1.0414 -1.0009 -2.1022
 3214TIP3   OH231132   4.065   5.400  12.026  0.3817  0.0983 -0.0559
 3214TIP3    H131133   4.110   5.320  12.052  0.4292  0.2942  0.4629
 3214TIP3    H231134   4.120   5.437  11.957 -0.5910 -1.2760 -1.5928
 3215TIP3   OH231135   2.109   2.352  14.619  0.5978 -0.4715  0.4370
 3215TIP3    H131136   2.037   2.294  14.594  0.4562  0.2775 -0.9391
 3215TIP3    H231137   2.153   2.372  14.536 -0.0377  2.3225  0.7260
 3216TIP3   OH231138   0.154   0.068  17.160 -0.2147  0.4187  0.2424
 3216TIP3    H131139   0.218   0.135  17.186 -0.7060 -0.1970  3.1754
 3216TIP3    H231140   0.079   0.118  17.127  1.5067  1.1578 -2.7819
 3217TIP3   OH231141   6.259   1.315   5.124 -0.5108  0.1249 -0.1302
 3217TIP3    H131142   6.204   1.276   5.056 -0.5337 -1.6055  0.8645
 3217TIP3    H231143   6.334   1.256   5.131  0.4530  1.3555 -0.0237
 3218TIP3   OH231144   0.294   6.468   4.460 -1.0713 -0.0429 -0.0631
 3218TIP3    H131145   0.228   6.408   4.495 -0.1845 -1.5500 -0.9217
 3218TIP3    H231146   0.357   6.477   4.532 -1.1055 -0.2816 -0.0034
 3219TIP3   OH231147   1.761   0.962  13.473 -0.3061  1.1006 -0.3360
 3219TIP3    H131148   1.702   1.020  13.424 -0.8519  1.0759  0.2808
 3219TIP3    H231149   1.703   0.894  13.509  0.5029 -0.5319 -2.0757
 3220TIP3   OH231150   5.621   4.530  16.537 -0.1745  0.2853  0.2234
 3220TIP3    H131151   5.551   4.539  16.602  0.5125 -2.0360  1.3326
 3220TIP3    H231152   5.599   4.450  16.489  0.5598  0.7442 -0.9022
 3221TIP3   OH231153   4.567   5.660   4.244 -0.3564  0.1652  0.1490
 3221TIP3    H131154   4.622   5.584   4.262  0.1934  0.8383  1.3702
 3221TIP3    H231155   4.542   5.651   4.152 -0.4545 -1.5814  0.3299
 3222TIP3   OH231156   6.133   0.171   1.519  0.3545  0.6522  0.0079
 3222TIP3    H131157   6.146   0.210   1.432  1.9267  3.4656  1.4387
 3222TIP3    H231158   6.218   0.132   1.540 -0.4269 -1.2573 -0.2611
 3223TIP3   OH231159   1.936   1.241  11.991  0.1596 -0.2254  0.2086
 3223TIP3    H131160   1.859   1.277  12.036 -0.9871 -1.2725 -0.8864
 3223TIP3    H231161   1.921   1.147  11.989  1.1399 -0.3712 -0.6208
 3224TIP3   OH231162   2.213   6.510  15.519 -0.1580  0.5853  0.0360
 3224TIP3    H131163   2.175   6.507  15.431 -3.0182 -1.4218  1.2928
 3224TIP3    H231164   2.284   6.446  15.516  0.6295  1.4911 -1.1731
 3225TIP3   OH231165   0.127   5.399  14.644  0.4545  0.2528 -0.4899
 3225TIP3    H131166   0.146   5.447  14.725  0.7499 -0.1583 -0.3121
 3225TIP3    H231167   0.055   5.341  14.667  0.2282  0.4731 -0.6503
 3226TIP3   OH231168   5.908   4.879   3.938  0.2550  0.3657 -0.1249
 3226TIP3    H131169   5.841   4.811   3.931  1.2402 -0.7811  1.1316
 3226TIP3    H231170   5.942   4.889   3.849  0.1055 -0.8286 -0.3253
 3227TIP3   OH231171   5.604   2.405  13.936  0.4027  0.6060  0.4689
 3227TIP3    H131172   5.516   2.438  13.916  0.4375  0.3144 -0.1718
 3227TIP3    H231173   5.612   2.325  13.883  0.8185  0.2916  1.0038
 3228TIP3   OH231174   1.044   3.326   5.896  0.1258  0.5003 -0.1590
 3228TIP3    H131175   0.982   3.253   5.898  1.0251 -0.2501  0.8745
 3228TIP3    H231176   1.129   3.285   5.880  0.4712  1.4482 -0.7899
 3229TIP3   OH231177   2.313   2.277  12.330 -0.2043  0.4630  0.1900
 3229TIP3    H131178   2.408   2.286  12.326 -0.1141 -0.4897  0.0572
 3229TIP3    H231179   2.291   2.225  12.253 -0.5332 -1.6285  1.6484
 3230TIP3   OH231180   2.975   0.415  12.266  0.2485  0.3134  0.5166
 3230TIP3    H131181   2.903   0.469  12.298 -1.0457 -0.9000 -0.2996
 3230TIP3    H231182   3.046   0.430  12.328 -0.7793  1.3280  1.4704
 3231TIP3   OH231183   0.584   3.791  15.188  0.1205  0.3898  0.3912
 3231TIP3    H131184   0.501   3.808  15.233 -0.0932 -0.1703  0.2116
 3231TIP3    H231185   0.563   3.725  15.123  0.5788  0.7122 -0.0842
 3232TIP3   OH231186   0.902   2.741   5.490  0.0757  0.6557 -0.4970
 3232TIP3    H131187   0.927   2.800   5.419  0.1451 -2.3544 -3.0469
 3232TIP3    H231188   0.981   2.692   5.510 -0.3644  0.3618  0.5657
 3233TIP3   OH231189   0.529   5.576  16.005 -0.2574  0.1738  0.1019
 3233TIP3    H131190   0.533   5.672  16.008  1.1978  0.1053  1.0209
 3233TIP3    H231191   0.619   5.549  15.988 -0.7683 -1.0228 -0.7191
 3234TIP3   OH231192   0.002   5.796   0.948  0.6332  0.4749 -0.3550
 3234TIP3    H131193  -0.087   5.778   0.917  0.8473 -1.4285  0.0857
 3234TIP3    H231194  -0.011   5.845   1.029 -0.0149  0.1191 -0.2409
 3235TIP3   OH231195   5.145   5.413   2.677 -0.6002  0.2613  0.3433
 3235TIP3    H131196   5.166   5.334   2.726 -0.8765  0.7093  1.2010
 3235TIP3    H231197   5.153   5.388   2.585  2.0608 -0.0068  0.6194
 3236TIP3   OH231198   2.215   2.133  12.584 -0.4006  0.2606  0.1548
 3236TIP3    H131199   2.292   2.091  12.545 -0.0991 -0.3465  1.3807
 3236TIP3    H231200   2.199   2.209  12.529  0.3483 -0.2780 -0.8290
 3237TIP3   OH231201   1.493   3.169   6.108  0.2452 -0.3200  0.3252
 3237TIP3    H131202   1.578   3.138   6.139  1.2996  3.3273  1.3219
 3237TIP3    H231203   1.513   3.224   6.032 -1.0390  1.5473  1.2710
 3238TIP3   OH231204   2.942   5.311   3.043  0.7333  0.3894  0.1868
 3238TIP3    H131205   2.921   5.393   2.999 -3.1098 -0.2880  0.6479
 3238TIP3    H231206   2.910   5.243   2.985  0.4106 -0.6622  1.5698
 3239TIP3   OH231207   2.013   3.148  10.651 -0.4306  0.0429  0.1052
 3239TIP3    H131208   2.001   3.223  10.594  0.3562 -0.3199 -0.5557
 3239TIP3    H231209   1.987   3.179  10.738  1.8195  1.6907  0.2288
 3240TIP3   OH231210   6.692   5.990   6.373  0.1600 -0.1017 -0.0905
 3240TIP3    H131211   6.780   5.958   6.391 -0.8535 -1.9019  1.9699
 3240TIP3    H231212   6.678   6.059   6.439 -0.0816 -0.0505 -0.1949
 3241TIP3   OH231213   4.881   6.657   5.383 -0.0117  0.2334  0.1829
 3241TIP3    H131214   4.877   6.562   5.396  0.5446  0.2175  0.2345
 3241TIP3    H231215   4.862   6.694   5.469  0.6429  0.1565  0.3658
 3242TIP3   OH231216   6.639   3.351  14.158 -0.7471  0.4492  0.9548
 3242TIP3    H131217   6.687   3.376  14.079 -0.8303 -0.3278  0.6495
 3242TIP3    H231218   6.594   3.431  14.185 -0.4079  0.8231  0.4367
 3243TIP3   OH231219   0.271   1.845   5.041  0.1621 -0.2162  0.4592
 3243TIP3    H131220   0.283   1.915   5.106  1.4203 -1.3559  1.4979
 3243TIP3    H231221   0.267   1.765   5.093  0.4051 -1.0760 -0.8261
 3244TIP3   OH231222   5.969   3.910   3.287  0.2730 -0.3621  0.5248
 3244TIP3    H131223   5.897   3.858   3.250 -0.4682 -0.7377  2.4766
 3244TIP3    H231224   5.945   4.001   3.270  1.0712 -0.5544 -1.9634
 3245TIP3   OH231225   3.920   3.739   3.999  0.1823 -0.0307  0.4950
 3245TIP3    H131226   3.861   3.809   4.027 -3.6606 -3.0026  0.3964
 3245TIP3    H231227   3.931   3.754   3.905 -0.0792  0.8359  0.5956
 3246TIP3   OH231228   6.014   0.987   5.451  0.2388  0.2658 -0.2873
 3246TIP3    H131229   5.948   0.952   5.511  0.6303  0.9325  0.5434
 3246TIP3    H231230   6.087   1.010   5.508  0.9883  0.0025 -1.1470
 3247TIP3   OH231231   3.550   5.939   2.615 -0.6668  0.1305  0.0215
 3247TIP3    H131232   3.603   5.997   2.670  1.2088  0.3525 -1.9502
 3247TIP3    H231233   3.586   5.852   2.630  0.4934  0.3325 -1.5998
 3248TIP3   OH231234   0.361   2.205  16.551  0.1763 -0.0962  0.0193
 3248TIP3    H131235   0.441   2.258  16.555  1.1761 -1.7018  2.5429
 3248TIP3    H231236   0.294   2.260  16.592 -0.0222  1.1981 -1.9733
 3249TIP3   OH231237   4.801   3.668   3.692  0.4946  0.1043 -0.6561
 3249TIP3    H131238   4.742   3.600   3.725  1.7901 -0.1715  1.2328
 3249TIP3    H231239   4.747   3.747   3.687 -0.0695 -0.1474  1.0056
 3250TIP3   OH231240   3.902   4.399  16.584  0.1389 -0.2050  0.3407
 3250TIP3    H131241   3.850   4.338  16.532 -0.3950  1.5371 -1.2080
 3250TIP3    H231242   3.967   4.434  16.523 -0.5670  1.9516  0.7897
 3251TIP3   OH231243   5.660   6.561  12.506  0.2320 -0.1465 -0.4634
 3251TIP3    H131244   5.717   6.501  12.556 -0.0722 -0.3268 -0.3334
 3251TIP3    H231245   5.719   6.631  12.477  0.0871  0.8624  1.5873
 3252TIP3   OH231246   2.219   1.225   6.778  0.6304  0.4650 -0.1871
 3252TIP3    H131247   2.193   1.305   6.732 -1.2322  1.5624  2.6020
 3252TIP3    H231248   2.206   1.246   6.871  4.5551 -1.5261  0.9119
 3253TIP3   OH231249   5.752   3.530  11.726 -0.5130 -0.0711  0.2103
 3253TIP3    H131250   5.811   3.465  11.688 -1.0854  0.1265 -1.0221
 3253TIP3    H231251   5.791   3.614  11.703 -1.2000  0.0578 -0.4945
 3254TIP3   OH231252   3.713   3.835   5.653  0.4978 -0.0644  0.8370
 3254TIP3    H131253   3.742   3.888   5.727 -0.7031  1.5354  0.1963
 3254TIP3    H231254   3.618   3.847   5.651  0.5956  0.6601 -1.4992
 3255TIP3   OH231255   0.553   5.711   2.573  0.3800  0.7283 -0.2487
 3255TIP3    H131256   0.522   5.784   2.520 -1.7188 -1.0874 -1.5918
 3255TIP3    H231257   0.619   5.668   2.519  1.8974  1.7952  0.6958
 3256TIP3   OH231258   4.087   6.011  11.959  0.1713 -0.1201 -0.1099
 3256TIP3    H131259   4.032   5.974  11.891 -0.8369  0.4104  0.4117
 3256TIP3    H231260   4.154   6.060  11.911 -1.2459  1.2740 -0.7159
 3257TIP3   OH231261   2.987   3.780  17.100  0.1865  0.4229  0.2721
 3257TIP3    H131262   3.060   3.836  17.125  1.3797 -0.5140 -1.0570
 3257TIP3    H231263   2.926   3.839  17.055  0.9670  0.8546 -0.2372
 3258TIP3   OH231264   2.823   2.118  12.238  0.1872 -0.1709 -0.2758
 3258TIP3    H131265   2.778   2.202  12.228 -0.3246 -0.3395  0.5681
 3258TIP3    H231266   2.770   2.070  12.301  0.0220 -1.4465 -1.3665
 3259TIP3   OH231267   4.424   4.883   0.766 -0.2485 -0.1786  0.0010
 3259TIP3    H131268   4.361   4.880   0.837  0.7566  1.1114  0.9778
 3259TIP3    H231269   4.394   4.954   0.710 -1.1211 -1.2896 -0.9548
 3260TIP3   OH231270   2.070   4.710  11.999  0.7674 -0.1922  0.0480
 3260TIP3    H131271   1.982   4.706  11.962  0.0517  0.7961  1.6285
 3260TIP3    H231272   2.070   4.647  12.070  0.6743  1.3248  1.4169
 3261TIP3   OH231273   0.893   4.276  12.188 -0.4396 -0.5764 -0.2028
 3261TIP3    H131274   0.806   4.316  12.194 -0.9450 -1.5323 -1.1409
 3261TIP3    H231275   0.896   4.237  12.101  0.8221 -0.8118 -0.0652
 3262TIP3   OH231276   5.864   6.111  17.019 -0.2850 -0.2459 -0.5459
 3262TIP3    H131277   5.862   6.206  17.013 -0.7393 -0.2619 -0.7135
 3262TIP3    H231278   5.952   6.086  16.992  0.0936  0.1793  0.3053
 3263TIP3   OH231279   1.654   6.147  11.913 -0.5622  0.3413  0.3438
 3263TIP3    H131280   1.598   6.146  11.990  0.4461 -2.8432  1.1143
 3263TIP3    H231281   1.650   6.057  11.879  1.0198  1.0443 -1.8041
 3264TIP3   OH231282   2.770   2.564   3.646 -0.1094  0.0872  0.0514
 3264TIP3    H131283   2.688   2.530   3.611 -0.3602  0.7622 -0.0223
 3264TIP3    H231284   2.786   2.513   3.726 -1.4174  1.0240  0.9350
 3265TIP3   OH231285   3.060   5.695   5.929  0.0699 -0.4928 -0.1071
 3265TIP3    H131286   2.968   5.721   5.932  0.7424  1.8650  3.0482
 3265TIP3    H231287   3.059   5.601   5.946 -1.7867 -0.4933 -0.1176
 3266TIP3   OH231288   2.753   4.474   5.391  0.0526  0.2366  0.2398
 3266TIP3    H131289   2.813   4.419   5.341 -0.2152 -0.5269  0.7504
 3266TIP3    H231290   2.789   4.563   5.382  0.1870  0.0547 -1.0094
 3267TIP3   OH231291   2.777   1.011  12.871  0.0857 -0.0563 -0.0356
 3267TIP3    H131292   2.706   1.030  12.932 -0.2063 -0.8857 -0.1058
 3267TIP3    H231293   2.845   0.971  12.925  0.1810  0.0207 -0.1003
 3268TIP3   OH231294   2.553   3.914  17.004  0.2343 -0.4597  0.1458
 3268TIP3    H131295   2.596   3.989  16.964  0.1809 -0.6953 -0.3578
 3268TIP3    H231296   2.568   3.842  16.943 -2.7941 -0.0428 -1.1888
 3269TIP3   OH231297   1.702   0.054   3.715  0.1839  0.5350  0.0498
 3269TIP3    H131298   1.692   0.143   3.749  0.9258  1.7072 -2.6459
 3269TIP3    H231299   1.790   0.028   3.740  0.0723  0.6798  0.5897
 3270TIP3   OH231300   2.946   6.589   0.310  0.1510  0.1766  0.3772
 3270TIP3    H131301   2.909   6.501   0.307  0.3054  0.1407 -1.2589
 3270TIP3    H231302   3.009   6.587   0.382 -0.5221 -0.7759  0.9485
 3271TIP3   OH231303   1.194   0.292  13.988 -0.5246  0.3716 -0.2539
 3271TIP3    H131304   1.244   0.264  14.066  1.3691  0.4115 -1.4130
 3271TIP3    H231305   1.214   0.385  13.979 -3.4214  1.1828  1.1129
 3272TIP3   OH231306   3.031   1.775   4.717 -0.5296  0.6870 -0.8350
 3272TIP3    H131307   3.050   1.867   4.700  0.6653  0.3095 -1.5966
 3272TIP3    H231308   3.101   1.728   4.673 -1.0639 -0.5861 -0.3351
 3273TIP3   OH231309   3.009   0.989   2.275 -0.1294 -0.4702  0.5850
 3273TIP3    H131310   2.963   0.941   2.345 -0.8499  0.3562  0.6850
 3273TIP3    H231311   3.073   1.043   2.321 -2.3370  2.0140  0.8363
 3274TIP3   OH231312   3.457   1.924   4.027  0.0387  0.0270 -0.0465
 3274TIP3    H131313   3.444   1.965   4.113  0.0959  0.7381 -0.3761
 3274TIP3    H231314   3.456   1.830   4.045 -0.3024  0.1690  0.6840
 3275TIP3   OH231315   6.067   3.289   3.918  0.1341 -0.0666 -0.0441
 3275TIP3    H131316   6.090   3.352   3.986 -1.3354 -1.2161  1.5894
 3275TIP3    H231317   5.971   3.287   3.919  0.1207 -0.8563 -1.4586
 3276TIP3   OH231318   5.859   5.500  14.609  0.1658  0.6235  0.0733
 3276TIP3    H131319   5.887   5.545  14.530  0.5071  1.8200  0.8574
 3276TIP3    H231320   5.784   5.448  14.582  0.2545  1.0558 -1.0304
 3277TIP3   OH231321   6.515   4.252  17.273 -0.3124 -0.2270 -0.0267
 3277TIP3    H131322   6.506   4.324  17.211  3.0356 -0.8427 -1.3328
 3277TIP3    H231323   6.470   4.178  17.231 -3.3819  0.8960  1.1311
 3278TIP3   OH231324   4.401   6.572  15.078 -0.1274 -0.1874 -0.6104
 3278TIP3    H131325   4.348   6.591  15.155  0.0140 -1.5662 -0.1729
 3278TIP3    H231326   4.482   6.620  15.092 -1.4479  2.5102 -1.6006
 3279TIP3   OH231327   0.269   3.964  13.606 -0.0570  0.2417  0.5948
 3279TIP3    H131328   0.272   3.869  13.603  0.5147  0.2561  0.7270
 3279TIP3    H231329   0.183   3.984  13.645  0.4744 -0.2512  2.0678
 3280TIP3   OH231330   1.872   3.954   5.685 -0.4470 -0.1400 -0.1898
 3280TIP3    H131331   1.931   3.916   5.620 -0.0345 -1.8352  1.1341
 3280TIP3    H231332   1.886   4.048   5.677  3.8321 -0.5155  1.2916
 3281TIP3   OH231333   0.242   2.382   0.124 -0.4873  0.3230  0.3772
 3281TIP3    H131334   0.256   2.288   0.118  1.0177  0.5380  0.3382
 3281TIP3    H231335   0.251   2.401   0.218 -1.3719  0.3576  0.4661
 3282TIP3   OH231336   4.185   0.656   0.552  0.1769 -0.3643 -0.6146
 3282TIP3    H131337   4.093   0.635   0.571  0.0783  0.6174  0.0311
 3282TIP3    H231338   4.218   0.693   0.634  0.5461  1.3017 -1.4856
 3283TIP3   OH231339   3.985   0.914   0.692 -0.4384 -0.8271  0.6676
 3283TIP3    H131340   4.049   0.983   0.677 -0.2636 -0.9681  0.7563
 3283TIP3    H231341   3.922   0.924   0.621 -0.9228  0.0088  1.2078
 3284TIP3   OH231342   3.927   5.738  14.716 -0.7993  0.2905  0.3337
 3284TIP3    H131343   4.018   5.760  14.736 -0.8888  2.7221 -1.7159
 3284TIP3    H231344   3.933   5.672  14.647 -0.5990 -1.3267  1.8638
 3285TIP3   OH231345   3.228   0.375  11.295  0.1028 -0.5901 -0.5915
 3285TIP3    H131346   3.195   0.366  11.384 -0.0122  1.6885 -0.3816
 3285TIP3    H231347   3.319   0.344  11.300  0.5512  0.8632  0.6640
 3286TIP3   OH231348   4.299   4.058  11.330 -0.0162 -0.3428 -0.0922
 3286TIP3    H131349   4.351   4.135  11.311 -2.2732  0.9880 -1.1400
 3286TIP3    H231350   4.312   4.000  11.255  0.9977 -0.6218  0.2910
 3287TIP3   OH231351   6.784   1.480  14.413  0.3487  0.2789 -0.6864
 3287TIP3    H131352   6.725   1.428  14.468  0.3479  1.1854  0.1909
 3287TIP3    H231353   6.744   1.567  14.412  0.6095  0.3856 -1.7460
 3288TIP3   OH231354   1.154   2.177   2.705 -0.1091  0.4130  0.4186
 3288TIP3    H131355   1.201   2.105   2.747 -1.7430 -0.8568  0.1293
 3288TIP3    H231356   1.174   2.168   2.611 -2.5483 -1.4120  0.0309
 3289TIP3   OH231357   1.165   5.387  15.894 -0.8678 -0.0066 -0.4208
 3289TIP3    H131358   1.165   5.480  15.917  1.4545 -0.2253  0.5575
 3289TIP3    H231359   1.176   5.341  15.977  1.2112 -1.0285 -1.2248
 3290TIP3   OH231360   3.539   3.536   6.322  0.1745 -0.0237  0.5045
 3290TIP3    H131361   3.503   3.607   6.270 -0.5663 -1.2234 -0.6622
 3290TIP3    H231362   3.535   3.567   6.412  0.9523  1.8582 -0.1027
 3291TIP3   OH231363   2.842   4.962  14.699  0.0673  0.8970 -0.5437
 3291TIP3    H131364   2.936   4.962  14.716 -0.0360 -3.9614  0.7961
 3291TIP3    H231365   2.835   4.958  14.604  1.2112  1.8118 -0.6760
 3292TIP3   OH231366   1.102   5.584  14.879  0.4770  0.6244 -0.4708
 3292TIP3    H131367   1.167   5.613  14.815  0.6908  2.0359  0.3613
 3292TIP3    H231368   1.151   5.532  14.942  0.4851  0.2553 -0.7800
 3293TIP3   OH231369   6.657   5.436   1.722  0.0218 -0.1765 -0.2871
 3293TIP3    H131370   6.584   5.479   1.766  1.4612  0.8950  1.1360
 3293TIP3    H231371   6.684   5.499   1.655 -0.3094 -0.5392 -0.7631
 3294TIP3   OH231372   0.853   1.498  16.468 -0.4034  0.1082 -0.0081
 3294TIP3    H131373   0.839   1.592  16.457 -2.9541 -0.2771 -0.3147
 3294TIP3    H231374   0.849   1.484  16.563 -2.8937 -0.0791 -0.1203
 3295TIP3   OH231375   1.461   1.660   2.299  0.1877  0.7641  0.7550
 3295TIP3    H131376   1.536   1.603   2.282 -0.4656 -0.1733  0.9783
 3295TIP3    H231377   1.458   1.719   2.224 -0.1033 -0.5629 -0.2937
 3296TIP3   OH231378   0.419   3.409  13.145  0.1451 -0.3268  0.5821
 3296TIP3    H131379   0.456   3.391  13.232  1.0177  0.5651  0.4039
 3296TIP3    H231380   0.380   3.326  13.118  0.3546 -0.7627  1.5943
 3297TIP3   OH231381   1.330   0.190  14.203  0.6122  0.0741 -0.1118
 3297TIP3    H131382   1.311   0.138  14.280 -0.8269  1.1080  0.2634
 3297TIP3    H231383   1.375   0.130  14.144  0.6776 -1.0510  1.0609
 3298TIP3   OH231384   3.413   5.878   0.112  0.1657 -0.5806 -0.2879
 3298TIP3    H131385   3.406   5.822   0.035  0.7641 -0.6247 -0.3106
 3298TIP3    H231386   3.329   5.925   0.115 -1.0821 -2.8014  0.7647
 3299TIP3   OH231387   3.722   2.773  14.582  0.1884 -0.4849 -0.2152
 3299TIP3    H131388   3.703   2.712  14.654  0.6709 -0.8558 -0.3974
 3299TIP3    H231389   3.691   2.858  14.614 -0.8863 -0.9002 -0.1340
 3300TIP3   OH231390   5.978   5.268  10.503  0.2271 -0.1520 -0.7124
 3300TIP3    H131391   5.894   5.223  10.516 -0.1945  0.8069 -0.1136
 3300TIP3    H231392   6.039   5.221  10.560 -0.6236  1.1769  1.3568
 3301TIP3   OH231393   4.266   5.514   2.169 -0.1996  0.1850  0.3803
 3301TIP3    H131394   4.279   5.584   2.232 -0.0191  0.0949  0.4430
 3301TIP3    H231395   4.314   5.542   2.091 -2.4049  1.4407 -0.5823
 3302TIP3   OH231396   1.065   2.323   6.590 -0.0134  0.1269  0.6500
 3302TIP3    H131397   1.014   2.343   6.668  3.8471  1.5096  2.9425
 3302TIP3    H231398   1.078   2.408   6.548  0.0532 -0.2911 -0.1951
 3303TIP3   OH231399   3.784   1.516   0.507 -0.0393 -0.4839 -0.0318
 3303TIP3    H131400   3.816   1.601   0.539 -0.8550 -0.1952  0.0323
 3303TIP3    H231401   3.808   1.515   0.414 -2.1393  0.8605 -0.6189
 3304TIP3   OH231402   6.144   5.238   0.593  0.5021 -0.0573 -0.2953
 3304TIP3    H131403   6.112   5.149   0.579  1.0961 -0.5470  1.3246
 3304TIP3    H231404   6.206   5.253   0.522  1.9616 -1.7179  0.5970
 3305TIP3   OH231405   2.696   1.500  16.117 -0.7399 -0.2703  0.4136
 3305TIP3    H131406   2.717   1.409  16.138 -0.1096 -0.3689 -0.6593
 3305TIP3    H231407   2.774   1.549  16.142 -0.2829 -0.2890 -0.9553
 3306TIP3   OH231408   1.530   2.992  16.151  0.0194 -0.4753  0.2942
 3306TIP3    H131409   1.602   2.936  16.120 -1.3369 -2.2879  0.3793
 3306TIP3    H231410   1.454   2.934  16.153 -0.9268  0.8104  2.5434
 3307TIP3   OH231411   0.782   5.517   2.495 -0.2929 -0.2134  1.0792
 3307TIP3    H131412   0.859   5.506   2.552  1.6015  1.2544 -1.1200
 3307TIP3    H231413   0.755   5.427   2.475  0.8270 -0.7604  1.9249
 3308TIP3   OH231414   5.262   4.986  12.957  0.3106 -0.1051 -0.1194
 3308TIP3    H131415   5.208   5.049  13.005  0.2180  0.4953 -1.0104
 3308TIP3    H231416   5.278   5.027  12.872 -3.0765 -2.9552 -2.2415
 3309TIP3   OH231417   5.123   0.144  13.827  0.0887  0.6923  0.1366
 3309TIP3    H131418   5.215   0.138  13.803 -0.0436 -1.8650  0.1431
 3309TIP3    H231419   5.116   0.228  13.874  2.6494  0.3641  1.1962
 3310TIP3   OH231420   2.076   4.705  15.877  0.1044  0.2884  0.3222
 3310TIP3    H131421   2.004   4.739  15.930 -0.7416  1.1802 -1.3667
 3310TIP3    H231422   2.129   4.781  15.856 -0.9379  0.3873 -2.1631
 3311TIP3   OH231423   5.704   3.897   1.245  0.1847 -0.4024  0.0555
 3311TIP3    H131424   5.643   3.905   1.318 -1.7350 -0.3847 -1.4885
 3311TIP3    H231425   5.745   3.983   1.238  0.3086 -0.3771  1.0390
 3312TIP3   OH231426   0.386   0.855  16.404  0.1710 -0.3613 -0.6625
 3312TIP3    H131427   0.325   0.876  16.475 -0.2065 -1.3485 -0.6817
 3312TIP3    H231428   0.440   0.784  16.439  2.1725  1.3750 -0.1871
 3313TIP3   OH231429   6.365   1.835   0.737  0.0146  0.1400 -0.4824
 3313TIP3    H131430   6.300   1.766   0.746 -0.8628  0.9317 -0.6813
 3313TIP3    H231431   6.395   1.829   0.646 -1.0605  0.9027 -0.8878
 3314TIP3   OH231432   6.677   6.531  16.083 -0.3608  0.3330 -0.9309
 3314TIP3    H131433   6.657   6.439  16.066  0.4874 -0.0122 -0.1090
 3314TIP3    H231434   6.738   6.529  16.157 -0.5767  1.5727 -0.7116
 3315TIP3   OH231435   1.555   5.325  12.870  0.0699 -0.0669  0.7747
 3315TIP3    H131436   1.520   5.279  12.794 -1.3139 -0.6117  1.7325
 3315TIP3    H231437   1.558   5.259  12.939  1.7642  0.3080  1.0848
 3316TIP3   OH231438   3.734   3.973  14.832 -0.2484  0.0232 -0.1534
 3316TIP3    H131439   3.745   3.917  14.909 -1.7278  0.5693  0.4671
 3316TIP3    H231440   3.755   4.061  14.864 -0.5488  0.2039 -0.4529
 3317TIP3   OH231441   2.935   2.842   4.287 -0.4067 -0.1428 -0.4017
 3317TIP3    H131442   2.857   2.882   4.247 -1.1299 -0.9690  0.1890
 3317TIP3    H231443   3.005   2.907   4.271 -0.9060  0.0180 -2.0905
 3318TIP3   OH231444   2.008   6.449  15.688  0.3780  0.2415 -0.6386
 3318TIP3    H131445   2.030   6.370  15.737  1.0106  1.8614  1.7628
 3318TIP3    H231446   2.086   6.468  15.636  0.5191 -0.2391 -0.6011
 3319TIP3   OH231447   4.408   4.238  10.411 -0.7914  0.3566  0.4004
 3319TIP3    H131448   4.371   4.324  10.393  1.7268  1.8470  2.0065
 3319TIP3    H231449   4.436   4.206  10.326  1.1572  2.5746  0.1527
 3320TIP3   OH231450   1.949   6.757   1.716 -0.3280 -0.5097  0.0338
 3320TIP3    H131451   2.003   6.807   1.776  0.4093  1.4877 -2.1919
 3320TIP3    H231452   1.865   6.804   1.715 -1.0750 -1.7752  1.0837
 3321TIP3   OH231453   2.416   3.855   0.472  0.3013 -0.3762  0.1015
 3321TIP3    H131454   2.411   3.768   0.511 -0.1330 -0.9007 -1.1121
 3321TIP3    H231455   2.363   3.849   0.392  0.7880  0.8178 -0.3235
 3322TIP3   OH231456   0.522   4.030   5.814  0.2385  0.1432 -0.6448
 3322TIP3    H131457   0.590   3.981   5.767 -1.2344 -0.2271 -2.4281
 3322TIP3    H231458   0.511   4.111   5.764 -1.6575 -0.4561 -1.2395
 3323TIP3   OH231459   3.375   1.481  16.829  0.4976 -0.0871 -0.2542
 3323TIP3    H131460   3.454   1.534  16.819 -0.9229  1.6899 -2.5915
 3323TIP3    H231461   3.371   1.428  16.749  0.2039 -1.4242  0.6239
 3324TIP3   OH231462   6.191   4.504  16.132 -0.0972 -0.4418 -0.2631
 3324TIP3    H131463   6.180   4.469  16.220 -2.1803 -0.1807 -0.3972
 3324TIP3    H231464   6.178   4.599  16.141  2.6305 -0.0150 -0.3784
 3325TIP3   OH231465   3.053   3.434  11.102 -0.4259  0.4839  0.1766
 3325TIP3    H131466   3.039   3.347  11.140 -2.4412 -0.3611 -2.4173
 3325TIP3    H231467   2.987   3.489  11.145  1.2378  0.9275  2.2620
 3326TIP3   OH231468   2.835   3.030   1.578  0.0475  0.1422  0.0606
 3326TIP3    H131469   2.883   2.963   1.625 -0.1449 -0.9108 -1.2181
 3326TIP3    H231470   2.745   3.022   1.609  0.0267 -0.1879 -0.0859
 3327TIP3   OH231471   5.748   5.358   0.713 -0.1294 -0.2091 -0.2456
 3327TIP3    H131472   5.774   5.427   0.652  0.4098  0.1917  0.4347
 3327TIP3    H231473   5.666   5.324   0.676  0.7245 -0.6846 -1.7579
 3328TIP3   OH231474   5.662   3.920   4.570 -0.0858  0.7175  0.1477
 3328TIP3    H131475   5.638   4.007   4.601  0.9035  1.2597 -0.5555
 3328TIP3    H231476   5.737   3.935   4.512 -1.2609 -0.3767 -1.6893
 3329TIP3   OH231477   2.817   1.682  15.406 -0.3757  0.5630 -0.0083
 3329TIP3    H131478   2.726   1.696  15.431 -0.3209  1.1129 -0.1062
 3329TIP3    H231479   2.862   1.659  15.487 -0.5371  0.6291  0.0997
 3330TIP3   OH231480   1.901   1.096  11.494 -0.2261 -0.9818 -0.0193
 3330TIP3    H131481   1.843   1.135  11.559  1.0774 -0.1344  0.6628
 3330TIP3    H231482   1.900   1.002  11.515  0.8988 -0.6110  1.8388
 3331TIP3   OH231483   6.735   0.410  11.656  0.3189 -0.2681  0.5733
 3331TIP3    H131484   6.668   0.478  11.648  0.1857 -0.5176 -0.4807
 3331TIP3    H231485   6.813   0.457  11.688 -0.3895 -0.0138  1.9926
 3332TIP3   OH231486   4.802   1.058   3.490 -0.4525 -0.2688  0.4254
 3332TIP3    H131487   4.854   1.094   3.419  0.8263 -0.5432  1.2065
 3332TIP3    H231488   4.771   1.134   3.539 -0.8595 -0.1042 -0.0873
 3333TIP3   OH231489   5.132   1.509  14.337 -0.1881 -0.1655 -0.1947
 3333TIP3    H131490   5.158   1.598  14.315 -0.4562 -0.0301  0.0389
 3333TIP3    H231491   5.203   1.454  14.303  0.5916  0.2261  0.7735
 3334TIP3   OH231492   1.346   1.472   2.556  0.1740  0.5865  0.5661
 3334TIP3    H131493   1.375   1.546   2.503  1.2257  1.1399  1.8960
 3334TIP3    H231494   1.424   1.419   2.568 -0.6086 -0.8585 -0.5207
 3335TIP3   OH231495   5.664   5.441   2.783  0.0701  0.1280 -0.0405
 3335TIP3    H131496   5.613   5.450   2.703  0.1007 -0.1423 -0.0899
 3335TIP3    H231497   5.736   5.504   2.773 -1.0052  1.5101  0.6225
 3336TIP3   OH231498   1.889   6.376   0.988  0.3205 -0.5722  0.1937
 3336TIP3    H131499   1.851   6.314   0.925 -0.7896 -1.1226  1.3801
 3336TIP3    H231500   1.913   6.323   1.063  1.0892  0.1728  0.4871
 3337TIP3   OH231501   5.346   5.541   1.776 -0.2689 -0.0038  0.0001
 3337TIP3    H131502   5.368   5.447   1.779  1.3874  0.3540 -0.2809
 3337TIP3    H231503   5.304   5.553   1.691  0.7087 -0.2548 -0.5298
 3338TIP3   OH231504   6.596   5.271  15.446 -0.0384  0.1384  0.4966
 3338TIP3    H131505   6.593   5.206  15.376 -0.8156  2.6050 -1.8871
 3338TIP3    H231506   6.505   5.280  15.474 -0.0863  0.8453  0.1386
 3339TIP3   OH231507   2.988   0.972  15.204  0.0375  0.2226  0.2304
 3339TIP3    H131508   2.915   0.956  15.143 -0.4201 -1.2255  1.1442
 3339TIP3    H231509   2.953   1.036  15.266 -0.4846 -0.5257  0.7110
 3340TIP3   OH231510   6.734   1.389  16.871  0.1612 -0.3713  0.3597
 3340TIP3    H131511   6.733   1.403  16.776 -0.9448 -1.4960  0.2000
 3340TIP3    H231512   6.712   1.474  16.908  0.5212  0.0573 -0.3822
 3341TIP3   OH231513   1.154   3.544   5.276  0.2377 -0.0112 -0.1369
 3341TIP3    H131514   1.168   3.476   5.210 -0.4409  0.2980 -0.6010
 3341TIP3    H231515   1.063   3.571   5.265 -0.2540 -0.7891  1.7139
 3342TIP3   OH231516   0.740   5.850  13.925  0.4854  0.1772 -0.2544
 3342TIP3    H131517   0.669   5.830  13.985  1.7950  0.6868  1.5008
 3342TIP3    H231518   0.702   5.915  13.865 -1.1259 -1.0695 -0.6291
 3343TIP3   OH231519   2.356   2.079   0.652 -0.2322 -0.1243  0.2289
 3343TIP3    H131520   2.368   2.094   0.558  2.3631 -0.1328  0.5393
 3343TIP3    H231521   2.421   2.013   0.675  1.5050  2.3512  2.7061
 3344TIP3   OH231522   5.557   3.445   0.523  0.0724 -1.6286 -0.5823
 3344TIP3    H131523   5.644   3.428   0.488  0.7027  0.4425 -0.0731
 3344TIP3    H231524   5.560   3.536   0.553 -1.9936 -1.8002  0.2409
 3345TIP3   OH231525   6.044   1.265   0.562  0.1139 -0.7613  0.2780
 3345TIP3    H131526   6.071   1.345   0.606  0.2940 -1.2632  1.0824
 3345TIP3    H231527   6.040   1.289   0.469  1.4669 -0.1843  0.3606
 3346TIP3   OH231528   2.580   2.926   1.039  0.3483  0.0969  0.6034
 3346TIP3    H131529   2.557   2.975   1.119  0.9388 -0.4172  1.0980
 3346TIP3    H231530   2.504   2.870   1.022  1.0830 -1.4221  2.0959
 3347TIP3   OH231531   1.444   2.898  11.156  0.6335  0.0106 -0.3785
 3347TIP3    H131532   1.503   2.973  11.166 -0.4688  0.8796 -0.2520
 3347TIP3    H231533   1.493   2.824  11.191  0.9533  1.0421  1.4289
 3348TIP3   OH231534   5.136   0.197   5.215 -0.5268  0.3639  0.2768
 3348TIP3    H131535   5.124   0.106   5.189 -0.2467  0.1267  0.9671
 3348TIP3    H231536   5.220   0.198   5.261  0.2461  1.2764 -1.1304
 3349TIP3   OH231537   3.480   2.057  15.189 -0.1474 -0.1688 -0.1058
 3349TIP3    H131538   3.567   2.042  15.227  0.5808  1.1414 -1.1689
 3349TIP3    H231539   3.485   2.015  15.103  0.9335  3.4100 -1.9160
 3350TIP3   OH231540   3.213   0.724  11.929 -0.5871  0.1234 -0.0402
 3350TIP3    H131541   3.218   0.755  12.019 -1.2142  0.6525 -0.1839
 3350TIP3    H231542   3.157   0.646  11.933 -1.5968  0.8428 -0.1517
 3351TIP3   OH231543   0.008   6.371  13.454 -0.9083  0.1821  0.7903
 3351TIP3    H131544   0.013   6.317  13.533  1.1166 -0.3340  0.3411
 3351TIP3    H231545  -0.032   6.314  13.388  1.0126 -0.7407  0.3813
 3352TIP3   OH231546   3.707   6.660  10.834  0.1605 -0.3255 -0.3914
 3352TIP3    H131547   3.774   6.632  10.896 -1.9418  1.0590  2.6029
 3352TIP3    H231548   3.636   6.596  10.844 -1.1475  1.1922  0.3692
 3353TIP3   OH231549   6.787   1.918   4.891  0.3475  0.1082  0.2543
 3353TIP3    H131550   6.798   1.852   4.960  1.2663 -0.2297 -0.2051
 3353TIP3    H231551   6.857   1.899   4.828 -0.4234  0.4756 -0.7274
 3354TIP3   OH231552   6.494   1.106   0.697  0.7254  0.1109  0.1215
 3354TIP3    H131553   6.492   1.114   0.601  1.9774  2.4137  0.2579
 3354TIP3    H231554   6.565   1.044   0.714  1.1370  0.4304 -0.4080
 3355TIP3   OH231555   1.606   0.519  15.207  0.6203 -0.0523 -0.0364
 3355TIP3    H131556   1.579   0.576  15.279 -1.1629  0.6360 -1.2265
 3355TIP3    H231557   1.689   0.557  15.178  0.1315  1.1387  0.0703
 3356TIP3   OH231558   0.254   1.215   2.126 -0.3395  0.5497 -0.4214
 3356TIP3    H131559   0.285   1.197   2.038  1.4788 -1.1075  0.5366
 3356TIP3    H231560   0.317   1.172   2.184 -3.1273 -0.9122  1.6387
 3357TIP3   OH231561   5.696   1.812   1.593 -0.4436  0.3232 -0.1387
 3357TIP3    H131562   5.617   1.829   1.540 -0.1362 -0.0308 -0.7233
 3357TIP3    H231563   5.664   1.810   1.683 -0.8963  1.4629 -0.2582
 3358TIP3   OH231564   1.562   3.799   0.090  0.6275  0.5296 -0.2597
 3358TIP3    H131565   1.623   3.859   0.133  0.3769  1.3177 -0.9874
 3358TIP3    H231566   1.560   3.722   0.147  2.9008  0.1696 -0.6349
 3359TIP3   OH231567   5.777   4.460  13.847  0.5850  0.0446  0.0422
 3359TIP3    H131568   5.830   4.530  13.885  0.4197  0.2385 -0.0816
 3359TIP3    H231569   5.722   4.429  13.919 -0.1936  0.8540 -0.2055
 3360TIP3   OH231570   5.190   2.303   4.366 -0.1389 -0.0224 -0.4304
 3360TIP3    H131571   5.101   2.304   4.400 -0.0714 -0.7258 -0.2329
 3360TIP3    H231572   5.237   2.368   4.418 -0.1089 -0.8839  0.6306
 3361TIP3   OH231573   5.991   0.823   6.931 -0.6090  0.3939 -0.4619
 3361TIP3    H131574   5.958   0.734   6.924  0.4398  0.0373 -1.0582
 3361TIP3    H231575   6.085   0.815   6.913  0.1892  1.0954  3.1007
 3362TIP3   OH231576   6.741   5.109  12.874  0.1377  0.2967 -0.1809
 3362TIP3    H131577   6.732   5.051  12.799  1.8841 -0.6177  0.2801
 3362TIP3    H231578   6.818   5.162  12.854  0.1479  0.5869  0.5995
 3363TIP3   OH231579   3.799   0.058  14.748 -0.3885  0.0774 -0.4035
 3363TIP3    H131580   3.851   0.096  14.819 -0.6659 -0.5367  0.1383
 3363TIP3    H231581   3.721   0.112  14.744 -1.2777 -1.0706  1.0863
 3364TIP3   OH231582   4.470   3.441   5.213  0.5082  0.6249 -0.1538
 3364TIP3    H131583   4.487   3.347   5.216 -0.5798  0.3939 -0.8875
 3364TIP3    H231584   4.375   3.449   5.223  0.5826  1.6490 -0.1433
 3365TIP3   OH231585   0.920   3.683  12.648 -0.6023  0.1451 -0.5980
 3365TIP3    H131586   0.828   3.685  12.673 -1.1046 -0.0094 -2.3591
 3365TIP3    H231587   0.953   3.769  12.671 -0.5557 -0.5924  2.2734
 3366TIP3   OH231588   0.809   2.168   3.578 -0.2972  0.2921 -0.0228
 3366TIP3    H131589   0.895   2.184   3.616 -1.0964  0.7835  1.6369
 3366TIP3    H231590   0.761   2.123   3.647 -1.0602 -0.8807 -1.2984
 3367TIP3   OH231591   3.682   2.899   4.371  0.6323  0.4226 -0.2724
 3367TIP3    H131592   3.716   2.876   4.457  0.6393 -1.2333 -0.7105
 3367TIP3    H231593   3.588   2.881   4.376  0.6351  0.3042 -0.6193
 3368TIP3   OH231594   5.709   0.877   4.114 -0.0986  0.3093  0.3506
 3368TIP3    H131595   5.743   0.796   4.153  0.2210 -1.1539 -2.8074
 3368TIP3    H231596   5.785   0.935   4.109 -0.0932  0.4325  1.6307
 3369TIP3   OH231597   4.074   5.459  16.656  0.7833 -0.2440  0.8062
 3369TIP3    H131598   4.130   5.407  16.713  2.2846 -0.1102 -0.5031
 3369TIP3    H231599   4.122   5.540  16.642  1.2571 -0.9243 -1.9691
 3370TIP3   OH231600   6.358   4.785  16.213 -0.1264  0.1771 -0.0913
 3370TIP3    H131601   6.451   4.800  16.198  0.1644 -1.4972 -0.1063
 3370TIP3    H231602   6.346   4.801  16.307  0.2034  0.2957 -0.0697
 3371TIP3   OH231603   2.249   4.700   5.202  0.4560  0.3556 -0.0882
 3371TIP3    H131604   2.275   4.774   5.256  0.0416 -0.1533  0.8131
 3371TIP3    H231605   2.316   4.634   5.218 -0.2914 -0.2201  0.7000
 3372TIP3   OH231606   3.186   1.287  12.183  0.7387 -0.6326  0.0990
 3372TIP3    H131607   3.170   1.372  12.143  2.5850  0.2153  1.1001
 3372TIP3    H231608   3.203   1.229  12.109  0.5807  0.1173 -0.5296
 3373TIP3   OH231609   3.823   2.146  14.292  0.4965  0.3963  1.0633
 3373TIP3    H131610   3.857   2.153  14.203  1.8080 -0.7363  1.4368
 3373TIP3    H231611   3.763   2.220  14.302  0.6412  0.7528 -0.6193
 3374TIP3   OH231612   1.625   0.284   5.637  0.2122  0.2670  0.0086
 3374TIP3    H131613   1.685   0.229   5.687  1.4018 -1.2428 -2.9291
 3374TIP3    H231614   1.671   0.367   5.628  0.1636  0.4111  1.0486
 3375TIP3   OH231615   3.254   0.098   2.867 -0.3707 -0.2162 -0.0788
 3375TIP3    H131616   3.163   0.108   2.839 -0.5354 -0.1251  0.4794
 3375TIP3    H231617   3.305   0.106   2.787 -0.7404  1.5378 -0.1563
 3376TIP3   OH231618   0.079   3.706  15.853 -0.0974  0.2196 -0.1878
 3376TIP3    H131619   0.058   3.780  15.910 -1.1922 -0.0510 -0.2248
 3376TIP3    H231620   0.087   3.631  15.913 -0.1412  0.1492 -0.2709
 3377TIP3   OH231621   1.636   4.352   2.653  0.5519 -0.1006  0.5302
 3377TIP3    H131622   1.600   4.358   2.741  0.0416  1.2977  0.2395
 3377TIP3    H231623   1.564   4.377   2.595  1.0657 -0.3890 -0.2479
 3378TIP3   OH231624   4.937   4.115  14.754 -0.1184 -0.2936 -0.1150
 3378TIP3    H131625   4.935   4.040  14.814 -1.5834  0.6049  0.9733
 3378TIP3    H231626   4.864   4.099  14.694 -1.1216  0.7848  0.7913
 3379TIP3   OH231627   4.097   6.679  15.032  0.6092  0.1588 -0.0129
 3379TIP3    H131628   4.034   6.632  15.088  0.0149  0.9112 -0.0396
 3379TIP3    H231629   4.126   6.614  14.969  0.0824 -0.2798  0.1900
 3380TIP3   OH231630   2.550   1.122  14.346 -0.4353  0.0233 -0.3358
 3380TIP3    H131631   2.632   1.075  14.357  0.1834  0.6241 -2.1045
 3380TIP3    H231632   2.484   1.066  14.387  0.7502 -0.8182  0.4407
 3381TIP3   OH231633   5.455   3.353   1.504  0.0835  0.1475 -0.1472
 3381TIP3    H131634   5.473   3.259   1.502 -0.7560 -0.0352  0.6688
 3381TIP3    H231635   5.406   3.370   1.423 -1.6596 -0.5240  0.7383
 3382TIP3   OH231636   1.881   4.779   4.544 -0.3420 -0.4761 -0.0068
 3382TIP3    H131637   1.934   4.782   4.624 -0.1405 -0.2321 -0.1461
 3382TIP3    H231638   1.836   4.863   4.541 -0.7808 -0.7033  0.1374
 3383TIP3   OH231639   3.011   0.919   5.394 -0.3807 -0.3127 -0.0091
 3383TIP3    H131640   2.983   0.846   5.340 -0.4162 -0.8236  0.6985
 3383TIP3    H231641   3.077   0.964   5.341  0.7061 -1.6971  0.1452
 3384TIP3   OH231642   4.981   6.165   0.754  0.0713 -0.9191  0.4524
 3384TIP3    H131643   5.053   6.107   0.778  1.8328 -0.3193 -3.0501
 3384TIP3    H231644   5.010   6.208   0.674 -3.8391 -0.0243 -0.6119
 3385TIP3   OH231645   0.155   1.089   3.203  0.2395  0.3231  0.1411
 3385TIP3    H131646   0.229   1.035   3.231  0.7285  1.0284  0.2081
 3385TIP3    H231647   0.078   1.043   3.236  0.5848 -0.8797 -0.6681
 3386TIP3   OH231648   1.456   1.262  11.090  0.2123 -0.1034  0.1850
 3386TIP3    H131649   1.515   1.297  11.157  0.3442  2.0874 -1.0064
 3386TIP3    H231650   1.474   1.168  11.088  0.6429 -0.1140  2.7670
 3387TIP3   OH231651   2.491   4.907   6.256  0.2052 -1.2535  0.2640
 3387TIP3    H131652   2.414   4.851   6.265 -0.4456 -0.3817  0.1861
 3387TIP3    H231653   2.494   4.957   6.338 -0.0917 -0.3193 -0.2879
 3388TIP3   OH231654   4.876   5.846   0.485  0.2032 -0.2141 -0.0731
 3388TIP3    H131655   4.872   5.858   0.580 -0.9423  0.9220 -0.2405
 3388TIP3    H231656   4.919   5.762   0.473  2.6748  0.7812  1.3861
 3389TIP3   OH231657   1.137   4.914  11.198 -0.1416 -0.1765  0.3046
 3389TIP3    H131658   1.167   4.874  11.116  1.0706 -1.3474  1.3047
 3389TIP3    H231659   1.149   5.008  11.183 -1.5772 -0.2492 -1.4958
 3390TIP3   OH231660   1.476   5.196   2.783  1.0810 -0.3311 -0.2319
 3390TIP3    H131661   1.448   5.178   2.693  1.3271 -0.8389 -0.2045
 3390TIP3    H231662   1.510   5.113   2.815 -0.5382 -0.5756  0.9018
 3391TIP3   OH231663   3.135   5.049   2.925 -0.2905  0.1813  0.1422
 3391TIP3    H131664   3.186   4.967   2.926 -2.3194 -1.1399  3.1815
 3391TIP3    H231665   3.136   5.076   2.833  2.0275 -2.2190 -0.6263
 3392TIP3   OH231666   1.027   1.867  16.882  0.5328 -0.2330 -0.2649
 3392TIP3    H131667   1.083   1.829  16.815 -1.6364 -0.4271 -2.0573
 3392TIP3    H231668   1.009   1.956  16.851  0.5750  0.1343  0.7422
 3393TIP3   OH231669   2.985   4.586   6.281 -0.0435 -0.5669 -0.1033
 3393TIP3    H131670   2.954   4.619   6.366  1.1934 -1.5263  0.7421
 3393TIP3    H231671   3.033   4.659   6.244 -1.7712  0.3350 -0.6267
 3394TIP3   OH231672   0.588   3.050  16.336 -0.5979 -0.4283 -0.4368
 3394TIP3    H131673   0.610   3.138  16.365  2.4379 -1.8316  1.8215
 3394TIP3    H231674   0.671   3.003  16.335 -2.0330 -3.1098 -2.3083
 3395TIP3   OH231675   1.441   1.283   1.132  0.4216 -0.2061 -0.3208
 3395TIP3    H131676   1.367   1.307   1.187  1.5813 -0.1187  1.2316
 3395TIP3    H231677   1.516   1.326   1.173  1.0379  1.4085 -3.0653
 3396TIP3   OH231678   0.832   1.936  10.858 -0.5587 -0.2032  0.0768
 3396TIP3    H131679   0.904   1.914  10.799  0.1942  1.6845  0.2669
 3396TIP3    H231680   0.768   1.980  10.803  0.5880  2.4694  0.8138
 3397TIP3   OH231681   5.840   4.161   1.176 -0.2934  0.1366  0.3065
 3397TIP3    H131682   5.905   4.231   1.178 -2.0205  1.7407  1.4482
 3397TIP3    H231683   5.764   4.199   1.133 -1.0611 -1.2033  0.4517
 3398TIP3   OH231684   5.145   1.488   4.851 -0.5024 -0.3658  0.2004
 3398TIP3    H131685   5.058   1.459   4.880 -1.0421  1.5904  0.5707
 3398TIP3    H231686   5.202   1.473   4.927 -1.0352  0.6764  0.8210
 3399TIP3   OH231687   5.439   3.876  11.744 -0.3887  0.4158 -0.2687
 3399TIP3    H131688   5.443   3.782  11.724  0.9770  0.8158 -1.9195
 3399TIP3    H231689   5.511   3.890  11.805 -2.5206 -0.1592  2.5360
 3400TIP3   OH231690   4.439   0.685  16.530 -0.7986  0.0655 -0.0581
 3400TIP3    H131691   4.426   0.720  16.442  0.9085  0.4585 -0.1617
 3400TIP3    H231692   4.507   0.619  16.520  1.5413  2.1646  1.4433
 3401TIP3   OH231693   1.064   0.248   1.033  0.2551 -0.6137 -0.4895
 3401TIP3    H131694   1.073   0.153   1.020 -1.1630 -0.5241 -2.3085
 3401TIP3    H231695   1.018   0.279   0.955 -1.2922  1.2497  1.1040
 3402TIP3   OH231696   1.462   2.886  13.113 -0.0767 -0.7698 -0.3658
 3402TIP3    H131697   1.437   2.793  13.119  0.1301 -0.6997  2.1109
 3402TIP3    H231698   1.383   2.933  13.143  1.3596 -0.3807  3.1033
 3403TIP3   OH231699   1.972   3.165   1.996  0.2995 -0.1951  0.0542
 3403TIP3    H131700   2.022   3.083   1.996 -1.2010 -1.1970 -3.0635
 3403TIP3    H231701   1.902   3.150   1.933 -1.4640  2.6630  1.2536
 3404TIP3   OH231702   1.532   2.150   4.666 -0.1177 -0.1203 -0.5166
 3404TIP3    H131703   1.444   2.176   4.694  0.0054 -0.1274 -0.1235
 3404TIP3    H231704   1.521   2.120   4.576 -0.4257  0.4063 -0.6606
 3405TIP3   OH231705   5.782   6.446   0.395 -0.0269  0.4367  0.4350
 3405TIP3    H131706   5.797   6.533   0.431  2.6099 -0.2176  1.0669
 3405TIP3    H231707   5.855   6.433   0.335  1.1403 -2.3418  2.3506
 3406TIP3   OH231708   5.785   4.558  16.005  0.1784  0.2791  0.2863
 3406TIP3    H131709   5.870   4.546  15.962 -0.0403 -1.0035  0.1930
 3406TIP3    H231710   5.727   4.590  15.936  0.5477  0.9923  0.3114
 3407TIP3   OH231711   5.432   5.375   6.328 -0.5168  0.4111  0.2011
 3407TIP3    H131712   5.508   5.430   6.311 -0.3176 -0.7964 -3.2148
 3407TIP3    H231713   5.362   5.415   6.275 -1.0070 -1.1205 -0.3495
 3408TIP3   OH231714   1.433   1.884  15.233  0.3689  0.0699 -0.4544
 3408TIP3    H131715   1.462   1.969  15.267  0.4894  0.5459 -1.7202
 3408TIP3    H231716   1.346   1.900  15.197  0.8758 -0.0545 -1.7726
 3409TIP3   OH231717   3.592   1.965   3.784  0.1739  0.3156 -0.3666
 3409TIP3    H131718   3.540   1.943   3.707  0.0834 -0.5184 -0.0787
 3409TIP3    H231719   3.528   1.976   3.854  0.2973  0.4179 -0.2688
 3410TIP3   OH231720   5.417   3.205   0.547  0.1969 -0.0335  0.2834
 3410TIP3    H131721   5.459   3.144   0.487  0.4973  0.2674  0.1839
 3410TIP3    H231722   5.463   3.288   0.533 -1.2930  0.6431 -0.7708
 3411TIP3   OH231723   5.684   0.653   5.136 -0.1663 -0.5467 -0.0913
 3411TIP3    H131724   5.681   0.679   5.228 -1.0595 -1.1238  0.0547
 3411TIP3    H231725   5.594   0.667   5.105 -0.1293 -1.3633 -0.5821
 3412TIP3   OH231726   3.855   1.489   2.006 -0.6116 -0.3106 -0.3497
 3412TIP3    H131727   3.824   1.434   1.934 -0.6299 -0.2672 -0.3750
 3412TIP3    H231728   3.870   1.575   1.966 -1.4972 -0.0371 -0.1133
 3413TIP3   OH231729   5.297   6.263   1.713 -0.0812  0.2304  0.3846
 3413TIP3    H131730   5.321   6.270   1.621 -2.2930  2.0413 -0.1075
 3413TIP3    H231731   5.380   6.266   1.760  0.9431  1.6074 -1.4435
 3414TIP3   OH231732   6.311   2.286   3.886  0.3330  0.2364 -0.2687
 3414TIP3    H131733   6.325   2.299   3.980  4.2374  0.4094 -0.8003
 3414TIP3    H231734   6.228   2.239   3.881 -0.7883  1.7174  3.1650
 3415TIP3   OH231735   0.738   1.575   1.248 -0.5528 -0.0111 -0.2265
 3415TIP3    H131736   0.690   1.643   1.295 -2.3198 -2.2071  1.2537
 3415TIP3    H231737   0.810   1.622   1.206 -1.0333  2.5939  1.6913
 3416TIP3   OH231738   3.520   1.373  12.111 -0.1190  0.0757  0.7626
 3416TIP3    H131739   3.530   1.305  12.044  1.7627 -0.3451  1.4159
 3416TIP3    H231740   3.446   1.344  12.164 -0.5700 -0.4426 -0.1340
 3417TIP3   OH231741   5.752   4.669   1.096 -0.7157 -0.7272 -0.1600
 3417TIP3    H131742   5.702   4.592   1.123 -0.8471 -0.5408  0.1384
 3417TIP3    H231743   5.759   4.722   1.176  0.6803 -1.1362  0.0027
 3418TIP3   OH231744   0.008   3.209  12.206  0.4118  0.7991 -0.0110
 3418TIP3    H131745   0.057   3.127  12.205  2.3102  1.8951  0.9525
 3418TIP3    H231746   0.074   3.277  12.199 -1.0789  2.2839  0.0674
 3419TIP3   OH231747   5.918   0.651   1.288 -0.1868  0.0985 -0.3670
 3419TIP3    H131748   6.001   0.606   1.305 -2.0818 -3.3378  0.2031
 3419TIP3    H231749   5.908   0.712   1.361  1.3962 -0.1377  0.0665
 3420TIP3   OH231750   3.071   2.254  15.529 -0.0010  0.1272 -0.6642
 3420TIP3    H131751   3.095   2.251  15.436  0.0663  0.5694 -0.6580
 3420TIP3    H231752   3.150   2.285  15.573 -0.2106  0.4441 -0.5150
 3421TIP3   OH231753   0.781   4.887   5.232 -0.2767 -0.4454 -0.0527
 3421TIP3    H131754   0.871   4.917   5.218 -0.9759  1.0993 -1.4577
 3421TIP3    H231755   0.770   4.815   5.169  0.1806 -1.0627  0.5747
 3422TIP3   OH231756   1.711   3.126  16.317 -0.4388 -0.0171  0.0285
 3422TIP3    H131757   1.678   3.214  16.335  1.1310  0.9521 -1.7568
 3422TIP3    H231758   1.635   3.080  16.282 -1.0471  0.8796  0.1449
 3423TIP3   OH231759   1.050   3.699  16.783 -0.5416  0.3548 -0.0202
 3423TIP3    H131760   1.119   3.762  16.806 -0.1938 -0.3916  1.0097
 3423TIP3    H231761   0.989   3.702  16.857 -1.5862  0.9422 -0.8767
 3424TIP3   OH231762   4.441   0.589  15.643 -0.3983  0.5337  0.4706
 3424TIP3    H131763   4.364   0.632  15.607  0.6272  2.5889  0.6397
 3424TIP3    H231764   4.515   0.627  15.595  0.7518  1.0215  2.5377
 3425TIP3   OH231765   5.380   4.910  13.498 -0.9645 -0.0020  0.2106
 3425TIP3    H131766   5.316   4.960  13.549  0.4454 -0.0908  2.1232
 3425TIP3    H231767   5.438   4.977  13.462 -1.7893  0.0390 -1.0783
 3426TIP3   OH231768   3.730   3.364   1.465  0.0836  0.0964 -0.3430
 3426TIP3    H131769   3.751   3.387   1.375 -0.8819  0.9604 -0.3581
 3426TIP3    H231770   3.785   3.288   1.484  0.9840  0.4884 -1.3413
 3427TIP3   OH231771   3.005   1.192   3.422 -1.1210  0.7803 -0.4674
 3427TIP3    H131772   2.949   1.270   3.420 -1.2869  0.8084  3.2174
 3427TIP3    H231773   3.094   1.227   3.429 -1.2497  0.6601  1.9789
 3428TIP3   OH231774   3.684   6.045  15.665  0.4220  0.0367 -0.0595
 3428TIP3    H131775   3.664   6.125  15.616 -0.6152 -0.9204 -1.2078
 3428TIP3    H231776   3.724   5.987  15.601 -0.6354 -1.0947  0.2943
 3429TIP3   OH231777   0.298   5.852   0.392  0.5088  0.0002 -0.3874
 3429TIP3    H131778   0.355   5.777   0.411  1.9479  0.8391 -1.2516
 3429TIP3    H231779   0.233   5.818   0.332  2.0189 -0.2493 -1.9320
 3430TIP3   OH231780   5.177   0.348   2.489  1.3688  0.1631 -0.6370
 3430TIP3    H131781   5.243   0.337   2.420  1.8618  1.5269 -0.3882
 3430TIP3    H231782   5.228   0.357   2.569  0.8614  0.7634 -0.3829
 3431TIP3   OH231783   0.891   6.545  11.750 -0.5427 -0.2751 -0.1984
 3431TIP3    H131784   0.981   6.559  11.719 -0.1787 -2.0913  0.0053
 3431TIP3    H231785   0.896   6.466  11.803 -1.7981  1.0486  1.9191
 3432TIP3   OH231786   4.850   5.883  12.753  0.0170  0.4697  0.3746
 3432TIP3    H131787   4.878   5.859  12.665  0.4010  0.5805  0.4628
 3432TIP3    H231788   4.794   5.960  12.740 -1.4071 -0.6020  0.0746
 3433TIP3   OH231789   1.394   3.515   1.117 -0.4312 -0.3555 -0.1378
 3433TIP3    H131790   1.413   3.609   1.120 -0.3184 -0.4021  1.1856
 3433TIP3    H231791   1.435   3.480   1.196 -2.1189 -1.1949  0.3984
 3434TIP3   OH231792   5.651   2.391  12.756  0.3644 -0.0461  0.1233
 3434TIP3    H131793   5.602   2.449  12.697 -1.3389 -1.1286  0.4353
 3434TIP3    H231794   5.728   2.365  12.706 -1.1897 -1.1456 -1.7131
 3435TIP3   OH231795   5.766   1.603  12.325 -0.7306  0.3861 -0.2070
 3435TIP3    H131796   5.719   1.519  12.327 -1.3418  0.7065 -0.9352
 3435TIP3    H231797   5.817   1.599  12.244 -1.1469  0.9289 -0.4925
 3436TIP3   OH231798   4.962   0.390   1.454 -0.1291 -0.3402 -0.1926
 3436TIP3    H131799   4.901   0.340   1.400  0.3095 -0.3984 -0.6351
 3436TIP3    H231800   5.034   0.412   1.395  0.2910 -0.2929  0.3352
 3437TIP3   OH231801   5.878   0.159   4.144 -0.3458  0.4256 -0.3946
 3437TIP3    H131802   5.955   0.126   4.191 -0.2852  0.6430 -0.3373
 3437TIP3    H231803   5.870   0.101   4.068 -1.2518 -0.7593  0.5910
 3438TIP3   OH231804   5.951   2.885  16.532  0.1014  0.4582 -0.1093
 3438TIP3    H131805   5.988   2.954  16.478  0.1060  1.1982  0.8359
 3438TIP3    H231806   5.981   2.904  16.621  0.6594 -1.1305  0.0658
 3439TIP3   OH231807   1.169   6.573  17.168 -0.0945 -0.4475  0.7727
 3439TIP3    H131808   1.223   6.522  17.107  0.2522 -0.7186  1.3028
 3439TIP3    H231809   1.226   6.587  17.244 -0.5899 -0.2721  1.1143
 3440TIP3   OH231810   2.114   3.471  14.302  0.4516  0.0398 -0.2162
 3440TIP3    H131811   2.080   3.536  14.241  1.7590 -0.4084 -1.4337
 3440TIP3    H231812   2.035   3.431  14.340 -0.3635  0.7603 -1.1293
 3441TIP3   OH231813   2.584   1.945   3.729  1.0127 -0.2363  0.2441
 3441TIP3    H131814   2.636   2.023   3.745 -1.7509  1.2503  2.4651
 3441TIP3    H231815   2.628   1.876   3.778  2.2265  0.4331  0.1000
 3442TIP3   OH231816   5.939   6.123  14.455  0.3194 -0.2064 -0.0257
 3442TIP3    H131817   5.849   6.096  14.441  0.4335 -1.5079  1.6260
 3442TIP3    H231818   5.953   6.115  14.550  1.3617  2.5397  0.1072
 3443TIP3   OH231819   0.379   6.607  12.948 -0.1809 -0.8108 -0.5249
 3443TIP3    H131820   0.446   6.621  12.881 -0.5123 -0.4989 -0.7945
 3443TIP3    H231821   0.393   6.676  13.012 -0.7914 -0.2127 -1.0254
 3444TIP3   OH231822   0.324   1.447   6.847 -0.0896 -0.1422  0.5579
 3444TIP3    H131823   0.344   1.537   6.819  1.3137 -1.0384 -1.4645
 3444TIP3    H231824   0.239   1.428   6.809  0.6511 -0.4454 -0.9984
 3445TIP3   OH231825   4.815   3.600   4.592 -0.1513  0.4550 -0.3231
 3445TIP3    H131826   4.795   3.511   4.562 -0.9985  0.9688 -1.3171
 3445TIP3    H231827   4.731   3.636   4.618  0.2654  0.7946  0.5610
 3446TIP3   OH231828   1.275   4.226  16.989 -0.5432 -0.5611 -0.2358
 3446TIP3    H131829   1.352   4.272  16.954 -1.7375  0.9131 -0.9974
 3446TIP3    H231830   1.212   4.296  17.008 -1.1221 -1.6124  1.8792
 3447TIP3   OH231831   1.607   4.677   1.916 -0.1838 -0.5903 -0.5016
 3447TIP3    H131832   1.693   4.713   1.938 -0.1392 -0.0409 -1.5518
 3447TIP3    H231833   1.595   4.605   1.978  0.5138  0.0788  0.4266
 3448TIP3   OH231834   5.022   3.370   5.034 -0.1852 -0.1368  0.7425
 3448TIP3    H131835   4.994   3.340   4.948  0.1652 -0.6761  0.8136
 3448TIP3    H231836   5.046   3.462   5.021  1.1326 -0.5819 -0.0247
 3449TIP3   OH231837   3.816   5.938   3.279 -0.0799  0.1400 -0.5717
 3449TIP3    H131838   3.834   5.846   3.296 -0.0619 -0.0645 -1.7091
 3449TIP3    H231839   3.808   5.977   3.367  0.9966 -0.7166 -0.0738
 3450TIP3   OH231840   0.364   4.786   3.538  0.5232  0.1950 -1.0350
 3450TIP3    H131841   0.310   4.863   3.520 -0.2585 -0.0563  0.1888
 3450TIP3    H231842   0.449   4.821   3.563 -0.0703  0.6917  0.3184
 3451TIP3   OH231843   3.757   3.675  10.634  0.1029 -0.5394 -0.5033
 3451TIP3    H131844   3.702   3.606  10.671 -1.0974  0.1744 -0.9054
 3451TIP3    H231845   3.739   3.751  10.690  1.1268 -0.4606 -0.2861
 3452TIP3   OH231846   2.243   4.605   5.484  0.6587 -0.5923 -0.0817
 3452TIP3    H131847   2.207   4.533   5.535  1.8049 -1.7360 -0.8620
 3452TIP3    H231848   2.292   4.563   5.413  2.7675  0.9036  0.4250
 3453TIP3   OH231849   6.794   2.027  16.068 -0.5725 -0.2037  0.1722
 3453TIP3    H131850   6.784   2.050  15.976  2.3490 -0.2727 -0.2293
 3453TIP3    H231851   6.852   2.094  16.104 -0.3268 -1.1139  1.5401
 3454TIP3   OH231852   3.735   1.100   5.402  0.3535 -0.5042 -0.0617
 3454TIP3    H131853   3.674   1.171   5.383  0.0222 -0.1166  2.2740
 3454TIP3    H231854   3.821   1.136   5.382  0.0378 -0.0789 -0.6629
 3455TIP3   OH231855   3.502   5.388   1.179 -0.3700  0.1557 -0.2349
 3455TIP3    H131856   3.420   5.414   1.220 -0.8756 -0.8879 -0.5723
 3455TIP3    H231857   3.503   5.293   1.186  1.8483  0.2545  1.7568
 3456TIP3   OH231858   4.009   4.428  12.936  0.3010 -0.0820 -0.2388
 3456TIP3    H131859   3.955   4.488  12.885 -0.6347 -1.5852 -1.0596
 3456TIP3    H231860   3.950   4.393  13.002  0.8207 -0.1672  0.1841
 3457TIP3   OH231861   1.043   6.411  13.666 -0.0663  0.4604  0.3749
 3457TIP3    H131862   0.954   6.377  13.680  0.4928 -1.3034 -0.2545
 3457TIP3    H231863   1.031   6.485  13.605 -1.2626  1.2403  1.5228
 3458TIP3   OH231864   3.233   0.880   3.977 -0.1095 -0.1186  0.0718
 3458TIP3    H131865   3.187   0.803   3.943 -0.6156  0.1455  0.1596
 3458TIP3    H231866   3.243   0.938   3.902  1.6918 -0.9499 -0.3582
 3459TIP3   OH231867   6.016   0.234   5.121  0.7986  0.2493 -0.1349
 3459TIP3    H131868   5.937   0.234   5.175 -0.2566 -1.2607 -1.6315
 3459TIP3    H231869   5.993   0.287   5.045  1.6534  0.8135 -0.0064
 3460TIP3   OH231870   5.533   5.239   0.026 -0.6699 -0.6947 -0.4396
 3460TIP3    H131871   5.441   5.225   0.002 -0.4525 -2.9961 -0.0752
 3460TIP3    H231872   5.579   5.164  -0.012  1.0403  0.3589 -0.4794
 3461TIP3   OH231873   3.108   6.264   2.645 -0.3680  0.3295  0.0476
 3461TIP3    H131874   3.137   6.346   2.683 -0.8151  0.6849 -0.3606
 3461TIP3    H231875   3.158   6.255   2.564  1.3014 -0.9168  1.1920
 3462TIP3   OH231876   1.888   6.500   2.698  0.1027  0.4277  0.2768
 3462TIP3    H131877   1.879   6.405   2.705 -0.8701  0.4837 -0.0391
 3462TIP3    H231878   1.855   6.534   2.781 -1.0014  0.5574 -0.2065
 3463TIP3   OH231879   3.053   4.708   0.821  0.4949  0.5576  0.0367
 3463TIP3    H131880   3.051   4.672   0.910 -2.6092 -0.3551 -0.3568
 3463TIP3    H231881   3.032   4.801   0.831 -0.3984  0.3383  0.2139
 3464TIP3   OH231882   0.104   4.844  15.698 -1.0229 -0.0080 -0.9400
 3464TIP3    H131883   0.167   4.782  15.661 -0.4126 -0.1762  0.3225
 3464TIP3    H231884   0.119   4.925  15.650 -1.8813 -0.8428 -2.6658
 3465TIP3   OH231885   2.416   3.705  11.095 -0.5778 -0.1288  0.3371
 3465TIP3    H131886   2.480   3.675  11.159 -0.9029 -1.4211  0.0688
 3465TIP3    H231887   2.440   3.796  11.078  0.0252 -0.0306  1.6542
 3466TIP3   OH231888   0.156   2.558   3.904  0.6507 -0.0725  0.2039
 3466TIP3    H131889   0.108   2.611   3.841  0.3613 -2.4836 -1.6825
 3466TIP3    H231890   0.246   2.589   3.898  0.3205  0.8526 -0.1235
 3467TIP3   OH231891   3.518   3.342  13.057 -0.0805  0.3613  0.0167
 3467TIP3    H131892   3.506   3.431  13.089 -0.0895  0.5249 -0.4322
 3467TIP3    H231893   3.431   3.316  13.025  0.4154  1.0531 -1.9958
 3468TIP3   OH231894   4.004   6.813  15.385  0.4370 -0.3063  0.5634
 3468TIP3    H131895   3.987   6.721  15.403 -0.2234 -0.2879  0.0698
 3468TIP3    H231896   4.086   6.832  15.429  1.2265 -1.4662 -0.3832
 3469TIP3   OH231897   2.150   1.126  15.451  0.0423 -0.5108  0.7150
 3469TIP3    H131898   2.101   1.198  15.413 -0.8049 -0.9688  0.9150
 3469TIP3    H231899   2.210   1.168  15.513  0.4939  0.1198 -0.1425
 3470TIP3   OH231900   5.441   4.490   1.315  0.3220  1.0348  0.2081
 3470TIP3    H131901   5.369   4.467   1.374  0.8282  0.7495  0.7207
 3470TIP3    H231902   5.405   4.474   1.227  0.6231 -1.7505  0.5270
 3471TIP3   OH231903   5.623   1.369  12.400  0.2161 -0.0060 -0.3123
 3471TIP3    H131904   5.559   1.370  12.329  0.5284  0.2526 -0.5907
 3471TIP3    H231905   5.570   1.359  12.479 -0.4491  3.5682 -0.2287
 3472TIP3   OH231906   2.012   2.325  10.670  0.1597  0.1869  0.0971
 3472TIP3    H131907   2.101   2.302  10.642  0.3001  1.2620 -0.3786
 3472TIP3    H231908   1.954   2.279  10.610  0.4196  0.4113 -0.3257
 3473TIP3   OH231909   4.015   2.814   0.437 -0.2374 -0.0905 -0.0064
 3473TIP3    H131910   4.074   2.741   0.421  1.2784  0.7857  1.4592
 3473TIP3    H231911   4.041   2.881   0.373 -2.8860 -1.4613 -2.6753
 3474TIP3   OH231912   5.509   4.725   4.523 -0.4482 -0.2392  0.6040
 3474TIP3    H131913   5.579   4.712   4.459 -1.0326 -0.2874 -0.0226
 3474TIP3    H231914   5.555   4.749   4.604  0.3802 -1.4814  0.5265
 3475TIP3   OH231915   1.636   4.043  11.067  0.3896  0.3255 -0.5043
 3475TIP3    H131916   1.664   4.131  11.093 -1.3660  0.2854  1.6498
 3475TIP3    H231917   1.665   4.035  10.976  0.0816  3.3522 -0.9228
 3476TIP3   OH231918   3.099   4.434  14.818  0.0498 -0.1694 -0.1281
 3476TIP3    H131919   3.109   4.428  14.913  2.3895 -2.1966 -0.4631
 3476TIP3    H231920   3.173   4.488  14.789 -0.3553 -0.0036 -0.8696
 3477TIP3   OH231921   6.355   4.772  11.640 -0.1365  0.4593 -0.2884
 3477TIP3    H131922   6.271   4.757  11.683 -1.5637 -0.4641 -3.2941
 3477TIP3    H231923   6.381   4.686  11.607  0.8544  1.1491 -1.3519
 3478TIP3   OH231924   4.372   1.481   0.299  0.3863  0.0118  0.6347
 3478TIP3    H131925   4.378   1.540   0.223  0.1288 -0.1410  0.4919
 3478TIP3    H231926   4.457   1.438   0.303  0.5331  0.3036  0.6648
 3479TIP3   OH231927   1.324   4.285   5.958 -0.2372 -0.5020 -0.6563
 3479TIP3    H131928   1.370   4.205   5.931  2.7105  0.1806  2.0957
 3479TIP3    H231929   1.372   4.356   5.915  0.5129  0.1293  1.1834
 3480TIP3   OH231930   1.301   1.213   0.657  1.1514 -0.5676 -0.3735
 3480TIP3    H131931   1.369   1.226   0.723  0.6478 -2.8096  0.6278
 3480TIP3    H231932   1.336   1.144   0.601  0.4669 -0.4707 -0.9148
 3481TIP3   OH231933   0.698   5.278   2.363  0.0306 -0.0995 -0.1332
 3481TIP3    H131934   0.723   5.196   2.406 -0.7966  0.6951  1.9095
 3481TIP3    H231935   0.689   5.255   2.271 -1.9058 -2.7191  0.6474
 3482TIP3   OH231936   3.524   2.811  13.581  0.1342 -0.6443  0.0289
 3482TIP3    H131937   3.503   2.719  13.597  0.5633 -0.2452  3.2270
 3482TIP3    H231938   3.608   2.824  13.626  1.6011  0.6117 -2.8906
 3483TIP3   OH231939   2.046   0.788   5.290 -0.3230  0.6118  0.0503
 3483TIP3    H131940   2.034   0.827   5.203  0.7889  2.3179  0.6240
 3483TIP3    H231941   2.053   0.863   5.349 -0.8748 -0.5303  1.5886
 3484TIP3   OH231942   1.949   5.714  13.518 -0.2564 -0.6435  0.5197
 3484TIP3    H131943   1.858   5.716  13.548 -0.8413 -2.0196 -1.1006
 3484TIP3    H231944   1.957   5.792  13.463 -1.1615 -1.7646 -1.2487
 3485TIP3   OH231945   4.445   2.120  12.223 -0.5410 -0.0957 -0.2917
 3485TIP3    H131946   4.392   2.062  12.168 -0.0167 -0.0052 -0.8987
 3485TIP3    H231947   4.408   2.110  12.311 -0.2054 -1.6357 -0.3246
 3486TIP3   OH231948   3.383   2.960  12.404 -0.1159  0.1188  0.1367
 3486TIP3    H131949   3.347   2.894  12.465  0.3022 -0.0033  0.2539
 3486TIP3    H231950   3.420   3.027  12.461  0.4870 -0.1117  0.0170
 3487TIP3   OH231951   0.027   2.633   1.200 -0.2939 -0.0130  1.1004
 3487TIP3    H131952  -0.031   2.557   1.205 -0.5710  0.3134  3.3592
 3487TIP3    H231953   0.014   2.667   1.112  0.7375 -3.2557 -0.3658
 3488TIP3   OH231954   0.275   3.285   5.657  0.1663  0.7322  0.4574
 3488TIP3    H131955   0.329   3.348   5.704  3.4330 -1.0246 -0.7340
 3488TIP3    H231956   0.320   3.273   5.573 -1.8725 -1.1272 -0.4296
 3489TIP3   OH231957   5.031   2.184   2.868  0.7309  0.2419  0.0114
 3489TIP3    H131958   4.955   2.129   2.885  1.3821  0.0956  2.6487
 3489TIP3    H231959   4.996   2.259   2.819 -0.2665 -2.1170 -3.0297
 3490TIP3   OH231960   3.676   2.571  16.879  0.0465  0.8161  0.0878
 3490TIP3    H131961   3.607   2.620  16.835 -0.6868  0.4162  0.7737
 3490TIP3    H231962   3.676   2.486  16.835  0.4350  0.9851 -0.2382
 3491TIP3   OH231963   3.632   1.355   2.241 -0.1355  0.5948 -0.2236
 3491TIP3    H131964   3.552   1.380   2.194 -0.3274 -0.9608 -0.7890
 3491TIP3    H231965   3.703   1.392   2.189 -0.5038  2.4294  0.5683
 3492TIP3   OH231966   3.952   4.267   3.168 -0.3237 -0.0168  0.2789
 3492TIP3    H131967   3.972   4.358   3.144 -1.2252  0.6303  1.8368
 3492TIP3    H231968   4.036   4.230   3.194  0.5876 -0.6032 -3.2897
 3493TIP3   OH231969   6.270   2.568  16.423 -0.3344 -0.2176 -0.1847
 3493TIP3    H131970   6.307   2.654  16.441  1.7142 -0.8223 -1.3080
 3493TIP3    H231971   6.184   2.569  16.464 -0.7210  2.6837 -1.0064
 3494TIP3   OH231972   0.981   2.135  17.272 -0.4459  0.0933  0.1995
 3494TIP3    H131973   0.999   2.132  17.178  1.5914  1.4364  0.5070
 3494TIP3    H231974   0.887   2.119  17.280 -0.5691 -0.3280 -2.0476
 3495TIP3   OH231975   6.051   2.417   5.233  0.6798  0.2207  0.5246
 3495TIP3    H131976   6.033   2.348   5.297  1.1546  0.3096  0.7584
 3495TIP3    H231977   6.033   2.499   5.280  0.9517  0.2829  0.5195
 3496TIP3   OH231978   0.353   1.830   5.883 -0.2258  0.0602 -0.2361
 3496TIP3    H131979   0.349   1.907   5.940 -1.4950 -0.1844  0.0114
 3496TIP3    H231980   0.287   1.846   5.816 -1.7288 -1.5911  0.8057
 3497TIP3   OH231981   4.542   3.256   6.268 -0.1818  0.0742 -0.1918
 3497TIP3    H131982   4.530   3.162   6.276  0.0968  0.2526  3.0447
 3497TIP3    H231983   4.455   3.293   6.283 -0.9070  0.2982 -4.3114
 3498TIP3   OH231984   3.930   1.663  15.545 -0.8702  0.0264 -0.9448
 3498TIP3    H131985   3.882   1.592  15.589  0.0428  0.5165  0.9271
 3498TIP3    H231986   3.872   1.739  15.552 -2.0405 -0.5923 -3.3430
 3499TIP3   OH231987   6.690   4.364  10.599  0.1034  0.7284 -0.2903
 3499TIP3    H131988   6.615   4.387  10.545  1.0237  1.7848 -1.1446
 3499TIP3    H231989   6.660   4.377  10.689 -0.7498  1.0837 -0.6269
 3500TIP3   OH231990   3.845   4.132  11.930 -0.1636 -0.3746  0.4031
 3500TIP3    H131991   3.932   4.096  11.914 -0.3483 -0.2651 -0.9304
 3500TIP3    H231992   3.790   4.055  11.944 -0.2972 -0.5840 -1.1162
 3501TIP3   OH231993   0.812   6.580  14.669  0.2155 -0.2802  0.1309
 3501TIP3    H131994   0.815   6.527  14.589 -0.4505 -1.1681  0.6842
 3501TIP3    H231995   0.737   6.545  14.718  0.9759 -0.1384  1.4178
 3502TIP3   OH231996   2.419   0.800   0.553 -0.0118 -0.9870 -0.0325
 3502TIP3    H131997   2.447   0.732   0.492  0.3990 -0.3182 -0.5915
 3502TIP3    H231998   2.341   0.838   0.512  1.5306  0.9577 -1.2499
 3503TIP3   OH231999   5.544   4.386   2.767 -0.5426 -0.3229  0.0414
 3503TIP3    H132000   5.614   4.326   2.792 -1.7516 -1.8960 -0.2384
 3503TIP3    H232001   5.536   4.375   2.672 -2.5444 -1.7147  0.3523
 3504TIP3   OH232002   1.594   4.997   5.306 -0.1913  0.4267  0.2373
 3504TIP3    H132003   1.512   4.966   5.269  1.2947 -2.4676 -0.8189
 3504TIP3    H232004   1.622   5.068   5.249 -1.4952  0.8162  0.0793
 3505TIP3   OH232005   3.315   6.624   4.479 -0.9048  0.1846  0.3764
 3505TIP3    H132006   3.389   6.678   4.451 -1.1251  0.4491  0.3059
 3505TIP3    H232007   3.269   6.678   4.544  0.2184 -0.8399  2.0642
 3506TIP3   OH232008   3.798   6.140  17.157 -0.0237  0.4062 -0.3674
 3506TIP3    H132009   3.718   6.192  17.163 -1.7441 -2.1309 -0.4443
 3506TIP3    H232010   3.869   6.205  17.156 -1.9861  2.6661  0.9433
 3507TIP3   OH232011   5.934   2.698  11.770  0.0479  0.0920  0.4016
 3507TIP3    H132012   5.852   2.703  11.818 -0.9234 -0.4139 -1.1747
 3507TIP3    H232013   5.917   2.743  11.688  2.6660  3.8097  1.7514
 3508TIP3   OH232014   2.699   3.289   0.369  0.1793  0.1014 -0.2347
 3508TIP3    H132015   2.720   3.320   0.281 -0.7496 -0.1469 -0.5482
 3508TIP3    H232016   2.650   3.362   0.409 -0.6873 -0.3484 -0.4484
 3509TIP3   OH232017   3.449   1.340   3.968  0.4872  0.3586  0.4179
 3509TIP3    H132018   3.417   1.270   3.911  0.7264  0.5897  0.0031
 3509TIP3    H232019   3.370   1.378   4.005  0.4125 -1.2987  2.0427
 3510TIP3   OH232020   5.213   2.202  11.700  0.3818  0.3948  0.3997
 3510TIP3    H132021   5.200   2.140  11.772  2.9158  0.1856  0.7088
 3510TIP3    H232022   5.184   2.155  11.622  3.0983 -1.5420  0.5032
 3511TIP3   OH232023   5.499   3.368  15.389 -0.1552 -1.2415 -0.0389
 3511TIP3    H132024   5.410   3.344  15.414 -0.9451 -0.1654 -1.6921
 3511TIP3    H232025   5.497   3.463  15.380  2.2075 -0.7246  3.7215
 3512TIP3   OH232026   6.127   1.637  12.965  0.1108 -0.1261  0.2429
 3512TIP3    H132027   6.074   1.562  12.938  1.3881 -0.4807 -1.3313
 3512TIP3    H232028   6.063   1.701  12.998 -1.2754 -0.6511 -1.3390
 3513TIP3   OH232029   3.707   0.064   2.713 -0.7024 -0.2867  0.3949
 3513TIP3    H132030   3.787   0.112   2.736 -1.0007  0.4224 -0.0129
 3513TIP3    H232031   3.733  -0.028   2.713  0.1039 -0.0633  0.3249
 3514TIP3   OH232032   4.234   3.255   3.020 -0.5504 -0.2858 -0.1379
 3514TIP3    H132033   4.146   3.271   3.056  0.0972  1.2604  0.8307
 3514TIP3    H232034   4.274   3.342   3.016  1.3812 -1.1115  0.6145
 3515TIP3   OH232035   6.347   5.259  15.573 -0.2778  0.2181  0.1409
 3515TIP3    H132036   6.273   5.320  15.576 -0.0842  0.3822  2.1264
 3515TIP3    H232037   6.403   5.286  15.645  2.3106  0.7836 -2.0085
 3516TIP3   OH232038   6.452   3.124  14.227  0.2426  0.4728  0.7141
 3516TIP3    H132039   6.517   3.181  14.187 -0.1758  1.0386  0.8342
 3516TIP3    H232040   6.388   3.183  14.266  0.6688 -0.0563  2.2777
 3517TIP3   OH232041   5.149   4.621  14.763 -0.2631 -0.2405 -0.4200
 3517TIP3    H132042   5.237   4.641  14.732  0.2123  0.0433  1.1234
 3517TIP3    H232043   5.135   4.530  14.738  1.5768 -1.1807  1.9247
 3518TIP3   OH232044   4.639   3.342  14.689  0.2104 -0.3350  0.1529
 3518TIP3    H132045   4.649   3.425  14.736  1.1226  0.9993 -2.3476
 3518TIP3    H232046   4.571   3.359  14.624 -0.0943 -1.7658  0.0829
 3519TIP3   OH232047   0.832   0.761  14.186  0.0196 -0.2254  0.4091
 3519TIP3    H132048   0.884   0.685  14.161  0.4733  0.5638 -1.0664
 3519TIP3    H232049   0.895   0.821  14.227 -0.1005 -0.0886  0.3936
 3520TIP3   OH232050   5.410   1.142   6.171  0.7299 -0.0804 -0.6653
 3520TIP3    H132051   5.372   1.147   6.084 -1.1907 -0.0317  0.1297
 3520TIP3    H232052   5.427   1.049   6.186  2.5051  0.0692 -1.6605
 3521TIP3   OH232053   3.671   5.311   3.576 -0.1746 -0.5621  0.0333
 3521TIP3    H132054   3.719   5.328   3.657 -0.4690 -1.4654  0.4130
 3521TIP3    H232055   3.644   5.397   3.544 -1.9005 -0.3238  2.0258
 3522TIP3   OH232056   2.489   1.455   2.818  0.4792 -0.0271 -0.4928
 3522TIP3    H132057   2.483   1.414   2.732  0.8609  1.1432 -1.0841
 3522TIP3    H232058   2.546   1.530   2.805 -0.6506  1.0126  0.4520
 3523TIP3   OH232059   4.339   6.185   4.051  0.0194 -0.7808  0.0876
 3523TIP3    H132060   4.401   6.235   4.104  0.4319  0.0141 -1.1101
 3523TIP3    H232061   4.330   6.101   4.096  1.3889 -0.6124  0.6875
 3524TIP3   OH232062   1.583   5.180  12.314  0.7630 -0.0587  0.2295
 3524TIP3    H132063   1.495   5.202  12.284  0.3186 -0.5340  1.1568
 3524TIP3    H232064   1.613   5.112  12.254  1.3277  1.5835 -1.3764
 3525TIP3   OH232065   6.513   5.025  17.118 -0.1559 -0.3359  0.1445
 3525TIP3    H132066   6.490   4.932  17.122  0.5287 -0.5133 -0.0503
 3525TIP3    H232067   6.583   5.036  17.183 -0.9904  0.2701  0.9509
 3526TIP3   OH232068   4.767   0.754  14.292  0.2769 -0.0747  0.4904
 3526TIP3    H132069   4.759   0.667  14.333  1.7788 -1.1000 -1.2900
 3526TIP3    H232070   4.845   0.792  14.333  0.1386  0.0624  0.6269
 3527TIP3   OH232071   3.479   2.549   4.423 -0.4683 -0.4628  0.4274
 3527TIP3    H132072   3.515   2.491   4.356 -0.8836  1.4705 -1.5035
 3527TIP3    H232073   3.548   2.553   4.490  0.7402 -0.9665 -0.7471
 3528TIP3   OH232074   4.155   4.965   1.799  0.3479  0.1949 -0.2518
 3528TIP3    H132075   4.148   5.060   1.794 -1.2207  0.1798  1.2491
 3528TIP3    H232076   4.066   4.934   1.786  0.7397 -1.0388 -0.0361
 3529TIP3   OH232077   3.313   4.207   3.464  0.1087 -0.0771 -0.4767
 3529TIP3    H132078   3.299   4.176   3.374 -1.0437 -1.0050  0.0175
 3529TIP3    H232079   3.238   4.173   3.513  1.1433 -0.2617  1.0065
 3530TIP3   OH232080   1.695   2.244   1.247  0.3730  0.0039  0.2982
 3530TIP3    H132081   1.768   2.188   1.222  0.4983  0.3588 -0.1499
 3530TIP3    H232082   1.736   2.330   1.264 -0.1407  0.6414 -1.5837
 3531TIP3   OH232083   6.798   0.540   3.497  0.5252 -0.0583  0.6087
 3531TIP3    H132084   6.739   0.515   3.426 -0.6989  0.5750  1.3961
 3531TIP3    H232085   6.840   0.620   3.466  0.4187 -0.0959  0.3666
 3532TIP3   OH232086   1.041   3.452  13.495  0.0799 -0.0148 -0.2362
 3532TIP3    H132087   1.002   3.369  13.518  1.7448 -1.2077 -1.5325
 3532TIP3    H232088   0.982   3.518  13.531 -1.7940 -1.7397 -0.0651
 3533TIP3   OH232089   3.959   4.259   2.695 -0.8764  0.5037  0.5138
 3533TIP3    H132090   4.031   4.247   2.633  0.2366  0.4823  1.7807
 3533TIP3    H232091   3.933   4.170   2.718 -1.3436  0.5116  0.0198
 3534TIP3   OH232092   4.544   2.489  12.515  0.5193 -0.5709  0.4612
 3534TIP3    H132093   4.603   2.425  12.473  0.7486  0.4209 -0.7327
 3534TIP3    H232094   4.537   2.560  12.452 -1.4370 -0.3602  0.8892
 3535TIP3   OH232095   1.611   5.776   1.636  0.3306 -0.6470  0.2550
 3535TIP3    H132096   1.558   5.719   1.581  0.6040 -1.2943  0.6563
 3535TIP3    H232097   1.601   5.863   1.598  0.5416 -1.0927 -0.8253
 3536TIP3   OH232098   0.157   5.709  14.727 -0.0225 -0.1996  0.2955
 3536TIP3    H132099   0.199   5.743  14.807  0.3600 -1.7320  0.7617
 3536TIP3    H232100   0.217   5.733  14.657  0.2259  0.1176  0.6108
 3537TIP3   OH232101   5.886   0.981  15.516 -0.3424 -0.1165  0.0326
 3537TIP3    H132102   5.889   0.905  15.456  0.3156  0.7720 -1.0874
 3537TIP3    H232103   5.925   0.948  15.597  0.8419 -0.7161 -0.7596
 3538TIP3   OH232104   1.153   4.597   0.742 -0.0168 -0.1490 -0.3188
 3538TIP3    H132105   1.080   4.656   0.757 -0.5100 -0.8228 -0.0462
 3538TIP3    H232106   1.200   4.594   0.825 -0.5556 -0.9058 -0.0417
 3539TIP3   OH232107   0.991   0.672   1.014  0.5135 -0.2428 -0.5263
 3539TIP3    H132108   0.988   0.621   0.933  0.4166  1.1950 -1.4559
 3539TIP3    H232109   1.028   0.756   0.987  0.2257  0.3345  0.8744
 3540TIP3   OH232110   2.601   0.564  14.864 -0.2107 -0.0148 -0.1595
 3540TIP3    H132111   2.657   0.486  14.869 -1.1724 -0.8658 -2.1236
 3540TIP3    H232112   2.515   0.530  14.839 -1.0915  1.5082  0.7168
 3541TIP3   OH232113   1.609   3.813   3.275  0.0367  0.1754  0.3092
 3541TIP3    H132114   1.530   3.758   3.281  0.0557  0.2783  1.7014
 3541TIP3    H232115   1.576   3.903   3.278  0.1729  0.2185  0.6468
 3542TIP3   OH232116   3.731   1.737  15.273 -0.3346  0.5476 -0.3521
 3542TIP3    H132117   3.696   1.774  15.354  0.3685 -1.0017  0.6684
 3542TIP3    H232118   3.671   1.666  15.251  1.5799 -1.5023  0.8881
 3543TIP3   OH232119   3.876   3.216  11.937  0.1621  0.3444  0.1328
 3543TIP3    H132120   3.872   3.293  11.994  2.5213 -1.4296  2.8395
 3543TIP3    H232121   3.863   3.142  11.996  0.7470 -1.4646 -1.9522
 3544TIP3   OH232122   6.679   1.645  13.954 -0.6427 -0.2708 -0.1635
 3544TIP3    H132123   6.685   1.728  14.002  0.8459 -0.9975  0.9347
 3544TIP3    H232124   6.761   1.641  13.904 -1.3487 -0.4172 -1.3300
 3545TIP3   OH232125   5.402   3.883   2.776  0.1496  0.2832  0.2927
 3545TIP3    H132126   5.413   3.963   2.828  0.3616 -0.0377  0.7570
 3545TIP3    H232127   5.391   3.913   2.686 -1.7937  0.9229  0.7299
 3546TIP3   OH232128   4.749   5.483  12.189 -0.0349  0.5310 -0.1771
 3546TIP3    H132129   4.792   5.414  12.138 -1.7555 -1.0742  0.4658
 3546TIP3    H232130   4.764   5.458  12.280 -2.6491 -0.3092  0.0586
 3547TIP3   OH232131   1.712   5.698  16.882  0.3072  0.6013  0.1101
 3547TIP3    H132132   1.772   5.734  16.948 -0.0701 -0.0272  0.8032
 3547TIP3    H232133   1.675   5.621  16.924  0.2499  0.0525 -0.9426
 3548TIP3   OH232134   6.308   6.235   2.574  0.3869  0.3709 -1.0879
 3548TIP3    H132135   6.356   6.187   2.507 -0.5416  1.3655 -2.4920
 3548TIP3    H232136   6.216   6.225   2.549 -0.0719 -0.3711  0.8047
 3549TIP3   OH232137   5.085   1.296   1.360 -0.0122  0.1773 -0.1858
 3549TIP3    H132138   5.138   1.225   1.396 -2.1230 -1.1720  0.3950
 3549TIP3    H232139   5.121   1.375   1.399  1.4246 -0.7173  0.3411
 3550TIP3   OH232140   1.050   6.667  13.902  0.3892  0.2764 -0.0649
 3550TIP3    H132141   1.137   6.632  13.924  0.1886  0.3062  0.7703
 3550TIP3    H232142   1.068   6.739  13.841  0.8623 -0.6613 -1.0466
 3551TIP3   OH232143   3.319   4.869   2.297 -0.3373  0.6674  0.4122
 3551TIP3    H132144   3.301   4.775   2.285  0.5155  0.3389  1.6148
 3551TIP3    H232145   3.289   4.909   2.216  0.3141 -0.7991 -0.5787
 3552TIP3   OH232146   3.740   5.901   5.436 -0.0768  0.3108 -0.4375
 3552TIP3    H132147   3.700   5.924   5.520  1.0476 -1.8270  0.7659
 3552TIP3    H232148   3.686   5.829   5.403 -0.9553  1.6433 -1.9353
 3553TIP3   OH232149   0.830   4.409   1.159  0.2864  0.4813 -0.5774
 3553TIP3    H132150   0.770   4.370   1.096  0.7228 -0.2438 -0.5434
 3553TIP3    H232151   0.847   4.496   1.124 -0.1887  0.4153 -0.9825
 3554TIP3   OH232152   1.712   1.640  12.088  0.1050 -0.2517 -0.5153
 3554TIP3    H132153   1.724   1.704  12.018  1.2171 -0.5605 -0.6149
 3554TIP3    H232154   1.768   1.672  12.160 -1.8565  0.6643  0.6658
 3555TIP3   OH232155   5.658   4.716  15.445  0.1948  0.2505 -0.0381
 3555TIP3    H132156   5.690   4.665  15.371 -0.1920 -0.0989  0.0342
 3555TIP3    H232157   5.603   4.784  15.407  3.2247  2.6066 -0.3975
 3556TIP3   OH232158   5.774   1.976   6.061  0.5094  0.5319  0.6082
 3556TIP3    H132159   5.860   1.971   6.104  0.7849  0.5480  0.0593
 3556TIP3    H232160   5.715   1.928   6.120  1.3904 -1.6963 -0.2767
 3557TIP3   OH232161   6.516   5.505   5.269 -0.0682  0.1483 -0.5849
 3557TIP3    H132162   6.574   5.430   5.283  0.7932  0.9056 -0.0693
 3557TIP3    H232163   6.428   5.467   5.265  0.1169 -0.6642  2.0275
 3558TIP3   OH232164   3.416   6.677  14.190  0.2906  0.1351 -0.2912
 3558TIP3    H132165   3.495   6.665  14.243 -0.2264  0.0106  0.4672
 3558TIP3    H232166   3.446   6.723  14.112  1.2995 -0.8659 -0.5043
 3559TIP3   OH232167   3.144   1.633   5.988 -0.6375  0.2405 -0.2782
 3559TIP3    H132168   3.232   1.669   5.974 -1.0816  1.3759 -0.1365
 3559TIP3    H232169   3.129   1.644   6.082 -0.4999 -0.9477 -0.1114
 3560TIP3   OH232170   4.265   3.141  14.132 -0.1699  0.0125  0.1096
 3560TIP3    H132171   4.264   3.097  14.218 -3.8217  0.1938  0.2327
 3560TIP3    H232172   4.267   3.234  14.154  1.7941  0.0331 -0.0806
 3561TIP3   OH232173   2.791   2.464   0.318 -0.1763 -0.1779  0.0210
 3561TIP3    H132174   2.736   2.539   0.338 -1.8134 -1.4060  0.2606
 3561TIP3    H232175   2.798   2.464   0.222  0.6937  0.8576  0.0764
 3562TIP3   OH232176   3.021   1.626   1.099  0.1740 -0.2910 -0.4624
 3562TIP3    H132177   3.078   1.550   1.115 -0.4074 -1.0693 -1.9971
 3562TIP3    H232178   2.944   1.609   1.153  1.5257  0.9778  1.9622
 3563TIP3   OH232179   2.169   5.764   1.886 -0.1979  0.0247  0.1669
 3563TIP3    H132180   2.088   5.725   1.853 -0.7399  1.9340 -0.8359
 3563TIP3    H232181   2.163   5.756   1.981  0.5356 -3.9046 -0.0223
 3564TIP3   OH232182   4.603   1.419  16.564 -0.0411  0.0680 -0.6662
 3564TIP3    H132183   4.659   1.427  16.487 -0.0285  0.1605 -0.6491
 3564TIP3    H232184   4.643   1.478  16.628  0.2799 -0.4372 -0.3972
 3565TIP3   OH232185   5.928   1.695  16.235 -0.2205 -0.7673  0.5137
 3565TIP3    H132186   5.976   1.711  16.154  2.2342 -3.8815  1.2798
 3565TIP3    H232187   5.840   1.670  16.206 -0.1750  0.7492 -1.0258
 3566TIP3   OH232188   5.343   5.046   0.479  0.3621  0.0047  0.7542
 3566TIP3    H132189   5.328   5.071   0.570 -0.5640 -0.1839  0.6678
 3566TIP3    H232190   5.315   5.122   0.428 -2.5650 -1.1613  0.4873
 3567TIP3   OH232191   5.263   1.630   5.160  0.4613  0.3222 -0.2188
 3567TIP3    H132192   5.245   1.551   5.212  0.5526 -0.5356 -1.4699
 3567TIP3    H232193   5.181   1.679   5.162 -0.8628 -1.6964 -2.6585
 3568TIP3   OH232194   2.654   5.054   6.094 -0.5928 -0.0255 -0.2730
 3568TIP3    H132195   2.677   5.129   6.148 -1.1230  1.1182 -1.6166
 3568TIP3    H232196   2.594   5.003   6.148  0.4329  0.0563  0.9657
 3569TIP3   OH232197   4.619   2.185   6.641  0.4023 -0.0628 -0.0731
 3569TIP3    H132198   4.631   2.265   6.589 -1.9134 -1.0897 -2.2968
 3569TIP3    H232199   4.575   2.215   6.720  2.7190  1.3202  0.7701
 3570TIP3   OH232200   0.623   3.505  15.887 -0.7474  0.1750 -0.5675
 3570TIP3    H132201   0.592   3.520  15.797 -1.0188  0.3886 -0.4379
 3570TIP3    H232202   0.697   3.565  15.897 -1.9772  1.6373  0.0305
 3571TIP3   OH232203   2.541   4.377  12.880 -0.4352 -0.0916  0.3724
 3571TIP3    H132204   2.514   4.453  12.828  1.6888 -0.9632 -2.1023
 3571TIP3    H232205   2.636   4.383  12.884 -0.4480 -0.8043  3.0845
 3572TIP3   OH232206   6.030   2.994  12.953 -0.2142  0.0827 -0.7796
 3572TIP3    H132207   6.082   3.060  12.907 -1.4415  1.4167 -0.2876
 3572TIP3    H232208   5.983   3.043  13.020  0.9890 -1.7346  1.4500
 3573TIP3   OH232209   5.277   3.417   1.254 -0.4094  0.2963 -0.0451
 3573TIP3    H132210   5.335   3.402   1.179 -0.5735  0.2743 -0.1687
 3573TIP3    H232211   5.191   3.430   1.215 -0.1059  2.6324 -0.0330
 3574TIP3   OH232212   1.019   1.099   1.191  0.5070 -0.1196 -0.3252
 3574TIP3    H132213   1.076   1.088   1.267 -0.3830  1.5475  0.6075
 3574TIP3    H232214   0.964   1.021   1.190 -0.0183  0.2139  1.2271
 3575TIP3   OH232215   4.971   1.131   0.772 -0.2937  0.1154  0.3375
 3575TIP3    H132216   5.039   1.198   0.780  0.1825 -0.3214 -0.0038
 3575TIP3    H232217   4.889   1.179   0.781  0.0619  0.6074  1.0426
 3576TIP3   OH232218   4.343   4.812   5.757 -0.0315  0.3318 -0.0032
 3576TIP3    H132219   4.401   4.743   5.727  2.0452  1.6072  0.9928
 3576TIP3    H232220   4.256   4.772   5.758  0.8965 -1.7475 -1.0144
 3577TIP3   OH232221   5.881   3.167   0.215  0.3208 -0.5185 -0.1384
 3577TIP3    H132222   5.891   3.077   0.183  2.8360 -1.3360  2.6463
 3577TIP3    H232223   5.968   3.205   0.207  0.4108  0.0912  3.0531
 3578TIP3   OH232224   4.816   2.556  13.963 -0.0916 -0.2294 -0.1070
 3578TIP3    H132225   4.890   2.597  13.917 -1.1698  0.4801 -1.2298
 3578TIP3    H232226   4.772   2.629  14.007  1.0299 -0.9192  2.2486
 3579TIP3   OH232227   4.546   2.578   3.478  0.0793 -0.4295  0.2722
 3579TIP3    H132228   4.473   2.606   3.535  0.5410  0.1469  0.5893
 3579TIP3    H232229   4.562   2.653   3.421 -0.3749 -1.0065 -0.6209
 3580TIP3   OH232230   2.377   2.850   6.316 -0.2632 -0.1587  1.2253
 3580TIP3    H132231   2.440   2.896   6.371  0.8508 -0.3837  0.1531
 3580TIP3    H232232   2.291   2.882   6.345  0.4899  2.5172  0.5362
 3581TIP3   OH232233   3.752   0.521   4.438  0.2868  0.0605 -0.3433
 3581TIP3    H132234   3.767   0.527   4.344  1.8563 -0.5134 -0.1335
 3581TIP3    H232235   3.838   0.535   4.478  0.2740 -3.0504  0.8866
 3582TIP3   OH232236   3.725   1.753  14.923 -0.7147 -0.5362  0.2016
 3582TIP3    H132237   3.634   1.740  14.948 -1.3480  0.1586 -1.6464
 3582TIP3    H232238   3.728   1.841  14.887  0.8184 -0.3394  0.7518
 3583TIP3   OH232239   4.489   2.446  12.785 -0.3540 -0.3559 -1.4054
 3583TIP3    H132240   4.493   2.468  12.692 -2.6573 -1.4174 -1.7960
 3583TIP3    H232241   4.438   2.517  12.825 -0.3936 -0.5092 -1.1771
 3584TIP3   OH232242   0.891   4.173   1.793 -0.5162  0.1606 -0.5384
 3584TIP3    H132243   0.970   4.153   1.742  0.1564 -0.2228  0.6428
 3584TIP3    H232244   0.874   4.266   1.776  1.4437  0.8004  0.8987
 3585TIP3   OH232245   1.584   1.738   6.819 -0.0875 -0.9384 -0.1565
 3585TIP3    H132246   1.568   1.815   6.765  0.4543 -1.1438 -0.6236
 3585TIP3    H232247   1.505   1.686   6.810 -0.7096 -0.1402  0.6756
 3586TIP3   OH232248   2.585   6.107  12.438  0.3793  0.4491 -0.1298
 3586TIP3    H132249   2.513   6.133  12.495  0.5070  1.5500 -0.4684
 3586TIP3    H232250   2.563   6.018  12.412 -0.0794  0.2141  1.0009
 3587TIP3   OH232251   4.933   3.375  12.836  0.7553  0.3241 -0.9581
 3587TIP3    H132252   4.947   3.468  12.823  1.8013  0.3183  0.0559
 3587TIP3    H232253   5.020   3.338  12.849  0.2363 -0.5033  0.3914
 3588TIP3   OH232254   4.302   6.481   0.912  0.4225  0.4838  0.5372
 3588TIP3    H132255   4.319   6.402   0.963 -0.4698  1.0501  1.7226
 3588TIP3    H232256   4.379   6.536   0.925  1.9560 -1.0059 -1.9094
 3589TIP3   OH232257   6.069   5.425  15.606 -0.1975  0.2346  0.1224
 3589TIP3    H132258   5.981   5.411  15.572 -1.1800  2.3067  1.6900
 3589TIP3    H232259   6.071   5.375  15.688 -0.0062  0.3914  0.2128
 3590TIP3   OH232260   5.698   2.087  15.726 -0.4068  0.3752 -0.3047
 3590TIP3    H132261   5.666   1.997  15.723  0.5727  0.0522 -1.4266
 3590TIP3    H232262   5.749   2.092  15.807 -0.8451  0.0548 -0.0089
 3591TIP3   OH232263   0.479   4.073   3.191  0.3838 -0.2853  0.5082
 3591TIP3    H132264   0.482   4.155   3.142  1.5013 -1.2036 -0.9727
 3591TIP3    H232265   0.505   4.006   3.128 -0.4409 -1.7774  1.7279
 3592TIP3   OH232266   3.858   0.383  14.542  0.8563  0.2617 -0.2766
 3592TIP3    H132267   3.811   0.403  14.460  0.9455  0.0857 -0.3718
 3592TIP3    H232268   3.923   0.318  14.517  0.5573 -0.1587  0.0339
 3593TIP3   OH232269   1.757   1.483  10.424  0.2592  0.1993  0.0236
 3593TIP3    H132270   1.697   1.530  10.483 -1.7735  0.3398 -2.0789
 3593TIP3    H232271   1.711   1.402  10.403  1.1623 -0.0657 -0.9643
 3594TIP3   OH232272   6.216   4.085  12.866 -0.4477  0.3710 -0.2803
 3594TIP3    H132273   6.266   4.153  12.821 -1.6871  2.8531  1.9872
 3594TIP3    H232274   6.129   4.091  12.829 -0.4586 -0.2610 -0.3614
 3595TIP3   OH232275   6.812   1.010   2.175 -0.5928  0.0326  0.2338
 3595TIP3    H132276   6.786   1.097   2.146 -0.5582  0.7288  2.2565
 3595TIP3    H232277   6.872   0.979   2.106 -1.5819  1.0642 -1.1269
 3596TIP3   OH232278   4.332   4.303   5.948 -0.4564 -0.3016 -0.1084
 3596TIP3    H132279   4.404   4.271   6.002 -1.1083 -0.5445  0.6145
 3596TIP3    H232280   4.296   4.377   5.996 -0.8707 -0.3559 -0.3307
 3597TIP3   OH232281   5.278   0.326   4.670  0.3626 -0.4095  0.0523
 3597TIP3    H132282   5.277   0.324   4.574 -1.3414 -1.1865  0.0633
 3597TIP3    H232283   5.198   0.373   4.694  0.2929 -1.0539  1.1137
 3598TIP3   OH232284   4.164   2.978  16.834  0.0260 -0.5799 -0.0879
 3598TIP3    H132285   4.135   3.061  16.795 -0.0284 -0.5185  0.0828
 3598TIP3    H232286   4.093   2.917  16.814 -0.5367 -0.2622  0.9240
 3599TIP3   OH232287   5.988   0.257  12.338  0.5014 -0.1875  0.3488
 3599TIP3    H132288   5.993   0.227  12.247 -0.8403  1.9618 -0.4703
 3599TIP3    H232289   5.902   0.228  12.368  0.9137 -0.8288  0.9274
 3600TIP3   OH232290   0.050   5.115   2.638 -0.3516 -0.5630 -0.0251
 3600TIP3    H132291   0.102   5.170   2.696  0.5941 -0.5177 -0.8990
 3600TIP3    H232292   0.034   5.035   2.688  2.2346 -1.3836 -0.4368
 3601TIP3   OH232293   5.718   2.706   5.402 -0.0392 -0.1430  0.0065
 3601TIP3    H132294   5.760   2.641   5.457  1.2828 -0.4952 -1.3831
 3601TIP3    H232295   5.721   2.787   5.452  0.9040 -0.5190  0.5483
 3602TIP3   OH232296   3.380   5.247   3.329  0.3274  0.7505  0.3129
 3602TIP3    H132297   3.349   5.335   3.308 -1.7064  0.2000  0.9349
 3602TIP3    H232298   3.430   5.220   3.252 -1.2900  1.4069 -0.9965
 3603TIP3   OH232299   5.749   6.585   4.743 -0.0634 -0.0622  0.0727
 3603TIP3    H132300   5.672   6.630   4.777 -0.4931 -1.8204  1.4655
 3603TIP3    H232301   5.814   6.655   4.730 -0.9934  1.0641  1.4336
 3604TIP3   OH232302   6.546   5.306  12.136  0.3431 -0.1440 -0.1424
 3604TIP3    H132303   6.549   5.401  12.130 -2.4514 -0.0913 -1.4439
 3604TIP3    H232304   6.591   5.275  12.057 -0.2314  0.1243 -0.5771
 3605TIP3   OH232305   0.445   4.339   0.751 -0.1460  0.0910  0.3176
 3605TIP3    H132306   0.394   4.260   0.769 -0.5918 -0.1213 -1.7440
 3605TIP3    H232307   0.515   4.310   0.692 -0.2833  1.2045 -0.4109
 3606TIP3   OH232308   2.357   0.268  12.038 -0.4404  0.0396 -0.0357
 3606TIP3    H132309   2.369   0.361  12.021 -0.6410 -0.2728 -2.0539
 3606TIP3    H232310   2.444   0.235  12.059 -0.4181  0.7354  0.9624
 3607TIP3   OH232311   2.802   4.969   5.539 -0.2083 -0.1843  0.9971
 3607TIP3    H132312   2.820   5.044   5.484  0.2591 -0.8318  0.2570
 3607TIP3    H232313   2.866   4.974   5.610  1.7665 -1.4849 -0.6386
 3608TIP3   OH232314   0.004   0.569  16.816 -0.2383 -0.1282 -0.0463
 3608TIP3    H132315   0.009   0.582  16.910  0.3933 -1.7220  0.1493
 3608TIP3    H232316  -0.059   0.635  16.786 -1.8280 -0.7914  1.7184
 3609TIP3   OH232317   0.324   5.756  11.580  0.0409  0.1890 -0.5166
 3609TIP3    H132318   0.404   5.717  11.546 -0.3727  0.7260 -2.1778
 3609TIP3    H232319   0.279   5.789  11.502 -2.5112 -1.4241  0.2011
 3610TIP3   OH232320   1.266   2.622   0.589 -0.4661  0.9007  0.5558
 3610TIP3    H132321   1.250   2.618   0.684 -2.7033 -0.0376  0.1923
 3610TIP3    H232322   1.277   2.715   0.571  0.5648  1.0411  1.8248
 3611TIP3   OH232323   4.162   6.781  10.979  0.0890  0.6267  0.4135
 3611TIP3    H132324   4.182   6.835  10.903 -1.1891  0.2315 -0.2268
 3611TIP3    H232325   4.244   6.737  11.001  0.0621 -0.6028 -1.8371
 3612TIP3   OH232326   1.049   0.014   0.008  0.4860 -0.2009 -0.0647
 3612TIP3    H132327   1.098   0.019   0.090  0.4700  2.1531 -0.1420
 3612TIP3    H232328   1.106  -0.033  -0.052  1.5178  0.1699  0.6110
 3613TIP3   OH232329   1.665   0.386  16.995 -0.2549 -0.5261 -0.4102
 3613TIP3    H132330   1.699   0.361  17.081  0.2079 -0.1932 -0.5016
 3613TIP3    H232331   1.597   0.450  17.015  1.9715  1.9138 -0.4513
 3614TIP3   OH232332   5.623   2.986   3.996  0.9200  0.1045 -0.2487
 3614TIP3    H132333   5.611   2.958   4.087  1.5526  0.4030 -0.0688
 3614TIP3    H232334   5.674   2.916   3.956  0.8365  0.0818 -0.3158
 3615TIP3   OH232335   2.739   3.116   5.233  0.5919  0.1338 -0.4985
 3615TIP3    H132336   2.710   3.085   5.147 -0.3381 -0.6201  0.0805
 3615TIP3    H232337   2.790   3.044   5.269 -1.3517 -0.6567  0.7370
 3616TIP3   OH232338   4.930   5.757  13.404  0.1511  0.0518 -0.5266
 3616TIP3    H132339   4.954   5.835  13.454  1.7442 -0.4311 -0.5023
 3616TIP3    H232340   4.852   5.783  13.354 -0.1586  1.2126  0.5353
 3617TIP3   OH232341   1.049   3.824   1.537  0.3657 -0.2955  0.0959
 3617TIP3    H132342   1.074   3.759   1.602  0.3014  0.0245  0.4403
 3617TIP3    H232343   1.083   3.907   1.571 -0.4528  0.0160  0.1694
 3618TIP3   OH232344   3.502   6.125  13.006  0.2727  0.4037 -0.7171
 3618TIP3    H132345   3.521   6.127  12.912 -0.5447 -0.9203 -0.9200
 3618TIP3    H232346   3.410   6.100  13.012  0.2129  0.8506  0.4347
 3619TIP3   OH232347   4.333   3.317  15.954  0.7139 -0.4133 -0.0373
 3619TIP3    H132348   4.261   3.336  16.015  1.1310 -0.1423  0.3729
 3619TIP3    H232349   4.295   3.256  15.891  0.9352 -2.5431  1.8440
 3620TIP3   OH232350   0.481   0.624  12.427 -0.2523 -0.2497  0.6658
 3620TIP3    H132351   0.552   0.619  12.490 -1.0056  1.0817  1.6345
 3620TIP3    H232352   0.410   0.574  12.467 -1.0561  1.3892  1.3411
 3621TIP3   OH232353   5.675   6.167  15.630 -0.4194  0.1881 -0.1148
 3621TIP3    H132354   5.769   6.180  15.619 -0.1813 -0.4719  1.0589
 3621TIP3    H232355   5.653   6.214  15.710 -0.5486 -1.9285  1.1504
 3622TIP3   OH232356   6.174   0.362   5.880 -0.0441 -0.3421 -0.1296
 3622TIP3    H132357   6.097   0.338   5.932 -0.3740  0.4566 -0.2377
 3622TIP3    H232358   6.249   0.333   5.932 -0.3997 -0.3399  0.3842
 3623TIP3   OH232359   6.189   3.883   5.932 -0.0908 -0.0954  0.2339
 3623TIP3    H132360   6.147   3.863   6.015 -0.6800  0.1291 -0.0046
 3623TIP3    H232361   6.253   3.813   5.919  0.3542  0.1378  1.1102
 3624TIP3   OH232362   0.618   1.991   2.881 -0.0356  0.2553 -0.3241
 3624TIP3    H132363   0.628   2.020   2.790 -1.4366 -0.2265 -0.6443
 3624TIP3    H232364   0.544   1.930   2.878  1.2274 -1.3547  0.7828
 3625TIP3   OH232365   6.817   3.897  16.019  0.5879 -0.1054  0.0090
 3625TIP3    H132366   6.798   3.908  16.113 -0.2112  0.3012 -0.1958
 3625TIP3    H232367   6.793   3.981  15.980  0.0067 -0.6089 -0.7099
 3626TIP3   OH232368   2.935   0.875  16.751  1.0389 -0.5458  0.0742
 3626TIP3    H132369   2.864   0.811  16.756  1.4812 -1.1079 -0.7368
 3626TIP3    H232370   2.984   0.864  16.832  0.6964 -0.7349  0.2566
 3627TIP3   OH232371   2.150   4.318   5.876 -0.2815  0.0116 -0.3146
 3627TIP3    H132372   2.087   4.356   5.938  0.2707 -1.2158  1.0224
 3627TIP3    H232373   2.178   4.237   5.917  4.2264  1.7763  0.4265
 3628TIP3   OH232374   5.505   5.349  16.958 -0.3321 -0.0385 -0.0824
 3628TIP3    H132375   5.413   5.337  16.982 -1.1706  1.4280 -2.4078
 3628TIP3    H232376   5.519   5.443  16.965  0.0907  0.1318 -2.7759
 3629TIP3   OH232377   3.053   3.248  16.676 -0.2084 -0.6053 -0.2187
 3629TIP3    H132378   3.056   3.229  16.770 -0.5906 -2.0079 -0.4844
 3629TIP3    H232379   3.142   3.274  16.654 -0.4094  1.0040  0.7863
 3630TIP3   OH232380   6.617   2.923   5.016  0.1791  0.0522 -0.2804
 3630TIP3    H132381   6.697   2.955   4.975  0.7930  0.2411  1.0376
 3630TIP3    H232382   6.634   2.830   5.032 -1.5523 -0.9619 -3.9901
 3631TIP3   OH232383   3.823   3.644   2.336 -0.0113  0.0018  0.6767
 3631TIP3    H132384   3.862   3.609   2.256 -0.2125  0.6755  0.2851
 3631TIP3    H232385   3.731   3.657   2.314  0.3393  2.0920  0.3757
 3632TIP3   OH232386   2.934   0.591   4.861 -0.1968 -0.1785  0.1018
 3632TIP3    H132387   2.858   0.588   4.802  0.7947 -0.2571 -1.1833
 3632TIP3    H232388   2.990   0.659   4.825  0.1466  0.1854  1.3067
 3633TIP3   OH232389   1.001   1.112   4.432  0.0751  0.1478  0.5079
 3633TIP3    H132390   0.976   1.044   4.495  0.6235 -1.8254 -1.3683
 3633TIP3    H232391   0.961   1.085   4.350 -0.0240  2.3255 -0.1896
 3634TIP3   OH232392   4.282   1.295   4.591  0.1867 -0.7126  0.0126
 3634TIP3    H132393   4.311   1.327   4.506  0.3051  1.2166  0.7457
 3634TIP3    H232394   4.197   1.336   4.605 -0.5706 -2.2701  0.1562
 3635TIP3   OH232395   1.447   6.069   4.281  0.2125 -0.2803  0.2515
 3635TIP3    H132396   1.418   6.012   4.352 -0.6921 -0.7379 -0.4666
 3635TIP3    H232397   1.481   6.147   4.324 -0.8265 -0.3255  1.1601
 3636TIP3   OH232398   0.815   4.581  13.774 -0.2043  0.1172  0.1647
 3636TIP3    H132399   0.723   4.582  13.800 -0.1188 -2.3671  0.7183
 3636TIP3    H232400   0.845   4.493  13.796  2.1777  0.7268 -0.4863
 3637TIP3   OH232401   4.473   2.015   3.316  0.1888 -0.3395  0.7626
 3637TIP3    H132402   4.445   2.104   3.337 -0.1294 -0.3877  0.5488
 3637TIP3    H232403   4.443   1.962   3.390  1.0931 -0.1409  1.2794
 3638TIP3   OH232404   1.222   5.392   4.328  0.0305  0.4876  0.3721
 3638TIP3    H132405   1.240   5.472   4.378 -0.5430  2.0689 -1.8736
 3638TIP3    H232406   1.130   5.400   4.302  0.2814 -0.3549 -0.8028
 3639TIP3   OH232407   1.901   5.645  12.529 -0.7317 -0.0948 -0.3507
 3639TIP3    H132408   1.976   5.623  12.473 -1.5485 -0.2613 -1.3991
 3639TIP3    H232409   1.853   5.563  12.539 -1.0940  0.1379 -0.1648
 3640TIP3   OH232410   3.132   6.562  16.533 -0.0130 -0.4203 -0.1495
 3640TIP3    H132411   3.215   6.529  16.567  0.0749  0.6582  0.6887
 3640TIP3    H232412   3.122   6.517  16.449 -0.0069 -2.7307  1.0465
 3641TIP3   OH232413   4.105   2.550  17.052  0.7554  0.0762 -0.0950
 3641TIP3    H132414   4.185   2.599  17.032 -0.8122  3.1947  0.9916
 3641TIP3    H232415   4.053   2.555  16.972 -0.0681  1.5882  0.5134
 3642TIP3   OH232416   2.924   3.719   5.533  0.3069 -0.4752  0.2241
 3642TIP3    H132417   2.949   3.654   5.468 -1.4147  0.2810 -1.2140
 3642TIP3    H232418   2.932   3.673   5.617 -0.8857 -2.5448 -0.7634
 3643TIP3   OH232419   5.603   0.549   1.648 -0.5001 -0.2270  0.2148
 3643TIP3    H132420   5.665   0.618   1.624 -2.5981  1.3576 -0.8380
 3643TIP3    H232421   5.641   0.508   1.726 -0.2996  3.6623  2.2861
 3644TIP3   OH232422   2.586   2.195   4.782  0.0274 -0.1331 -0.1112
 3644TIP3    H132423   2.656   2.250   4.747 -0.0323 -0.3448 -0.5651
 3644TIP3    H232424   2.509   2.252   4.784  0.2718  0.1864  0.6593
 3645TIP3   OH232425   5.104   2.939  12.616  0.5603 -0.1441  0.2532
 3645TIP3    H132426   5.184   2.887  12.604  0.1087 -0.7436 -0.1914
 3645TIP3    H232427   5.108   3.005  12.547 -0.1381 -1.2011 -0.8144
 3646TIP3   OH232428   2.370   1.901  12.197 -0.0488  0.2543 -0.8412
 3646TIP3    H132429   2.307   1.968  12.173 -0.7236 -0.8862 -2.3034
 3646TIP3    H232430   2.327   1.818  12.177  1.4152 -0.5812 -0.6674
 3647TIP3   OH232431   4.859   5.447   4.465  0.4202 -0.2173  0.0860
 3647TIP3    H132432   4.834   5.490   4.547  0.5891  0.5782 -0.2713
 3647TIP3    H232433   4.954   5.456   4.462  0.1562  2.6570 -1.7509
 3648TIP3   OH232434   1.156   1.427   4.724 -0.2228  0.4708 -0.0150
 3648TIP3    H132435   1.220   1.355   4.726 -2.4945 -1.6297 -0.0611
 3648TIP3    H232436   1.130   1.438   4.816 -1.7580 -0.5666 -0.2985
 3649TIP3   OH232437   5.227   4.451   6.429 -0.2840 -0.4333  0.7993
 3649TIP3    H132438   5.295   4.464   6.495 -1.0946 -0.9333  1.7495
 3649TIP3    H232439   5.251   4.509   6.357  0.1912  0.6996  1.8626
 3650TIP3   OH232440   5.987   2.636   4.939 -0.2385  0.1254  0.1371
 3650TIP3    H132441   5.972   2.730   4.951  0.4674 -0.0542  2.6242
 3650TIP3    H232442   5.972   2.598   5.025  1.1027 -1.8374 -0.4611
 3651TIP3   OH232443   6.133   0.208   4.478  0.7531 -0.4135  0.2805
 3651TIP3    H132444   6.121   0.263   4.400  1.6770 -0.2481  0.2552
 3651TIP3    H232445   6.055   0.226   4.531  0.6942  0.3837 -0.0606
 3652TIP3   OH232446   1.044   3.413   2.958 -0.3546 -0.3901  1.0577
 3652TIP3    H132447   0.992   3.386   3.034 -1.0782 -1.0578  0.3288
 3652TIP3    H232448   1.001   3.372   2.883 -0.6699  1.6915  0.0716
 3653TIP3   OH232449   4.569   3.650  14.709 -0.0449 -0.0554  0.1369
 3653TIP3    H132450   4.529   3.683  14.628 -1.2621 -1.3052  0.2077
 3653TIP3    H232451   4.663   3.660  14.696 -0.1326 -1.8107 -2.1495
 3654TIP3   OH232452   6.635   0.520   1.465 -0.1747 -0.6337  0.2167
 3654TIP3    H132453   6.721   0.496   1.431  0.2167 -0.8140  1.3107
 3654TIP3    H232454   6.582   0.538   1.387  0.8463 -0.5329 -0.4582
 3655TIP3   OH232455   4.392   2.237   3.925  0.6149 -0.1599  0.4091
 3655TIP3    H132456   4.439   2.227   4.008  2.1862  0.9920 -0.3151
 3655TIP3    H232457   4.428   2.316   3.886  0.1633 -0.8787 -1.5472
 3656TIP3   OH232458   1.827   0.586   1.434 -0.0444 -0.3702  0.5271
 3656TIP3    H132459   1.889   0.658   1.423 -0.6930 -0.0371 -1.1889
 3656TIP3    H232460   1.750   0.626   1.473 -0.7826  0.0952 -1.3551
 3657TIP3   OH232461   3.381   5.609   1.958 -0.3782 -0.6067  0.1067
 3657TIP3    H132462   3.467   5.628   1.995 -1.0306 -0.8017  1.7465
 3657TIP3    H232463   3.342   5.695   1.943  0.0210 -0.5211 -0.4838
 3658TIP3   OH232464   2.731   1.006  15.741  1.0288  0.0327  0.2310
 3658TIP3    H132465   2.806   0.962  15.781 -0.8059 -1.9385  1.6269
 3658TIP3    H232466   2.679   1.037  15.815  0.1961  0.9193 -0.7072
 3659TIP3   OH232467   4.212   1.707   3.647  0.2313  0.3638  0.4537
 3659TIP3    H132468   4.160   1.782   3.621  0.5813  0.2855 -0.5126
 3659TIP3    H232469   4.177   1.680   3.732  0.0247  1.5321  0.7384
 3660TIP3   OH232470   6.680   3.652   4.026 -0.6795  0.3853  0.3397
 3660TIP3    H132471   6.684   3.637   3.931  2.8573 -0.3743  0.5448
 3660TIP3    H232472   6.676   3.747   4.035 -0.7967  0.4706 -0.5558
 3661TIP3   OH232473   0.080   4.405   2.606 -0.8289  0.2837  0.0766
 3661TIP3    H132474   0.087   4.351   2.685 -0.7475  0.8202  0.4444
 3661TIP3    H232475   0.029   4.481   2.634 -2.5348 -0.4893 -0.9227
 3662TIP3   OH232476   0.387   3.410   5.973  0.0659  0.1874  0.2633
 3662TIP3    H132477   0.325   3.366   6.031 -0.8972  0.4317 -0.5593
 3662TIP3    H232478   0.425   3.339   5.921 -0.3942  0.1619 -0.0410
 3663TIP3   OH232479   0.164   6.193   5.405 -0.3689  0.0021 -0.3330
 3663TIP3    H132480   0.115   6.111   5.416  0.2573 -0.2518  0.6513
 3663TIP3    H232481   0.154   6.214   5.312  0.2611 -1.7308 -0.8357
 3664TIP3   OH232482   0.586   0.415   3.233 -0.2153  0.1018  0.2232
 3664TIP3    H132483   0.630   0.450   3.156  0.1160 -0.5062  0.1315
 3664TIP3    H232484   0.656   0.398   3.296 -0.4904  0.6592  0.6874
 3665TIP3   OH232485   6.792   1.480  16.260 -0.1810 -0.4149  0.3265
 3665TIP3    H132486   6.867   1.455  16.206  0.2871 -1.3361  1.3841
 3665TIP3    H232487   6.785   1.575  16.249  0.6965 -0.4217 -0.3356
 3666TIP3   OH232488   2.042   6.266   0.761 -0.4268  0.0819 -0.3128
 3666TIP3    H132489   2.061   6.191   0.817  1.0741 -0.0748 -1.0154
 3666TIP3    H232490   2.065   6.342   0.815 -1.3909  0.0318  0.1855
 3667TIP3   OH232491   3.658   4.608  11.684 -0.0478  0.1032  0.0972
 3667TIP3    H132492   3.701   4.688  11.715  1.4328 -0.2163 -1.0110
 3667TIP3    H232493   3.664   4.615  11.588 -0.1098 -1.2167 -0.0033
 3668TIP3   OH232494   6.183   1.979  17.032 -0.7639  0.3147 -0.4646
 3668TIP3    H132495   6.221   1.991  16.945 -0.6070 -1.7518 -0.7082
 3668TIP3    H232496   6.243   1.919  17.076  0.5600  3.3286  2.0103
 3669TIP3   OH232497   4.785   2.058  14.137  0.0283  0.6500  0.2200
 3669TIP3    H132498   4.859   2.044  14.196  0.3990  0.6387 -0.2352
 3669TIP3    H232499   4.821   2.115  14.069  0.1519 -0.8426 -1.0042
 3670TIP3   OH232500   2.658   4.845   5.185  0.4809  0.4555 -0.3877
 3670TIP3    H132501   2.584   4.855   5.245 -1.3313 -2.7134 -1.9570
 3670TIP3    H232502   2.733   4.830   5.242 -0.2532  2.6186  1.2094
 3671TIP3   OH232503   5.863   5.284  10.964  0.0442 -0.0238  0.5660
 3671TIP3    H132504   5.947   5.327  10.979 -1.0849  2.7308 -0.5853
 3671TIP3    H232505   5.872   5.243  10.878  0.1433  0.4679  0.3399
 3672TIP3   OH232506   2.894   4.104  14.579 -0.8683 -0.7871  0.1084
 3672TIP3    H132507   2.886   4.023  14.528 -1.1800 -0.6422 -0.0768
 3672TIP3    H232508   2.807   4.144  14.572 -0.5206 -0.1063 -0.3603
 3673TIP3   OH232509   3.649   6.408  16.901 -0.1282 -0.7168 -0.0739
 3673TIP3    H132510   3.656   6.449  16.987  1.6758  0.7207 -0.8654
 3673TIP3    H232511   3.569   6.444  16.864  0.5450  0.7973 -0.0837
 3674TIP3   OH232512   3.484   3.243  15.854 -0.4438 -0.0664  0.2490
 3674TIP3    H132513   3.475   3.151  15.877  0.6005 -0.4770 -0.9292
 3674TIP3    H232514   3.578   3.260  15.858 -0.5244  0.6392 -0.6757
 3675TIP3   OH232515   1.850   6.230  15.296  0.4129 -0.5122  0.6237
 3675TIP3    H132516   1.840   6.323  15.317  0.5704  0.2073 -2.2870
 3675TIP3    H232517   1.766   6.191  15.321 -0.9955  1.0966 -1.4809
 3676TIP3   OH232518   0.037   2.974  16.702 -0.1889  0.3506 -0.1922
 3676TIP3    H132519   0.070   3.002  16.616  3.5788  0.2921  1.1247
 3676TIP3    H232520   0.054   2.880  16.704  0.4198  0.4821  0.8890
 3677TIP3   OH232521   5.504   5.954  16.713 -0.1949  0.0086  0.2434
 3677TIP3    H132522   5.566   5.980  16.645  0.0749 -1.2311 -0.0037
 3677TIP3    H232523   5.420   5.987  16.681  0.4891  2.7180  1.1583
 3678TIP3   OH232524   5.871   6.500  16.497 -0.1969  0.1043  0.0539
 3678TIP3    H132525   5.893   6.490  16.405 -1.5562 -1.3676 -0.1386
 3678TIP3    H232526   5.883   6.593  16.515  0.5300  0.3237 -1.4689
 3679TIP3   OH232527   2.206   5.070  14.703 -0.7514  0.1564  0.2926
 3679TIP3    H132528   2.267   5.131  14.661 -0.7926 -0.7667 -1.1654
 3679TIP3    H232529   2.250   5.042  14.783  0.6639 -0.3494 -0.6515
 3680TIP3   OH232530   5.011   6.061   5.399 -0.1101 -0.7987 -0.0428
 3680TIP3    H132531   4.944   6.063   5.467 -0.2798 -0.5025 -0.2186
 3680TIP3    H232532   5.094   6.050   5.447 -0.0836  0.8510  0.3147
 3681TIP3   OH232533   2.924   5.193  14.399  0.6683 -0.3602  0.4823
 3681TIP3    H132534   2.886   5.187  14.311  0.9305  0.3393  0.3189
 3681TIP3    H232535   2.957   5.106  14.417 -0.5612 -0.8515  0.4084
 3682TIP3   OH232536   2.944   0.439  16.231  0.2509 -0.1161  0.1730
 3682TIP3    H132537   3.020   0.383  16.214 -0.6154 -0.9910 -0.8659
 3682TIP3    H232538   2.977   0.505  16.292  1.7402 -0.7268  0.0623
 3683TIP3   OH232539   2.581   4.278  15.797  0.3851  0.1592  0.2368
 3683TIP3    H132540   2.660   4.329  15.818  0.0356  0.8449 -0.0955
 3683TIP3    H232541   2.614   4.191  15.776  0.7773 -0.4974  3.3549
 3684TIP3   OH232542   5.891   0.730  11.183  0.0229  0.2214  0.3727
 3684TIP3    H132543   5.805   0.687  11.184 -0.8967  1.7688 -2.9664
 3684TIP3    H232544   5.953   0.658  11.193 -1.6039 -1.3182 -0.2192
 3685TIP3   OH232545   1.446   1.329   3.541  0.6891 -0.2975  0.0632
 3685TIP3    H132546   1.411   1.386   3.473  1.8555 -1.2638 -1.3796
 3685TIP3    H232547   1.444   1.242   3.502  1.6758 -0.8152  1.1583
 3686TIP3   OH232548   0.006   4.325   0.967  0.6513  0.3422 -0.1684
 3686TIP3    H132549   0.059   4.312   1.045 -1.1247 -0.2081  0.9672
 3686TIP3    H232550   0.005   4.239   0.924 -0.4468 -0.0179  0.5506
 3687TIP3   OH232551   2.880   6.345   2.839  0.5025  0.0506 -0.2723
 3687TIP3    H132552   2.857   6.303   2.922  2.4227  1.0023  0.7779
 3687TIP3    H232553   2.925   6.276   2.790 -0.7457 -0.5517 -0.5791
 3688TIP3   OH232554   1.922   1.238  15.997 -0.1005  0.2149  0.2806
 3688TIP3    H132555   1.952   1.318  15.955 -1.8002  1.3798  1.1949
 3688TIP3    H232556   1.937   1.252  16.090  2.0642 -1.6473  0.2583
 3689TIP3   OH232557   0.161   0.875   5.471 -0.7326 -0.6504  0.0539
 3689TIP3    H132558   0.243   0.908   5.435 -1.3471 -0.4487 -1.1951
 3689TIP3    H232559   0.179   0.862   5.564  0.5108  0.0165 -0.0829
 3690TIP3   OH232560   3.879   2.997  17.137  0.1626 -0.4406 -0.3068
 3690TIP3    H132561   3.845   2.999  17.226  1.0560 -0.5002  0.0357
 3690TIP3    H232562   3.807   2.961  17.085  0.6825 -3.3066  0.8583
 3691TIP3   OH232563   2.297   4.528  13.250 -0.8848 -0.2615 -0.1963
 3691TIP3    H132564   2.290   4.500  13.159  1.9116 -1.4374 -0.1220
 3691TIP3    H232565   2.369   4.591  13.250  0.4892 -1.7565  1.4667
 3692TIP3   OH232566   0.520   4.394  11.947 -0.3846  0.3950 -0.1565
 3692TIP3    H132567   0.576   4.408  12.023  0.0389  0.6099 -0.5130
 3692TIP3    H232568   0.467   4.318  11.972  0.4891 -0.1966 -0.0660
 3693TIP3   OH232569   4.504   2.856   5.821 -0.2146  0.2934  0.0166
 3693TIP3    H132570   4.451   2.793   5.772 -1.1357 -1.2753  2.9075
 3693TIP3    H232571   4.458   2.939   5.810 -0.1454  0.0716 -2.1174
 3694TIP3   OH232572   5.684   2.085   1.981  0.5611 -0.3720  0.3654
 3694TIP3    H132573   5.753   2.023   1.958 -1.7678 -2.1101 -2.2888
 3694TIP3    H232574   5.715   2.169   1.949  0.5292 -1.5273 -2.8914
 3695TIP3   OH232575   4.442   4.337  11.447 -0.5653 -0.1868 -0.1733
 3695TIP3    H132576   4.473   4.405  11.388  0.9904  0.5306  1.4075
 3695TIP3    H232577   4.358   4.371  11.480 -1.8115 -0.9340 -2.4756
 3696TIP3   OH232578   2.176   0.298  15.211  0.4604 -0.4571  0.7440
 3696TIP3    H132579   2.258   0.335  15.177  0.0688 -0.6377 -0.4234
 3696TIP3    H232580   2.123   0.375  15.231 -0.0322 -0.3436 -0.8914
 3697TIP3   OH232581   5.691   1.467  15.977  0.1614  0.2187 -0.6119
 3697TIP3    H132582   5.775   1.426  15.960  0.6991  1.0080  0.0844
 3697TIP3    H232583   5.687   1.475  16.072 -1.9548 -2.3936 -0.4086
 3698TIP3   OH232584   5.048   5.756  11.996 -0.2056  0.0310  0.0948
 3698TIP3    H132585   4.998   5.745  11.915  0.7034  2.7270 -0.8942
 3698TIP3    H232586   5.020   5.683  12.051 -0.7866 -1.9326 -2.6497
 3699TIP3   OH232587   4.149   5.317   5.944 -0.1257  0.3211  0.4018
 3699TIP3    H132588   4.178   5.395   5.992 -0.1085  0.9110 -0.5346
 3699TIP3    H232589   4.059   5.302   5.975 -0.3654  1.1148  0.1119
 3700TIP3   OH232590   6.329   5.537   0.634 -0.0367 -0.5057  0.2131
 3700TIP3    H132591   6.339   5.555   0.540  2.1849  0.4674  0.6007
 3700TIP3    H232592   6.250   5.584   0.660 -0.1383 -0.0003 -0.9785
 3701TIP3   OH232593   2.896   6.730   3.502  0.9073 -0.3000 -0.3399
 3701TIP3    H132594   2.802   6.714   3.496  0.7855  0.2768 -0.0079
 3701TIP3    H232595   2.929   6.717   3.413  0.1956  1.4870 -0.8956
 3702TIP3   OH232596   4.076   2.591   3.082  0.6836 -0.3901 -0.1080
 3702TIP3    H132597   4.053   2.565   3.172 -1.9955  0.4776 -0.5112
 3702TIP3    H232598   4.118   2.676   3.092 -0.6673  0.2467  0.2349
 3703TIP3   OH232599   5.567   0.154  11.809  0.3346 -0.8322  0.0537
 3703TIP3    H132600   5.485   0.189  11.846 -0.1734 -2.2581  0.3122
 3703TIP3    H232601   5.580   0.071  11.855  2.2259 -0.3627  0.3980
 3704TIP3   OH232602   2.800   4.464  16.484 -0.3368  0.4755  0.1126
 3704TIP3    H132603   2.837   4.517  16.414 -1.7676  0.7165 -0.4871
 3704TIP3    H232604   2.736   4.521  16.527  0.2123  0.1901  1.3347
 3705TIP3   OH232605   4.043   6.798  16.621  0.6973  0.1255 -0.2279
 3705TIP3    H132606   4.112   6.851  16.663  1.1060 -0.0615 -0.6696
 3705TIP3    H232607   4.076   6.780  16.533  0.3310 -0.4421 -0.2497
 3706TIP3   OH232608   3.821   1.702  14.194  0.0257 -0.1897 -0.7619
 3706TIP3    H132609   3.844   1.611  14.176 -0.1736 -0.2332 -0.7998
 3706TIP3    H232610   3.904   1.749  14.190  0.1066 -0.3444 -0.8966
 3707TIP3   OH232611   0.713   0.793   2.665 -0.2398  0.7073 -0.4209
 3707TIP3    H132612   0.720   0.889   2.659 -1.0995  0.7146 -1.6170
 3707TIP3    H232613   0.724   0.763   2.575  1.1407 -0.4198  0.0962
 3708TIP3   OH232614   1.347   3.213  16.152 -0.0241 -0.6688 -1.0201
 3708TIP3    H132615   1.385   3.290  16.110  1.4151 -0.4105  0.7104
 3708TIP3    H232616   1.417   3.148  16.150  0.4549 -0.2848  1.9546
 3709TIP3   OH232617   5.528   0.233   4.624 -0.5207 -0.1513 -0.0711
 3709TIP3    H132618   5.555   0.311   4.575 -1.3490  0.6671  0.7520
 3709TIP3    H232619   5.446   0.258   4.666 -1.6507 -2.0295 -1.1205
 3710TIP3   OH232620   4.734   3.522  14.263 -0.0536  1.0196  0.0114
 3710TIP3    H132621   4.732   3.452  14.328 -2.0512  0.6599 -0.3749
 3710TIP3    H232622   4.826   3.542  14.251  0.3676  0.8094  2.6409
 3711TIP3   OH232623   0.933   2.576  15.509 -0.0590 -0.0214  0.1148
 3711TIP3    H132624   1.005   2.532  15.464  0.8624  0.1917  1.3635
 3711TIP3    H232625   0.854   2.549  15.461  0.6424 -1.8305 -0.0472
 3712TIP3   OH232626   5.929   3.971   5.021 -0.2651  0.0532 -0.2109
 3712TIP3    H132627   5.893   3.974   4.933  1.0205  0.7729 -0.7206
 3712TIP3    H232628   5.883   4.040   5.069 -0.7880 -0.1787 -0.3738
 3713TIP3   OH232629   0.341   0.459  11.470  0.2679 -0.6629  0.7215
 3713TIP3    H132630   0.274   0.479  11.406  0.6530 -0.9079  0.2385
 3713TIP3    H232631   0.303   0.389  11.524  0.2917 -1.0777  0.2003
 3714TIP3   OH232632   3.264   3.394  12.053  0.7774 -0.4005 -1.1076
 3714TIP3    H132633   3.340   3.341  12.078 -0.4033 -2.4520 -1.6971
 3714TIP3    H232634   3.207   3.333  12.007 -1.6802  0.8723  0.1520
 3715TIP3   OH232635   3.888   1.528  17.144  0.0144  0.6869 -0.1915
 3715TIP3    H132636   3.910   1.435  17.141 -3.2543 -0.1255 -0.8996
 3715TIP3    H232637   3.917   1.562  17.059  1.3962  0.4101  0.1462
 3716TIP3   OH232638   5.996   5.234  13.555  0.6384 -0.3662  0.3436
 3716TIP3    H132639   5.946   5.152  13.558  0.8431 -0.5470 -0.9550
 3716TIP3    H232640   5.945   5.290  13.496  1.4683 -0.2177 -0.2359
 3717TIP3   OH232641   3.350   0.672   2.784  0.2903 -0.2370 -0.0800
 3717TIP3    H132642   3.354   0.759   2.743  2.5231 -0.6603 -0.7951
 3717TIP3    H232643   3.435   0.660   2.825 -0.0037 -2.0716  0.0418
 3718TIP3   OH232644   2.883   6.371  17.093 -0.5357  0.3449 -0.4437
 3718TIP3    H132645   2.870   6.422  17.173 -0.8252 -1.3710  0.6299
 3718TIP3    H232646   2.806   6.390  17.040 -0.5414  1.1796 -0.1463
 3719TIP3   OH232647   6.439   2.115  12.861 -0.2002  0.4960 -0.2158
 3719TIP3    H132648   6.346   2.114  12.884  0.2570 -0.7311  1.6525
 3719TIP3    H232649   6.453   2.201  12.822 -2.4301  0.1816 -1.8482
 3720TIP3   OH232650   0.243   1.255  11.355 -0.2190 -0.3618 -0.1622
 3720TIP3    H132651   0.183   1.305  11.300  0.1068 -0.1484 -0.3264
 3720TIP3    H232652   0.225   1.285  11.444  1.1667  1.3264 -0.4223
 3721TIP3   OH232653   3.058   3.688   4.596  0.1059  0.0869  0.5703
 3721TIP3    H132654   3.059   3.783   4.581 -1.0403  0.0719  0.3678
 3721TIP3    H232655   3.111   3.676   4.675  2.7791  0.5641 -1.0762
 3722TIP3   OH232656   4.918   2.469   4.259  0.0443 -0.4238 -0.1973
 3722TIP3    H132657   4.928   2.425   4.175  2.7735  1.3109 -0.8490
 3722TIP3    H232658   4.912   2.399   4.323 -0.2019 -1.7415 -1.6395
 3723TIP3   OH232659   2.201   1.965   1.993 -0.6878 -0.1952 -0.0317
 3723TIP3    H132660   2.218   1.927   2.079  1.1656  0.1587 -0.2161
 3723TIP3    H232661   2.150   2.044   2.012  0.7323  0.5244  0.8481
 3724TIP3   OH232662   1.352   4.427   5.112  0.5898 -0.0321 -0.2257
 3724TIP3    H132663   1.289   4.489   5.076  0.1252 -0.3284  0.0672
 3724TIP3    H232664   1.338   4.346   5.062  0.6527 -0.1346 -0.0793
 3725TIP3   OH232665   4.960   0.808   4.627 -0.2956 -0.9216  0.1375
 3725TIP3    H132666   4.893   0.861   4.671 -1.1374 -0.6445 -1.4411
 3725TIP3    H232667   5.035   0.810   4.686 -1.0856  0.2291  1.1153
 3726TIP3   OH232668   4.701   1.422  11.579  0.3176 -0.0796 -0.6289
 3726TIP3    H132669   4.794   1.416  11.558  0.8896 -0.6925  1.9222
 3726TIP3    H232670   4.693   1.504  11.629 -0.3623 -0.4168 -0.1742
 3727TIP3   OH232671   2.234   6.196   3.498 -0.2046 -0.3292 -0.0509
 3727TIP3    H132672   2.226   6.136   3.424 -1.0425  1.5927 -1.5656
 3727TIP3    H232673   2.171   6.165   3.562 -1.9671  0.0044 -1.5891
 3728TIP3   OH232674   3.951   4.846   0.067 -0.2113  0.2168 -0.1093
 3728TIP3    H132675   3.947   4.878   0.157  2.5548 -0.7044  0.4051
 3728TIP3    H232676   3.883   4.778   0.062 -1.6662  1.5938  0.6985
 3729TIP3   OH232677   3.280   6.373  12.520 -0.4922  0.3386  0.3506
 3729TIP3    H132678   3.209   6.312  12.541  1.1516 -2.0821 -0.9425
 3729TIP3    H232679   3.343   6.361  12.591  0.3551 -0.3308 -0.5013
 3730TIP3   OH232680   1.315   4.239   5.379  0.2693  0.2230 -0.5025
 3730TIP3    H132681   1.387   4.281   5.427  1.0192 -0.0336 -1.4072
 3730TIP3    H232682   1.316   4.281   5.293 -0.4677 -0.0099 -0.6280
 3731TIP3   OH232683   1.359   6.627   0.082 -0.1621  0.7271  0.7288
 3731TIP3    H132684   1.405   6.543   0.082 -1.9071 -0.2472 -0.3922
 3731TIP3    H232685   1.395   6.673   0.158  0.5159 -1.1909  1.6126
 3732TIP3   OH232686   0.288   2.345  13.641  0.0381 -0.0310  0.6338
 3732TIP3    H132687   0.368   2.375  13.684 -0.7148  0.8825  1.4257
 3732TIP3    H232688   0.217   2.381  13.695 -0.9114 -3.2078  1.5720
 3733TIP3   OH232689   6.517   1.689  11.455  0.1880 -0.3238  0.0113
 3733TIP3    H132690   6.500   1.705  11.548 -0.2301 -2.0202  0.2470
 3733TIP3    H232691   6.439   1.641  11.425  0.5445 -0.2168 -1.0954
 3734TIP3   OH232692   3.249   5.268   2.461 -0.1277  0.0455 -0.0058
 3734TIP3    H132693   3.226   5.361   2.462 -0.1288  0.0573  1.7405
 3734TIP3    H232694   3.190   5.229   2.526  1.3895 -0.7787  0.9090
 3735TIP3   OH232695   2.227   4.888  12.632  0.5664  0.2911  0.1091
 3735TIP3    H132696   2.151   4.836  12.605 -0.4784  1.4713  0.6808
 3735TIP3    H232697   2.204   4.978  12.605  2.0192  0.5698 -0.2249
 3736TIP3   OH232698   2.465   6.554  16.851 -0.4731  0.8506 -0.4879
 3736TIP3    H132699   2.370   6.547  16.859 -0.6134  0.6002 -2.1697
 3736TIP3    H232700   2.478   6.621  16.784  0.5858  2.4640  1.2908
 3737TIP3   OH232701   1.441   0.749  12.794  0.0960 -0.3344 -0.0808
 3737TIP3    H132702   1.371   0.683  12.794 -0.2806  0.0540 -0.7250
 3737TIP3    H232703   1.439   0.785  12.705 -1.9942  2.9124  1.1762
 3738TIP3   OH232704   6.660   2.526   1.490  0.4063 -0.0282  0.4176
 3738TIP3    H132705   6.715   2.449   1.501 -0.9469 -0.9902  0.5756
 3738TIP3    H232706   6.625   2.519   1.402 -0.5228 -0.1381  0.7895
 3739TIP3   OH232707   1.497   0.139   4.827  0.2262  0.8408 -0.2878
 3739TIP3    H132708   1.527   0.143   4.917  0.8557  1.8911 -0.5361
 3739TIP3    H232709   1.478   0.230   4.804 -0.5887  0.5017 -0.9940
 3740TIP3   OH232710   1.243   0.247  16.815  0.1058 -0.2610  0.1302
 3740TIP3    H132711   1.171   0.307  16.832 -0.3948 -1.0320  0.7649
 3740TIP3    H232712   1.201   0.164  16.794  0.7636 -0.1754 -1.7220
 3741TIP3   OH232713   2.047   4.265  15.419 -0.0763  0.2736 -0.3996
 3741TIP3    H132714   2.093   4.193  15.375 -0.9816 -0.3513 -0.3267
 3741TIP3    H232715   2.103   4.288  15.493  1.2712  1.0617 -1.6182
 3742TIP3   OH232716   5.971   6.800  17.015  0.1906  0.0636 -0.4537
 3742TIP3    H132717   5.969   6.716  16.969  1.4838 -0.4645  0.3988
 3742TIP3    H232718   6.032   6.786  17.087 -1.0788  1.1647  0.8612
 3743TIP3   OH232719   5.933   5.107  14.486 -0.2789 -0.4908  0.0752
 3743TIP3    H132720   5.984   5.049  14.543 -0.0081  0.3569  0.7074
 3743TIP3    H232721   5.852   5.059  14.468 -0.3799 -0.7506  1.2073
 3744TIP3   OH232722   0.492   2.338   1.743  0.3136 -0.3263 -0.2873
 3744TIP3    H132723   0.441   2.258   1.734  0.0877 -0.1579 -0.5429
 3744TIP3    H232724   0.580   2.314   1.714 -0.0097 -0.2207 -1.3818
 3745TIP3   OH232725   5.092   2.133  16.817 -0.4218  0.0348 -0.3648
 3745TIP3    H132726   5.176   2.142  16.772 -0.0102  1.2054  0.5868
 3745TIP3    H232727   5.116   2.118  16.908 -1.2279  0.9510  0.0133
 3746TIP3   OH232728   5.623   4.366   6.025  0.1988  0.0760  0.0487
 3746TIP3    H132729   5.675   4.365   6.105  1.0417  0.4107 -0.4802
 3746TIP3    H232730   5.582   4.280   6.021  1.1155 -0.3831  0.2260
 3747TIP3   OH232731   4.353   4.834   5.073  0.3883 -0.1881  0.1011
 3747TIP3    H132732   4.258   4.834   5.083  0.4102  1.0324  0.4813
 3747TIP3    H232733   4.379   4.742   5.078 -0.7047 -0.4650  0.6557
 3748TIP3   OH232734   4.480   4.646   0.580 -0.8247  0.2911 -0.2128
 3748TIP3    H132735   4.493   4.714   0.646 -1.2195  0.5749 -0.4274
 3748TIP3    H232736   4.449   4.693   0.503 -0.3925 -0.0450 -0.5951
 3749TIP3   OH232737   5.587   1.553   5.198  0.2969 -0.6386  0.4029
 3749TIP3    H132738   5.508   1.579   5.150 -0.9601 -0.2529  2.5973
 3749TIP3    H232739   5.646   1.627   5.187 -0.6485  0.2042  0.8882
 3750TIP3   OH232740   4.388   0.551  15.910 -0.6139 -0.3395  0.2615
 3750TIP3    H132741   4.378   0.642  15.937  0.7288 -0.2614  0.5501
 3750TIP3    H232742   4.416   0.556  15.818 -0.4832 -0.4479  0.2946
 3751TIP3   OH232743   1.858   3.729   3.785  0.0325  0.1968  1.1893
 3751TIP3    H132744   1.858   3.680   3.703 -0.0025 -2.4828  2.7290
 3751TIP3    H232745   1.780   3.785   3.779 -0.9256 -1.2110  0.1061
 3752TIP3   OH232746   4.447   0.114   3.913 -0.8350 -0.0322  0.7681
 3752TIP3    H132747   4.476   0.047   3.975  1.7924  1.1046  0.8086
 3752TIP3    H232748   4.493   0.193   3.940 -2.6731  1.4392 -0.2779
 3753TIP3   OH232749   5.498   6.384   4.953  0.1117 -0.0881 -0.8234
 3753TIP3    H132750   5.441   6.342   5.017  0.0265 -1.1236 -1.5726
 3753TIP3    H232751   5.498   6.476   4.978 -0.0589 -0.4440  0.5675
 3754TIP3   OH232752   0.024   4.829  11.651  0.1121  0.2173  0.4359
 3754TIP3    H132753   0.033   4.915  11.610  0.6429  1.1230  2.3681
 3754TIP3    H232754   0.113   4.796  11.658 -0.0777 -0.4421 -0.1654
 3755TIP3   OH232755   4.707   3.028   5.418 -0.1732  0.4768  0.0324
 3755TIP3    H132756   4.795   3.055   5.445 -0.2551 -1.1144  2.0430
 3755TIP3    H232757   4.649   3.068   5.482 -0.6357 -0.9391  0.5250
 3756TIP3   OH232758   3.483   5.226  15.038 -0.1446  0.0122 -0.7592
 3756TIP3    H132759   3.438   5.158  14.987 -1.7405  0.8347 -0.4843
 3756TIP3    H232760   3.483   5.192  15.128 -0.4761  0.1377 -0.7110
 3757TIP3   OH232761   3.381   6.423   5.135 -0.7366 -0.3001  0.4772
 3757TIP3    H132762   3.376   6.510   5.173 -1.6634  0.7904 -2.0141
 3757TIP3    H232763   3.323   6.369   5.190 -1.5533  1.0625  0.9652
 3758TIP3   OH232764   3.879   0.411   1.662 -1.0044  0.0898 -0.5028
 3758TIP3    H132765   3.859   0.438   1.572 -5.4842  0.0048  0.3957
 3758TIP3    H232766   3.866   0.316   1.662  3.3635 -0.6119 -0.7683
 3759TIP3   OH232767   4.530   4.009  13.027  0.5154 -0.0559  0.1615
 3759TIP3    H132768   4.456   4.054  12.987 -0.3244 -1.3658  0.1826
 3759TIP3    H232769   4.549   3.937  12.966  0.0685 -1.2851  1.4518
 3760TIP3   OH232770   5.323   4.993  11.633 -1.1602 -0.3726  0.5769
 3760TIP3    H132771   5.273   4.950  11.703 -0.9437  0.7052  1.4103
 3760TIP3    H232772   5.394   5.038  11.679 -0.6054 -0.2236 -0.4147
 3761TIP3   OH232773   1.542   3.013   5.046 -0.1700 -0.4841 -0.1189
 3761TIP3    H132774   1.516   2.922   5.034 -2.0907  0.2431 -1.7249
 3761TIP3    H232775   1.576   3.041   4.961  1.1618  0.0753  0.5835
 3762TIP3   OH232776   0.372   1.856   3.330 -0.2450 -0.3444  0.1595
 3762TIP3    H132777   0.460   1.834   3.300 -0.0531 -1.0586  1.2065
 3762TIP3    H232778   0.355   1.942   3.292 -0.5061 -1.7255 -2.9548
 3763TIP3   OH232779   1.370   1.335   0.081 -0.5871  0.2119  0.5798
 3763TIP3    H132780   1.348   1.421   0.118 -4.1424 -0.7955  1.0377
 3763TIP3    H232781   1.287   1.303   0.047  0.8923 -2.6719 -0.4207
 3764TIP3   OH232782   6.775   1.798  11.662 -0.2612 -0.5720 -0.0550
 3764TIP3    H132783   6.759   1.814  11.755 -0.0019 -0.1821 -0.0747
 3764TIP3    H232784   6.807   1.882  11.628 -0.8697 -0.5585 -0.6134
 3765TIP3   OH232785   6.403   6.062   2.371 -0.3152 -0.2615 -0.1593
 3765TIP3    H132786   6.477   6.121   2.359 -1.8811  1.7377 -0.3688
 3765TIP3    H232787   6.387   6.025   2.285  1.2526 -1.7398  0.1612
 3766TIP3   OH232788   6.675   3.521   0.553 -0.3566  0.4243 -0.0564
 3766TIP3    H132789   6.631   3.443   0.588 -0.3737  0.8126  0.8169
 3766TIP3    H232790   6.614   3.557   0.489 -0.3943 -0.2222 -0.3814
 3767TIP3   OH232791   2.935   0.718  11.477  0.0805  0.1490 -0.5445
 3767TIP3    H132792   2.972   0.655  11.415 -1.1549  0.4751 -1.6267
 3767TIP3    H232793   2.875   0.665  11.531 -1.4786  0.4937 -1.8963
 3768TIP3   OH232794   4.017   0.737   3.578 -0.1355  0.1835 -0.0486
 3768TIP3    H132795   4.009   0.729   3.673 -0.7697  2.4698  0.1159
 3768TIP3    H232796   4.110   0.758   3.564  0.7617 -3.5398 -0.2411
 3769TIP3   OH232797   3.502   4.152  14.429  0.3622  0.2918 -0.1296
 3769TIP3    H132798   3.543   4.115  14.507 -0.2533 -0.3074 -0.0918
 3769TIP3    H232799   3.415   4.179  14.457  0.2498  0.3636 -0.5337
 3770TIP3   OH232800   5.241   3.835   3.735 -0.0360 -0.0172  0.3136
 3770TIP3    H132801   5.172   3.774   3.710 -1.1174  1.5810 -0.6754
 3770TIP3    H232802   5.261   3.813   3.827 -2.3298 -0.0465  0.8274
 3771TIP3   OH232803   3.998   2.612  11.138  0.3091  0.3012 -0.2623
 3771TIP3    H132804   4.024   2.611  11.046  1.0595 -1.0058 -0.0490
 3771TIP3    H232805   4.014   2.702  11.166 -0.2854  0.8015 -1.5051
 3772TIP3   OH232806   0.965   1.615  11.217 -0.4012  0.0099  0.4771
 3772TIP3    H132807   1.024   1.683  11.247 -0.4074  0.1063  0.2761
 3772TIP3    H232808   0.891   1.662  11.178  1.5924 -0.0358 -3.6171
 3773TIP3   OH232809   3.169   4.729   4.923  0.1875 -0.5294 -0.0735
 3773TIP3    H132810   3.122   4.739   4.839 -0.8498 -1.2533  0.4034
 3773TIP3    H232811   3.235   4.797   4.921 -0.1823 -0.1743 -1.2555
 3774TIP3   OH232812   5.386   2.506  14.406  0.4847 -0.0763 -0.2081
 3774TIP3    H132813   5.305   2.456  14.415 -0.5100  1.5732  0.3009
 3774TIP3    H232814   5.420   2.483  14.319 -0.8095 -0.3572 -0.6438
 3775TIP3   OH232815   3.991   0.078  14.211 -0.3214 -0.2380 -0.0481
 3775TIP3    H132816   4.057   0.009  14.199  1.0527  0.7130  1.6928
 3775TIP3    H232817   4.036   0.159  14.185 -1.2408  0.2471 -0.1368
 3776TIP3   OH232818   4.840   0.314  12.380 -0.2493  0.1413 -0.0960
 3776TIP3    H132819   4.876   0.341  12.296  2.4158 -2.5865  0.0835
 3776TIP3    H232820   4.768   0.256  12.358  0.6599 -0.8320 -0.5124
 3777TIP3   OH232821   3.200   5.741   4.946 -0.1538  0.0825 -0.2416
 3777TIP3    H132822   3.214   5.832   4.973  1.0988  0.1949 -1.2113
 3777TIP3    H232823   3.274   5.693   4.983 -0.8868 -0.5700  0.3869
 3778TIP3   OH232824   6.303   3.953  11.286 -0.7241  0.7094 -0.4464
 3778TIP3    H132825   6.295   3.908  11.370 -1.9788 -1.4490 -1.6716
 3778TIP3    H232826   6.258   4.036  11.299 -0.6686  0.5219  1.0770
 3779TIP3   OH232827   5.826   5.344   4.624 -0.2851 -0.4537  0.3147
 3779TIP3    H132828   5.852   5.312   4.710 -0.2814  1.7181  1.1472
 3779TIP3    H232829   5.734   5.319   4.615 -0.8255  0.9439  1.7624
 3780TIP3   OH232830   3.418   6.653   3.052 -0.0023  0.4014  0.0832
 3780TIP3    H132831   3.385   6.623   2.968 -2.8945 -0.7520  1.5521
 3780TIP3    H232832   3.457   6.738   3.033 -0.9733  0.3535 -2.3485
 3781TIP3   OH232833   3.374   1.711  11.482  0.2673  0.4425 -0.3775
 3781TIP3    H132834   3.340   1.702  11.571  0.6042 -0.2758 -0.3241
 3781TIP3    H232835   3.361   1.804  11.461  1.7242  0.9854  1.0420
 3782TIP3   OH232836   2.240   3.336  14.092 -0.4640 -0.3908  0.3179
 3782TIP3    H132837   2.203   3.399  14.154  1.0548  0.3442  0.4912
 3782TIP3    H232838   2.168   3.318  14.031 -0.5363  2.5284 -0.5500
 3783TIP3   OH232839   4.298   4.485  13.814  0.4674 -0.5848  0.0627
 3783TIP3    H132840   4.236   4.419  13.783 -0.9073 -0.1026  1.6726
 3783TIP3    H232841   4.318   4.537  13.736 -0.2578 -1.4759 -0.7330
 3784TIP3   OH232842   0.642   1.671   2.943 -0.6403  0.5827  0.4685
 3784TIP3    H132843   0.553   1.657   2.974 -0.3614  0.0228  1.0341
 3784TIP3    H232844   0.633   1.693   2.850 -1.1544 -2.5869 -0.2720
 3785TIP3   OH232845   1.200   3.848  12.391  0.4166  0.1289  0.2099
 3785TIP3    H132846   1.170   3.790  12.461  1.1264  1.0920  1.3289
 3785TIP3    H232847   1.139   3.921  12.392  1.3242  0.8949  0.8679
 3786TIP3   OH232848   4.550   3.274   1.658 -0.2919  0.5075 -0.0750
 3786TIP3    H132849   4.555   3.368   1.645  1.6813  0.1164 -2.3051
 3786TIP3    H232850   4.460   3.259   1.687 -0.7907  2.9976 -0.2560
 3787TIP3   OH232851   1.035   2.752  10.446  0.3788 -0.1160 -1.1335
 3787TIP3    H132852   1.082   2.798  10.516 -2.1872  2.5514 -1.0523
 3787TIP3    H232853   1.037   2.660  10.472  2.6946  0.3268  0.5001
 3788TIP3   OH232854   1.488   4.237  12.050 -0.3402  0.4329  0.3597
 3788TIP3    H132855   1.502   4.171  11.982 -1.3683  2.7319 -2.1939
 3788TIP3    H232856   1.396   4.227  12.075 -0.9673  1.8725 -1.2150
 3789TIP3   OH232857   4.332   1.360   3.595 -0.2489 -0.1568 -0.2257
 3789TIP3    H132858   4.244   1.378   3.628 -1.0204 -1.1674 -1.6528
 3789TIP3    H232859   4.323   1.276   3.548  1.1450  0.4204 -1.5769
 3790TIP3   OH232860   3.146   0.525   3.257  0.1592  0.2961  0.4415
 3790TIP3    H132861   3.113   0.456   3.315  0.0668 -0.4214 -0.4493
 3790TIP3    H232862   3.176   0.478   3.179  2.2395  1.0328  0.7496
 3791TIP3   OH232863   3.851   5.052  16.099  0.5391  0.1262  0.1651
 3791TIP3    H132864   3.937   5.093  16.100 -0.2503  2.0396 -3.1168
 3791TIP3    H232865   3.861   4.975  16.043  0.4006 -0.3168  0.7458
 3792TIP3   OH232866   2.182   5.538  15.095 -0.0049 -0.7312  0.3615
 3792TIP3    H132867   2.108   5.532  15.156 -0.5757 -0.4923 -0.2980
 3792TIP3    H232868   2.217   5.626  15.109 -0.2038 -0.6363  0.2697
 3793TIP3   OH232869   5.796   2.129  11.375  0.2092  0.4658 -0.2915
 3793TIP3    H132870   5.891   2.117  11.373  0.0994 -0.3241 -3.9783
 3793TIP3    H232871   5.783   2.208  11.427  2.9704  1.1277 -0.5223
 3794TIP3   OH232872   0.063   1.163  14.762  0.4319 -0.6564  0.2516
 3794TIP3    H132873   0.098   1.077  14.740 -1.6485 -1.2342 -0.9099
 3794TIP3    H232874   0.010   1.188  14.686 -0.9124  0.5960  1.5627
 3795TIP3   OH232875   1.505   3.137   0.350 -0.8247 -0.3787  0.6008
 3795TIP3    H132876   1.472   3.047   0.353 -0.4995 -0.5875 -1.6408
 3795TIP3    H232877   1.437   3.189   0.392 -0.7733 -1.7253  2.4223
 3796TIP3   OH232878   2.223   0.333   4.654  0.0532 -0.0416 -0.1524
 3796TIP3    H132879   2.309   0.354   4.689 -0.3985  1.7650 -0.0866
 3796TIP3    H232880   2.173   0.304   4.731  0.0507  0.6999  0.1286
 3797TIP3   OH232881   2.686   3.168   0.935 -0.3522  0.1055 -0.6252
 3797TIP3    H132882   2.672   3.095   0.876 -1.6558 -0.6518  0.5831
 3797TIP3    H232883   2.616   3.161   1.000  1.0545  0.8878  1.0417
 3798TIP3   OH232884   1.153   6.576   6.029  0.6795  0.1894  0.6354
 3798TIP3    H132885   1.076   6.575   6.085 -0.0718 -1.4320 -0.3810
 3798TIP3    H232886   1.221   6.532   6.081 -0.2378 -2.0202  0.0015
 3799TIP3   OH232887   2.048   1.085   0.849  0.6040 -0.1023  0.1366
 3799TIP3    H132888   2.142   1.081   0.830  0.5185 -1.0275 -0.1332
 3799TIP3    H232889   2.005   1.070   0.765  0.2215 -1.5826  0.5798
 3800TIP3   OH232890   5.486   0.377  17.025  0.0597 -0.2985 -0.3183
 3800TIP3    H132891   5.556   0.441  17.040  0.8199 -1.0344 -0.7029
 3800TIP3    H232892   5.527   0.292  17.041 -0.9938 -0.6913  0.3826
 3801TIP3   OH232893   6.392   1.902  17.257  0.3677 -0.1547  0.1463
 3801TIP3    H132894   6.357   1.977  17.305  0.2228  2.3494 -3.5849
 3801TIP3    H232895   6.487   1.909  17.268  0.2990 -0.0556  0.7001
 3802TIP3   OH232896   4.446   1.040  15.304  0.0964  0.2709  0.2238
 3802TIP3    H132897   4.526   0.988  15.301 -2.1344 -3.3411 -0.4487
 3802TIP3    H232898   4.402   1.021  15.221 -3.8285 -1.9629  2.6283
 3803TIP3   OH232899   3.118   3.718   1.578  0.2860 -0.3618  0.1841
 3803TIP3    H132900   3.157   3.773   1.646  1.7697 -0.2427 -0.7366
 3803TIP3    H232901   3.042   3.678   1.620  0.5668  0.5505  1.5819
 3804TIP3   OH232902   1.590   0.766   1.010  0.2635  0.0209  0.0296
 3804TIP3    H132903   1.685   0.775   1.012  0.4913 -2.0171 -0.2208
 3804TIP3    H232904   1.563   0.775   1.101  0.8796 -0.9813  0.3230
 3805TIP3   OH232905   4.427   6.759  15.659 -0.1174 -0.9300 -0.1918
 3805TIP3    H132906   4.412   6.854  15.660  1.7221 -0.6010 -1.9189
 3805TIP3    H232907   4.500   6.746  15.719  0.2642 -1.1411 -0.7026
 3806TIP3   OH232908   1.580   3.471   3.427  0.1329 -0.1574  0.0626
 3806TIP3    H132909   1.549   3.405   3.365 -1.7223  1.0370 -0.3412
 3806TIP3    H232910   1.504   3.528   3.441  1.9194  2.4361 -0.3279
 3807TIP3   OH232911   0.676   0.212  15.396  0.1211 -0.5186 -0.1696
 3807TIP3    H132912   0.588   0.178  15.378  0.6110 -0.6795 -2.4761
 3807TIP3    H232913   0.680   0.295  15.348  1.2753 -0.5685 -0.1753
 3808TIP3   OH232914   1.392   5.840   4.597  0.3462 -0.3550 -0.5714
 3808TIP3    H132915   1.455   5.902   4.634  0.0267 -0.7641  0.6818
 3808TIP3    H232916   1.328   5.895   4.553  0.4923  0.1687 -0.1375
 3809TIP3   OH232917   2.138   3.190  14.535  0.1338 -0.1528  0.0936
 3809TIP3    H132918   2.126   3.229  14.621 -0.2423  0.2909 -0.1555
 3809TIP3    H232919   2.195   3.115  14.550 -0.5314 -0.5101  0.8353
 3810TIP3   OH232920   2.500   3.010  13.463  0.6905  0.4640  0.1353
 3810TIP3    H132921   2.450   2.935  13.430  0.3084  0.3132  1.0392
 3810TIP3    H232922   2.454   3.086  13.428  0.2380  0.3075  0.3880
 3811TIP3   OH232923   2.673   3.838  12.978 -0.1396 -0.3932  0.0460
 3811TIP3    H132924   2.699   3.907  12.917 -0.4533  0.3025  0.7040
 3811TIP3    H232925   2.746   3.776  12.975  0.7087  0.5697  0.3875
 3812TIP3   OH232926   3.966   1.514   2.553 -0.1910 -0.2801  0.0848
 3812TIP3    H132927   3.905   1.451   2.592  0.8425 -1.4134 -0.1560
 3812TIP3    H232928   4.027   1.535   2.624  0.1968 -0.4705 -0.1921
 3813TIP3   OH232929   4.861   3.043  12.469  0.4045 -0.2852  0.2314
 3813TIP3    H132930   4.881   3.022  12.561 -0.4979 -0.3950  0.4072
 3813TIP3    H232931   4.782   2.992  12.450  0.4490 -0.0693 -0.5350
 3814TIP3   OH232932   4.240   2.109  16.447 -0.1760  0.2514 -0.1660
 3814TIP3    H132933   4.326   2.147  16.467  0.8034 -2.3317  0.7924
 3814TIP3    H232934   4.211   2.071  16.530  0.1299 -3.3600 -1.6226
 3815TIP3   OH232935   5.148   5.258   3.781  0.4247 -0.3863  0.4245
 3815TIP3    H132936   5.065   5.223   3.814  0.0623  0.0843 -0.0023
 3815TIP3    H232937   5.169   5.330   3.841 -1.2383  1.7797 -1.5187
 3816TIP3   OH232938   1.752   6.587   2.204  0.5633  0.1935  0.1578
 3816TIP3    H132939   1.691   6.535   2.151  0.6331 -0.0411  0.3068
 3816TIP3    H232940   1.824   6.527   2.223 -0.1407 -0.1624  1.7332
 3817TIP3   OH232941   4.528   1.540   1.084 -0.2982 -0.8151  0.0078
 3817TIP3    H132942   4.535   1.634   1.066 -1.0423 -0.0756  3.1580
 3817TIP3    H232943   4.610   1.503   1.052  0.7598  1.2052  0.2761
 3818TIP3   OH232944   3.049   2.873   0.276  0.2309  0.3753  0.5290
 3818TIP3    H132945   3.045   2.852   0.369 -0.3482 -0.2133  0.3753
 3818TIP3    H232946   3.118   2.817   0.241 -0.3448 -0.2469  0.3863
 3819TIP3   OH232947   5.755   4.197  16.692 -0.1638  0.0228  0.5745
 3819TIP3    H132948   5.696   4.213  16.619  1.1734 -0.2005 -0.5883
 3819TIP3    H232949   5.744   4.105  16.714  0.6147 -0.3046 -0.4164
 3820TIP3   OH232950   1.598   1.420  13.065 -0.2952  0.3158  0.6627
 3820TIP3    H132951   1.629   1.330  13.058 -1.2033  0.0060  0.6746
 3820TIP3    H232952   1.520   1.415  13.120 -0.9745  0.9659 -0.2201
 3821TIP3   OH232953   4.319   4.596  16.502 -0.5965  0.1315  0.0944
 3821TIP3    H132954   4.390   4.636  16.452 -0.4798 -0.5920 -0.3311
 3821TIP3    H232955   4.294   4.662  16.566  0.2418  0.5148  0.0302
 3822TIP3   OH232956   1.944   4.751  17.015 -0.2806  0.3805  0.1613
 3822TIP3    H132957   1.960   4.845  17.005 -3.1637  0.7129 -1.9197
 3822TIP3    H232958   2.020   4.710  16.974 -0.6829  1.8513 -2.1687
 3823TIP3   OH232959   6.466   1.580  13.217  0.1453 -0.2767  0.2100
 3823TIP3    H132960   6.448   1.672  13.237  0.5037  0.0258 -0.8644
 3823TIP3    H232961   6.556   1.566  13.248 -0.2084 -0.5097  1.1666
 3824TIP3   OH232962   2.428   5.334  13.132 -0.2063 -0.1730 -0.3026
 3824TIP3    H132963   2.446   5.312  13.223 -0.1284 -1.7880 -0.6926
 3824TIP3    H232964   2.339   5.369  13.133  0.1637  0.7557  0.5396
 3825TIP3   OH232965   5.526   5.574   2.515  0.0209 -0.8118  0.0450
 3825TIP3    H132966   5.536   5.640   2.446 -2.6471  0.4233  0.7731
 3825TIP3    H232967   5.575   5.609   2.589  0.7931 -0.9329 -0.4018
 3826TIP3   OH232968   6.193   6.210  12.941  0.1198  0.3595 -0.2976
 3826TIP3    H132969   6.274   6.199  12.891  0.9643  0.3328  1.0561
 3826TIP3    H232970   6.213   6.176  13.028 -2.2479 -2.3910 -0.7373
 3827TIP3   OH232971   2.313   0.941   1.357 -0.0263  0.8228  0.6403
 3827TIP3    H132972   2.295   0.904   1.270  0.9816  1.0917  0.3044
 3827TIP3    H232973   2.270   0.881   1.418 -0.5435  0.5017 -0.0368
 3828TIP3   OH232974   4.465   3.104   4.430  0.3503 -0.3856  0.2197
 3828TIP3    H132975   4.440   3.023   4.476 -0.2032 -0.0374  0.5455
 3828TIP3    H232976   4.461   3.171   4.498  0.7242 -0.0732 -0.0716
 3829TIP3   OH232977   2.744   2.834  13.942  0.2545  0.4174  0.6123
 3829TIP3    H132978   2.712   2.921  13.966  0.1612  1.2844 -2.3942
 3829TIP3    H232979   2.773   2.844  13.851  0.6501 -2.5900  0.3683
 3830TIP3   OH232980   5.179   4.708  10.476 -0.2734 -0.4994 -0.0196
 3830TIP3    H132981   5.151   4.761  10.550  0.0567  1.1826 -1.0914
 3830TIP3    H232982   5.098   4.681  10.433 -0.4085 -0.1915  0.0459
 3831TIP3   OH232983   0.422   0.693   5.231 -0.2247  0.1102  0.0562
 3831TIP3    H132984   0.427   0.697   5.135  0.0790 -1.0588  0.0187
 3831TIP3    H232985   0.412   0.600   5.250 -1.2491  0.4268  1.1199
 3832TIP3   OH232986   1.912   4.633   4.038 -0.4540 -0.3896  0.8176
 3832TIP3    H132987   1.965   4.696   3.990 -0.2760 -1.2096 -0.0845
 3832TIP3    H232988   1.882   4.680   4.116  2.2828 -0.1712  1.7720
 3833TIP3   OH232989   3.673   5.354  14.039  0.2571 -0.6046 -0.4996
 3833TIP3    H132990   3.663   5.326  14.130 -0.0502 -2.6905 -1.1585
 3833TIP3    H232991   3.708   5.443  14.045 -3.4742  0.8612  1.7188
 3834TIP3   OH232992   2.805   3.643  17.242  0.2679 -0.0654  0.0851
 3834TIP3    H132993   2.774   3.731  17.264 -0.1167 -0.3345  0.6478
 3834TIP3    H232994   2.827   3.647  17.149 -0.8868  0.3062 -0.1839
 3835TIP3   OH232995   6.108   4.137  15.605  0.0622 -0.6044  0.6327
 3835TIP3    H132996   6.202   4.155  15.607  0.2327 -1.3956  0.1511
 3835TIP3    H232997   6.074   4.177  15.685  1.0079 -1.4164  1.4546
 3836TIP3   OH232998   6.526   1.612   2.989  0.4540 -0.0430  0.1663
 3836TIP3    H132999   6.584   1.681   2.956 -0.4395  0.5538 -0.1440
 3836TIP3    H233000   6.472   1.656   3.055  0.0056 -0.4944  0.0939
 3837TIP3   OH233001   0.943   4.830  15.568 -0.5686 -0.1185  0.4431
 3837TIP3    H133002   1.009   4.826  15.498 -2.3350  2.1147 -1.4136
 3837TIP3    H233003   0.912   4.740  15.577  1.4531 -0.8858  0.1448
 3838TIP3   OH233004   6.510   6.107   3.587  0.2335 -0.2064 -0.4134
 3838TIP3    H133005   6.497   6.050   3.511  1.2725  0.0604 -0.8018
 3838TIP3    H233006   6.426   6.152   3.599  0.0986 -0.1761 -1.4647
 3839TIP3   OH233007   2.922   2.586   6.574  0.3707  0.0355 -0.7869
 3839TIP3    H133008   2.865   2.513   6.550 -0.1074  0.5005 -1.0713
 3839TIP3    H233009   2.975   2.552   6.646  0.8729 -0.9327 -1.6024
 3840TIP3   OH233010   6.470   5.984  14.143 -0.8741  0.1671  0.0671
 3840TIP3    H133011   6.419   5.945  14.071 -0.0444 -2.8170  1.0223
 3840TIP3    H233012   6.544   5.924  14.155 -1.1568  0.4440  3.5798
 3841TIP3   OH233013   0.346   0.926   4.782 -0.0701  0.3842  0.2774
 3841TIP3    H133014   0.306   1.007   4.750 -0.7700 -0.2192 -0.4026
 3841TIP3    H233015   0.410   0.903   4.715  0.2917  0.4925  0.5839
 3842TIP3   OH233016   3.906   6.106  16.593  0.3936  0.0055 -0.3884
 3842TIP3    H133017   3.885   6.178  16.652  0.5686 -1.4286  1.4545
 3842TIP3    H233018   3.837   6.109  16.526 -1.5818 -0.2448  1.5943
 3843TIP3   OH233019   2.873   2.334  11.886  0.5413  0.2721 -0.2943
 3843TIP3    H133020   2.954   2.284  11.873  0.9915  0.1619  2.5825
 3843TIP3    H233021   2.807   2.267  11.904  0.5165  0.5336  0.6074
 3844TIP3   OH233022   4.846   6.792   0.465  0.3795 -0.1680 -0.4035
 3844TIP3    H133023   4.844   6.712   0.413 -1.2031  0.3693 -1.2233
 3844TIP3    H233024   4.754   6.810   0.485  0.8949  0.1185  1.8623
 3845TIP3   OH233025   1.339   5.931   2.518 -0.1464  0.5505  0.4382
 3845TIP3    H133026   1.400   5.960   2.586 -2.4001  0.0942  2.7021
 3845TIP3    H233027   1.273   5.880   2.565 -2.5437  1.4119 -1.8943
 3846TIP3   OH233028   3.404   1.165   5.030  0.1722  0.6218 -0.3759
 3846TIP3    H133029   3.332   1.150   4.969 -0.3425  1.7735 -0.0774
 3846TIP3    H233030   3.398   1.094   5.093 -0.8523  0.8253 -0.2298
 3847TIP3   OH233031   4.322   5.048   0.060  0.0585 -0.5598  0.0486
 3847TIP3    H133032   4.354   4.959   0.076  2.2607  0.4113  1.2273
 3847TIP3    H233033   4.360   5.073  -0.024 -0.1411 -0.5562 -0.0390
 3848TIP3   OH233034   0.707   1.543   0.441 -0.1691 -0.1102  0.4889
 3848TIP3    H133035   0.686   1.574   0.529 -0.5803  0.8855  0.0530
 3848TIP3    H233036   0.799   1.516   0.445 -0.0933  0.2522  1.1290
 3849TIP3   OH233037   0.722   0.668  15.137 -0.3421  0.2874  0.2976
 3849TIP3    H133038   0.741   0.612  15.062  1.2432 -2.5904  2.7877
 3849TIP3    H233039   0.807   0.702  15.164 -0.8186  0.7001  1.2841
 3850TIP3   OH233040   2.484   5.868  13.369  0.1479  0.2718 -0.3776
 3850TIP3    H133041   2.461   5.788  13.320  1.4987 -0.0249 -0.5398
 3850TIP3    H233042   2.435   5.937  13.325 -0.4007 -0.3437 -0.7518
 3851TIP3   OH233043   4.205   5.019  15.987  0.5518  0.1920 -0.0456
 3851TIP3    H133044   4.171   5.062  16.066 -1.0956  0.9171 -1.1232
 3851TIP3    H233045   4.166   4.931  15.990 -0.1881  0.5003 -0.4738
 3852TIP3   OH233046   4.316   4.915  14.397  0.5652  0.3991  0.2088
 3852TIP3    H133047   4.321   4.930  14.303  0.5027 -0.4543  0.0669
 3852TIP3    H233048   4.233   4.954  14.423  1.7166  2.8443  0.3390
 3853TIP3   OH233049   2.056   1.840  14.893  0.1456 -0.5290 -0.0221
 3853TIP3    H133050   2.094   1.814  14.810  1.4074 -2.6029  1.1597
 3853TIP3    H233051   2.103   1.788  14.959 -1.3937  0.4274  1.9049
 3854TIP3   OH233052   6.580   3.249  10.579  0.0681  0.0090  0.6707
 3854TIP3    H133053   6.497   3.285  10.610  0.5045  0.3526  1.4588
 3854TIP3    H233054   6.643   3.272  10.647  0.5025 -1.6181  0.8459
 3855TIP3   OH233055   6.817   2.751   3.764  0.1476 -0.2097 -0.6663
 3855TIP3    H133056   6.758   2.683   3.732 -0.7792  0.9693 -1.5220
 3855TIP3    H233057   6.770   2.833   3.748  0.9813  0.6003  0.9287
 3856TIP3   OH233058   5.458   0.537   3.403 -0.4263  0.1377 -0.0337
 3856TIP3    H133059   5.465   0.614   3.347  1.0126 -0.3292 -0.5346
 3856TIP3    H233060   5.469   0.570   3.492  0.5638  0.4731 -0.2740
 3857TIP3   OH233061   2.382   2.632   2.326 -0.1739 -0.4367  0.2071
 3857TIP3    H133062   2.319   2.561   2.332 -1.7383  0.6925 -2.1657
 3857TIP3    H233063   2.403   2.638   2.233  0.6046  1.6175  0.4776
 3858TIP3   OH233064   0.111   2.674   2.077 -0.2433 -0.4066 -0.6180
 3858TIP3    H133065   0.173   2.631   2.019 -0.6876 -0.5753 -0.9629
 3858TIP3    H233066   0.129   2.768   2.066  1.0704 -0.5132  0.5189
 3859TIP3   OH233067   3.239   2.724  16.153 -0.3129 -1.2208  0.1048
 3859TIP3    H133068   3.225   2.819  16.156  1.0183 -0.9241 -1.8998
 3859TIP3    H233069   3.151   2.686  16.155 -0.8985  0.1014 -0.3037
 3860TIP3   OH233070   4.023   4.744  12.655 -0.2232 -0.1504  0.8927
 3860TIP3    H133071   3.971   4.806  12.707 -1.1989 -0.1416 -0.0575
 3860TIP3    H233072   4.103   4.793  12.634 -0.7758  0.6302  0.5548
 3861TIP3   OH233073   3.086   5.161   0.010 -0.2622 -0.2009  0.1301
 3861TIP3    H133074   3.132   5.165  -0.074 -1.9920 -0.9636 -0.8680
 3861TIP3    H233075   2.997   5.188  -0.010 -0.3917  0.8244  1.9672
 3862TIP3   OH233076   3.302   4.618   3.864 -0.0438  0.2739  0.3434
 3862TIP3    H133077   3.232   4.561   3.897  0.1535 -0.4457 -0.4799
 3862TIP3    H233078   3.267   4.706   3.874 -1.3128 -0.1074 -0.6092
 3863TIP3   OH233079   4.983   0.939   0.194 -0.3942 -0.2122  0.2335
 3863TIP3    H133080   4.938   0.908   0.273  0.6897 -1.2676  0.4446
 3863TIP3    H233081   5.076   0.928   0.213 -0.1049  0.0665 -0.9794
 3864TIP3   OH233082   4.062   4.429  11.935  0.5443 -0.4253 -0.5570
 3864TIP3    H133083   4.074   4.375  11.858  1.0811 -2.1884  0.7195
 3864TIP3    H233084   4.147   4.425  11.980  0.7060  1.7656 -0.5967
 3865TIP3   OH233085   4.017   0.597  16.632 -0.2504  0.0139  0.9544
 3865TIP3    H133086   4.013   0.661  16.561 -0.3096 -0.8186  0.1962
 3865TIP3    H233087   4.072   0.526  16.598 -2.2619 -1.5192  0.7977
 3866TIP3   OH233088   1.045   5.428  15.346 -0.1667 -0.5144 -0.1318
 3866TIP3    H133089   1.046   5.335  15.368 -1.3877 -0.6052 -0.4242
 3866TIP3    H233090   1.096   5.470  15.415  0.6880 -1.4391 -0.1888
 3867TIP3   OH233091   1.551   6.678  15.227  0.6134  0.2387 -0.4414
 3867TIP3    H133092   1.491   6.717  15.291  1.2636 -0.7796  0.8163
 3867TIP3    H233093   1.540   6.731  15.148 -1.3031  0.6007  0.0440
 3868TIP3   OH233094   4.781   4.593   1.155  0.2197 -0.0330  0.3117
 3868TIP3    H133095   4.764   4.503   1.183  1.3374 -0.4255 -0.2454
 3868TIP3    H233096   4.782   4.589   1.059 -0.5255  0.7268  0.2629
 3869TIP3   OH233097   5.027   6.132   4.973  0.2013 -0.3679 -0.5594
 3869TIP3    H133098   5.021   6.225   4.951 -0.2336 -0.4161 -0.6621
 3869TIP3    H233099   4.940   6.098   4.952  0.1916 -0.6845 -0.0149
 3870TIP3   OH233100   3.164   0.085   2.258  0.5287  0.4927  0.1030
 3870TIP3    H133101   3.090   0.068   2.200  0.8954  0.1612 -0.2675
 3870TIP3    H233102   3.157   0.179   2.278  0.6573  0.7056 -0.8386
 3871TIP3   OH233103   6.582   2.865  15.894  0.1685  0.1425 -0.4556
 3871TIP3    H133104   6.559   2.806  15.965  1.5831 -0.0705 -0.1756
 3871TIP3    H233105   6.530   2.944  15.911  1.0508  0.3733  1.2236
 3872TIP3   OH233106   0.873   6.135   5.582 -0.8366 -0.1183 -0.3052
 3872TIP3    H133107   0.926   6.206   5.619 -1.3429  0.3457 -0.4736
 3872TIP3    H233108   0.860   6.074   5.656  0.1479 -0.3707 -0.3298
 3873TIP3   OH233109   0.284   4.684  14.571 -0.2102 -0.2966  0.3460
 3873TIP3    H133110   0.324   4.768  14.545  0.1723 -0.6945 -0.3854
 3873TIP3    H233111   0.193   4.706  14.592  0.3145  0.5758  1.7759
 3874TIP3   OH233112   3.624   4.957  15.328 -0.3466  0.5916 -0.2312
 3874TIP3    H133113   3.716   4.981  15.339 -0.3167  0.7572 -0.8461
 3874TIP3    H233114   3.610   4.885  15.390  0.6850 -0.7346 -1.5082
 3875TIP3   OH233115   0.236   3.049  11.040 -0.1948  0.1144 -0.0468
 3875TIP3    H133116   0.250   2.974  11.097  2.1142  0.2403 -0.3884
 3875TIP3    H233117   0.276   3.023  10.957  0.3670  1.6096 -0.2531
 3876TIP3   OH233118   6.077   6.676  13.086 -0.3680  0.2244  0.6031
 3876TIP3    H133119   6.047   6.661  13.176  0.1295  0.6206  0.8408
 3876TIP3    H233120   6.132   6.600  13.067 -1.1894 -0.2990  0.3146
 3877TIP3   OH233121   6.491   6.122  16.256  0.1428  0.2235 -0.1633
 3877TIP3    H133122   6.408   6.078  16.273 -0.0070  0.9029  0.9146
 3877TIP3    H233123   6.470   6.215  16.265  1.0413  0.3899  0.1821
 3878TIP3   OH233124   5.068   2.718  16.550 -0.5963  0.6543 -0.3752
 3878TIP3    H133125   5.152   2.753  16.581 -0.6722  0.2388  0.3003
 3878TIP3    H233126   5.002   2.771  16.595 -0.7166  2.7055 -2.8550
 3879TIP3   OH233127   2.639   3.194  12.857 -0.6459  0.7843  0.6438
 3879TIP3    H133128   2.577   3.173  12.787 -0.1127 -1.9539  0.9283
 3879TIP3    H233129   2.601   3.270  12.901 -2.1561  1.1060 -1.1724
 3880TIP3   OH233130   6.426   5.352   3.755 -0.0618 -0.0998 -0.3478
 3880TIP3    H133131   6.350   5.298   3.774  0.6073 -0.3707  1.6731
 3880TIP3    H233132   6.404   5.397   3.674 -1.2438 -2.2460 -1.2470
 3881TIP3   OH233133   5.680   0.327   6.191 -0.8477 -0.2466 -0.2957
 3881TIP3    H133134   5.773   0.317   6.174 -0.5233  0.8154  0.7995
 3881TIP3    H233135   5.655   0.251   6.242 -0.3868 -0.0849  0.1684
 3882TIP3   OH233136   3.523   6.315  11.105  0.0049 -0.4439 -0.0977
 3882TIP3    H133137   3.528   6.397  11.154 -1.1778 -0.9524  0.9011
 3882TIP3    H233138   3.541   6.340  11.015  0.4600  0.7891  0.3268
 3883TIP3   OH233139   6.691   1.325  11.892  1.1773  0.1797  0.2849
 3883TIP3    H133140   6.634   1.310  11.967  0.3608 -1.5075 -0.6580
 3883TIP3    H233141   6.664   1.411  11.858 -1.4614 -0.9853 -0.6925
 3884TIP3   OH233142   1.479   5.670  14.198  0.0461  0.1815 -0.7484
 3884TIP3    H133143   1.574   5.657  14.209 -0.1656 -1.4466 -0.7708
 3884TIP3    H233144   1.452   5.714  14.278  0.8089  0.5718 -0.7002
 3885TIP3   OH233145   2.699   4.131  16.236  0.4557 -0.1303 -0.6291
 3885TIP3    H133146   2.613   4.105  16.203  0.3984 -0.4446 -0.2346
 3885TIP3    H233147   2.754   4.137  16.158  0.1671 -0.2821 -0.8432
 3886TIP3   OH233148   6.336   6.132   4.309  0.1179 -0.1910  0.1333
 3886TIP3    H133149   6.256   6.090   4.341  0.5772 -1.9891 -0.9353
 3886TIP3    H233150   6.305   6.196   4.245 -0.4682 -1.5221 -0.9651
 3887TIP3   OH233151   6.796   5.328  16.309 -0.0989  0.1263 -0.5095
 3887TIP3    H133152   6.748   5.279  16.242  1.5081 -0.2200 -1.4362
 3887TIP3    H233153   6.882   5.342  16.271 -0.1355  2.6277  0.2586
 3888TIP3   OH233154   6.455   2.068  16.576 -0.1572  0.1355  0.1185
 3888TIP3    H133155   6.432   2.161  16.578 -0.0463  0.1675 -0.0193
 3888TIP3    H233156   6.547   2.068  16.547 -0.3865 -0.0567 -0.5962
 3889TIP3   OH233157   5.424   2.380  11.738  0.4108  0.2239  0.3073
 3889TIP3    H133158   5.349   2.325  11.718  0.7294  0.0330 -0.3855
 3889TIP3    H233159   5.419   2.395  11.833 -0.5729  0.3319  0.2398
 3890TIP3   OH233160   4.431   1.536  12.215  0.4246  0.6965 -0.1856
 3890TIP3    H133161   4.497   1.467  12.210 -0.3645 -0.3785  3.2720
 3890TIP3    H233162   4.470   1.604  12.269 -0.1046  1.4893 -0.7713
 3891TIP3   OH233163   1.639   4.023  10.690  0.3272  0.4747  0.6714
 3891TIP3    H133164   1.654   4.078  10.613  1.7966  0.5692  1.0185
 3891TIP3    H233165   1.669   4.076  10.764 -0.9987  0.3504  1.3031
 3892TIP3   OH233166   0.239   4.403  12.851 -0.2126 -0.2971  0.1490
 3892TIP3    H133167   0.197   4.482  12.885  0.0151  0.0946 -0.4557
 3892TIP3    H233168   0.298   4.375  12.921  0.3925  0.6035  0.0151
 3893TIP3   OH233169   1.939   6.042  12.197 -0.2694 -0.2111 -0.0975
 3893TIP3    H133170   2.011   6.008  12.143  1.2231 -0.3880  1.9481
 3893TIP3    H233171   1.930   6.133  12.169 -0.4848 -0.6775 -1.6233
 3894TIP3   OH233172   5.038   1.879   2.955 -0.2611  0.6134  0.5893
 3894TIP3    H133173   5.079   1.923   2.881  2.0292  0.4570  1.7238
 3894TIP3    H233174   4.945   1.901   2.947  0.5117  3.9771  0.0133
 3895TIP3   OH233175   5.763   1.616   1.042  0.0181  0.2823 -0.5187
 3895TIP3    H133176   5.827   1.667   1.093  1.2396 -0.7528 -0.9956
 3895TIP3    H233177   5.802   1.529   1.035 -1.2322 -0.2309 -1.2366
 3896TIP3   OH233178   0.234   3.117   3.419  0.3659  0.1133  0.5874
 3896TIP3    H133179   0.171   3.150   3.355  1.7224  1.8034  0.0851
 3896TIP3    H233180   0.282   3.195   3.447  3.3390 -1.3536 -0.2441
 3897TIP3   OH233181   0.191   0.306   5.485  0.0873 -0.2786  0.2672
 3897TIP3    H133182   0.119   0.335   5.429  1.2301  2.2120  0.0266
 3897TIP3    H233183   0.153   0.303   5.573 -0.9556 -1.4402 -0.2005
 3898TIP3   OH233184   5.129   0.585  12.461  0.2744 -0.1531 -0.1237
 3898TIP3    H133185   5.164   0.630  12.538  1.5383 -1.0152 -0.1682
 3898TIP3    H233186   5.187   0.612  12.389 -0.4881  0.1144 -0.6468
 3899TIP3   OH233187   0.616   2.637  16.521 -0.2400  0.4694 -0.0601
 3899TIP3    H133188   0.652   2.714  16.477  1.1750  0.1868  0.5851
 3899TIP3    H233189   0.618   2.660  16.614  0.3219 -0.4075  0.1419
 3900TIP3   OH233190   2.620   1.691   5.059 -0.1096  0.7232  0.3558
 3900TIP3    H133191   2.708   1.718   5.032  0.4946 -1.9170 -0.3951
 3900TIP3    H233192   2.562   1.753   5.014  1.3821  3.6521  2.3030
 3901TIP3   OH233193   3.500   6.347   2.341 -0.2877  0.2013 -0.7615
 3901TIP3    H133194   3.556   6.392   2.278 -0.7184  0.6128 -0.8440
 3901TIP3    H233195   3.547   6.265   2.360  0.3862  0.5835 -0.7659
 3902TIP3   OH233196   3.977   4.531   3.077 -0.2336  0.5770 -0.1254
 3902TIP3    H133197   4.032   4.584   3.019  1.3490 -0.0330  0.7795
 3902TIP3    H233198   3.954   4.590   3.149  1.7374  0.0067  1.0107
 3903TIP3   OH233199   2.662   0.704   4.339 -0.0961 -0.3231  0.2749
 3903TIP3    H133200   2.604   0.696   4.414  0.8427 -0.7933  0.9672
 3903TIP3    H233201   2.663   0.797   4.318 -1.4596 -0.3753 -0.0458
 3904TIP3   OH233202   5.661   0.748   3.339 -0.2921  0.4342  0.0324
 3904TIP3    H133203   5.678   0.836   3.305  0.3382  0.4151  0.2906
 3904TIP3    H233204   5.684   0.753   3.432 -3.3610  0.8689  0.8296
 3905TIP3   OH233205   2.529   5.848  17.285  0.1419  0.2565  0.1822
 3905TIP3    H133206   2.546   5.819  17.375  2.3483  0.4113 -0.1557
 3905TIP3    H233207   2.450   5.902  17.292  0.4363  0.4905  2.0634
 3906TIP3   OH233208   0.455   6.228   0.558 -0.0511 -0.0336 -0.2544
 3906TIP3    H133209   0.428   6.177   0.634  0.1947 -1.0191 -0.8162
 3906TIP3    H233210   0.409   6.188   0.485  1.5846 -0.6397 -0.9706
 3907TIP3   OH233211   6.570   5.847   1.195 -0.1140  0.1304 -0.2962
 3907TIP3    H133212   6.507   5.840   1.123  0.7329  0.3991 -1.0718
 3907TIP3    H233213   6.626   5.769   1.185 -0.7724 -0.5054  0.8351
 3908TIP3   OH233214   4.631   3.312  16.966 -0.2719 -0.0830 -0.1060
 3908TIP3    H133215   4.658   3.346  17.051  0.4529 -2.0854  0.4974
 3908TIP3    H233216   4.579   3.234  16.986 -0.4798 -0.3229 -1.4704
 3909TIP3   OH233217   0.543   0.348   3.960  0.2122  0.2402  0.2512
 3909TIP3    H133218   0.535   0.330   4.054 -3.4002 -0.6061 -0.1608
 3909TIP3    H233219   0.581   0.268   3.924  1.2277  0.4104  0.9139
 3910TIP3   OH233220   4.650   5.425   5.754 -0.0869  0.2437 -0.4483
 3910TIP3    H133221   4.602   5.395   5.831 -0.4695 -2.1599 -1.5860
 3910TIP3    H233222   4.583   5.464   5.697 -0.0113  0.7770 -0.1777
 3911TIP3   OH233223   2.292   1.147   1.075  0.0052  0.8358 -0.0630
 3911TIP3    H133224   2.307   1.163   1.168  0.6392  0.5777 -0.1197
 3911TIP3    H233225   2.303   1.052   1.065 -1.6919  0.6173 -0.1025
 3912TIP3   OH233226   6.673   5.158  11.933 -0.0538  0.4481 -0.0152
 3912TIP3    H133227   6.681   5.201  11.848  1.0518 -0.4719 -0.3962
 3912TIP3    H233228   6.600   5.098  11.923 -0.6895  1.1982  0.0699
 3913TIP3   OH233229   5.151   4.267  16.718 -0.2256  0.5695 -0.0365
 3913TIP3    H133230   5.087   4.336  16.702  0.2082  1.3737  1.5172
 3913TIP3    H233231   5.111   4.212  16.786 -1.9481 -2.6288 -3.4422
 3914TIP3   OH233232   5.085   3.398  13.716 -0.2485 -0.3199 -0.0730
 3914TIP3    H133233   5.104   3.449  13.795  0.8568 -2.2621  0.9588
 3914TIP3    H233234   5.060   3.463  13.651  0.2641  1.4562  1.4583
 3915TIP3   OH233235   6.372   2.319   5.094 -0.1670 -0.4799  0.1733
 3915TIP3    H133236   6.377   2.410   5.121 -1.6115 -0.5065  0.6013
 3915TIP3    H233237   6.284   2.310   5.057 -0.7174 -2.1433  1.8129
 3916TIP3   OH233238   4.773   5.853  11.383 -0.2182 -0.6089 -0.0515
 3916TIP3    H133239   4.808   5.938  11.358  0.8716 -1.3252 -0.9658
 3916TIP3    H233240   4.831   5.822  11.453 -0.1699 -0.9477 -0.2436
 3917TIP3   OH233241   1.364   2.197   3.320 -0.2755  0.4027 -0.5323
 3917TIP3    H133242   1.384   2.265   3.256  1.1804  1.0213  0.5437
 3917TIP3    H233243   1.278   2.221   3.355 -0.9102  0.2601 -1.9713
 3918TIP3   OH233244   1.398   4.641  17.031 -0.3757  0.0015  0.5781
 3918TIP3    H133245   1.408   4.727  17.071 -0.8067  0.4393 -0.2461
 3918TIP3    H233246   1.463   4.586  17.075  0.3368  0.9065  0.6632
 3919TIP3   OH233247   3.039   4.954   0.705 -0.3658  0.0256 -0.1756
 3919TIP3    H133248   3.116   5.011   0.707 -0.5398  0.2602 -0.1455
 3919TIP3    H233249   3.073   4.868   0.681  0.0177 -0.0394  0.5879
 3920TIP3   OH233250   4.612   4.676  14.603 -0.2550 -0.0227  0.0479
 3920TIP3    H133251   4.662   4.635  14.674 -0.2275  0.6144  0.3950
 3920TIP3    H233252   4.669   4.746  14.571 -0.3583 -0.1712 -0.4586
 3921TIP3   OH233253   5.498   1.056  15.948 -0.5842  0.4502  0.4959
 3921TIP3    H133254   5.465   0.976  15.990 -0.9569 -0.6384 -1.8258
 3921TIP3    H233255   5.584   1.069  15.989  0.7258 -2.7468 -1.0195
 3922TIP3   OH233256   4.273   0.367  14.600  0.4861  0.1137  0.5444
 3922TIP3    H133257   4.321   0.288  14.575  1.9323  1.2424 -0.2887
 3922TIP3    H233258   4.247   0.351  14.691  1.4018 -1.0079  0.6258
 3923TIP3   OH233259   4.618   2.993   1.619 -0.4635  0.0161 -0.3451
 3923TIP3    H133260   4.591   3.084   1.610  0.2499  0.3986  1.1371
 3923TIP3    H233261   4.642   2.985   1.711  1.8776 -1.0161 -1.0225
 3924TIP3   OH233262   1.241   5.161   0.799  0.7361  0.0455 -0.4764
 3924TIP3    H133263   1.303   5.116   0.742  0.6892  0.4033 -0.8122
 3924TIP3    H233264   1.297   5.211   0.859  0.7715  0.2895 -0.7144
 3925TIP3   OH233265   1.357   6.015   1.555  0.0329 -0.3329 -0.3170
 3925TIP3    H133266   1.287   6.079   1.543 -0.0661 -0.0879  1.4881
 3925TIP3    H233267   1.317   5.931   1.530 -0.5022 -0.0099 -0.5569
 3926TIP3   OH233268   1.530   6.759  17.203  0.2359  0.7054 -0.3528
 3926TIP3    H133269   1.468   6.696  17.240  0.8027  0.8874  0.9320
 3926TIP3    H233270   1.477   6.837  17.187  0.2610  1.1240  1.4549
 3927TIP3   OH233271   1.505   0.393  12.924  0.4929 -0.1505  0.4134
 3927TIP3    H133272   1.496   0.481  12.960 -0.6572 -0.5458  1.1385
 3927TIP3    H233273   1.472   0.335  12.993 -0.0614 -1.0478 -0.5797
 3928TIP3   OH233274   3.161   6.661  11.410 -0.6622 -0.4873 -0.2948
 3928TIP3    H133275   3.228   6.702  11.465  0.2980 -1.5832 -0.6322
 3928TIP3    H233276   3.120   6.734  11.364 -0.3089  0.2758  0.5907
 3929TIP3   OH233277   1.491   0.806  12.511  0.3127 -0.0371 -0.2081
 3929TIP3    H133278   1.414   0.810  12.456 -0.0765  1.8281  0.4571
 3929TIP3    H233279   1.565   0.800  12.450 -0.1881  0.7052 -0.8834
 3930TIP3   OH233280   0.858   2.577   3.769 -0.2373 -0.0889  0.1758
 3930TIP3    H133281   0.871   2.510   3.701 -1.1564  0.1924 -0.2797
 3930TIP3    H233282   0.897   2.656   3.733  1.0730 -0.4194  0.8176
 3931TIP3   OH233283   4.973   0.894  14.396 -0.5033 -0.2012  0.2648
 3931TIP3    H133284   4.994   0.960  14.462 -0.5091  0.7936 -0.7068
 3931TIP3    H233285   5.056   0.851  14.376 -0.3572  0.0464  0.3442
 3932TIP3   OH233286   6.118   5.027  15.558 -0.2233 -0.2728  0.1571
 3932TIP3    H133287   6.067   5.012  15.638 -0.6093 -1.3628 -0.2870
 3932TIP3    H233288   6.207   5.040  15.589 -0.6344  1.0197  0.8942
 3933TIP3   OH233289   1.210   3.241   2.260  0.3668  0.2240 -0.5649
 3933TIP3    H133290   1.186   3.204   2.344  2.4606 -0.3658 -0.1831
 3933TIP3    H233291   1.236   3.331   2.281  0.5416  0.1894 -0.6337
 3934TIP3   OH233292   2.045   3.995  12.579  0.4140 -0.0527 -0.1463
 3934TIP3    H133293   1.992   3.974  12.502  1.8140 -2.3133 -0.5531
 3934TIP3    H233294   2.016   4.082  12.605 -3.5622 -1.2495 -0.2623
 3935TIP3   OH233295   4.677   2.976   4.746 -0.0997 -0.7250 -0.0545
 3935TIP3    H133296   4.581   2.972   4.739 -0.0912  1.3794 -1.8012
 3935TIP3    H233297   4.708   2.953   4.659  0.9752 -0.5123  0.2646
 3936TIP3   OH233298   3.847   1.219  13.927  0.0041 -0.2544 -0.0333
 3936TIP3    H133299   3.820   1.127  13.932  0.7938 -0.4558  0.5779
 3936TIP3    H233300   3.801   1.253  13.851  0.0145 -1.2626 -0.5003
 3937TIP3   OH233301   2.021   1.621  16.171  0.6529  0.1285  0.1578
 3937TIP3    H133302   2.006   1.532  16.205 -0.5726  0.3124  0.1319
 3937TIP3    H233303   1.991   1.616  16.080 -0.7412  0.9199  0.5567
 3938TIP3   OH233304   6.681   4.333   4.569  0.2969 -0.6676 -0.6358
 3938TIP3    H133305   6.718   4.318   4.482  2.1694  1.9591 -0.3706
 3938TIP3    H233306   6.715   4.261   4.622  1.6237 -0.6172 -1.3941
 3939TIP3   OH233307   3.765   2.815  13.701  0.6005 -0.2142 -0.3863
 3939TIP3    H133308   3.805   2.839  13.785 -1.4744  2.5854 -0.1336
 3939TIP3    H233309   3.818   2.858  13.635 -0.2972  1.1628 -0.2227
 3940TIP3   OH233310   5.795   4.657   3.699 -0.1658 -0.7063 -0.2871
 3940TIP3    H133311   5.754   4.634   3.616 -1.2021  0.2201 -0.0437
 3940TIP3    H233312   5.820   4.749   3.688  1.2637 -1.0755 -0.1938
 3941TIP3   OH233313   2.547   4.595   5.072 -0.6293 -0.4294 -0.0492
 3941TIP3    H133314   2.509   4.578   5.159 -1.6640  1.1274 -0.1802
 3941TIP3    H233315   2.565   4.689   5.072 -0.9507 -0.3562 -1.6436
 3942TIP3   OH233316   6.050   1.742  14.264 -0.1208  0.4730  0.1113
 3942TIP3    H133317   6.111   1.811  14.240  1.1577 -0.9191 -0.7213
 3942TIP3    H233318   6.104   1.664  14.275 -1.7607 -0.8214 -0.7209
 3943TIP3   OH233319   2.058   5.966  11.398 -0.0334 -0.7433 -0.6367
 3943TIP3    H133320   2.086   6.008  11.480  2.6280 -1.4712 -1.1142
 3943TIP3    H233321   1.992   6.025  11.362  0.5094  0.8123  0.8589
 3944TIP3   OH233322   1.231   3.123   5.801 -0.1309  0.0146  0.1646
 3944TIP3    H133323   1.169   3.063   5.758 -1.2985  2.5352 -1.7570
 3944TIP3    H233324   1.313   3.111   5.753  0.4332 -1.9659  1.5309
 3945TIP3   OH233325   0.670   4.931  13.460 -0.0077  0.4128  0.1138
 3945TIP3    H133326   0.732   4.868  13.498 -1.1627 -0.5861  0.3546
 3945TIP3    H233327   0.672   4.914  13.366 -2.4187 -1.9592  0.4227
 3946TIP3   OH233328   4.242   5.531   1.352 -0.0696 -1.0209 -0.0670
 3946TIP3    H133329   4.172   5.587   1.318 -0.2546  0.2262  2.2863
 3946TIP3    H233330   4.198   5.451   1.378 -0.0649 -1.6212 -1.8012
 3947TIP3   OH233331   0.085   3.051  17.099 -0.0499  0.2910 -0.3762
 3947TIP3    H133332   0.060   2.958  17.102  3.1131 -0.6665 -1.6684
 3947TIP3    H233333   0.116   3.064  17.010 -1.7235  3.0104 -0.6163
 3948TIP3   OH233334   0.065   5.671   2.020  0.7834 -0.1853 -0.0295
 3948TIP3    H133335   0.042   5.584   1.986 -0.5346  0.3327 -0.4952
 3948TIP3    H233336   0.077   5.725   1.942  0.9952  0.2011  0.2678
 3949TIP3   OH233337   3.693   1.412  12.626  0.5914 -0.3913  0.2560
 3949TIP3    H133338   3.749   1.357  12.572  0.0054  0.0879 -0.8418
 3949TIP3    H233339   3.606   1.371  12.620  0.5612 -0.4542  1.0025
 3950TIP3   OH233340   1.957   0.961  15.991  0.1951  0.0136 -0.1194
 3950TIP3    H133341   1.952   1.052  15.963 -0.8623  0.3410  1.0816
 3950TIP3    H233342   2.038   0.956  16.041  0.1121  0.3737  0.0557
 3951TIP3   OH233343   4.194   5.934  12.401  0.1428 -0.0558  0.3961
 3951TIP3    H133344   4.114   5.900  12.442  0.5020 -0.7795  0.4955
 3951TIP3    H233345   4.234   5.858  12.360  1.1061  0.1828  0.8686
 3952TIP3   OH233346   3.032   1.561  14.682 -0.4352  0.1421 -0.3605
 3952TIP3    H133347   3.051   1.488  14.741  0.0280 -1.1586 -2.0639
 3952TIP3    H233348   3.111   1.569  14.629 -1.1699  0.7401 -1.3743
 3953TIP3   OH233349   0.212   4.807  17.176 -0.1201 -0.1368  0.7912
 3953TIP3    H133350   0.199   4.713  17.165  0.7439 -0.2541  0.8030
 3953TIP3    H233351   0.307   4.819  17.180 -0.1931  0.8489 -0.2140
 3954TIP3   OH233352   5.699   5.334   1.469 -0.4297  0.0753 -0.2124
 3954TIP3    H133353   5.709   5.427   1.487  0.8359  0.0708 -0.8645
 3954TIP3    H233354   5.717   5.291   1.553 -0.1483  0.3642 -0.1248
 3955TIP3   OH233355   3.036   6.368   4.038 -0.1020  0.1650  0.1415
 3955TIP3    H133356   3.086   6.354   3.958 -0.4218 -0.0029 -0.0273
 3955TIP3    H233357   3.084   6.437   4.085  0.0709  0.2760 -0.2014
 3956TIP3   OH233358   2.347   2.255  16.889 -0.0716 -0.1873 -0.4669
 3956TIP3    H133359   2.306   2.205  16.819 -1.3046  1.8954 -1.2866
 3956TIP3    H233360   2.393   2.327  16.844  2.0795 -0.8139  0.6371
 3957TIP3   OH233361   0.553   2.592  11.014 -0.0292  0.2811 -0.6005
 3957TIP3    H133362   0.596   2.579  11.099 -0.8103 -1.5810 -0.4497
 3957TIP3    H233363   0.518   2.505  10.992 -2.2647  1.3714 -1.4882
 3958TIP3   OH233364   3.253   0.378   1.787 -0.0237 -0.0444  0.0318
 3958TIP3    H133365   3.283   0.359   1.876  1.9632  0.7522 -0.4308
 3958TIP3    H233366   3.162   0.406   1.798  0.4220  0.8026  1.9018
 3959TIP3   OH233367   2.292   4.985   1.072 -0.2938 -0.1517 -0.7365
 3959TIP3    H133368   2.246   5.066   1.053 -1.7348 -1.0584 -1.2439
 3959TIP3    H233369   2.385   5.005   1.058 -0.2707  2.3425  2.5965
 3960TIP3   OH233370   0.389   1.150   6.035  0.3477  0.3842  0.1006
 3960TIP3    H133371   0.302   1.186   6.049  0.6720  1.1093  0.2438
 3960TIP3    H233372   0.447   1.208   6.083  1.1237  0.9696 -1.5140
 3961TIP3   OH233373   0.261   4.912  11.503  0.2996  0.3646 -0.0254
 3961TIP3    H133374   0.241   4.886  11.413  1.3467  1.2593 -0.5222
 3961TIP3    H233375   0.289   4.830  11.545 -2.1066 -0.4567  0.0687
 3962TIP3   OH233376   4.359   6.156   2.301  0.1976  0.6658 -0.0025
 3962TIP3    H133377   4.332   6.077   2.347 -0.3572  1.8902  1.8461
 3962TIP3    H233378   4.367   6.222   2.370  2.8633  1.6494 -1.2075
 3963TIP3   OH233379   4.300   2.272  11.870  0.4117  0.2706  0.3233
 3963TIP3    H133380   4.216   2.268  11.824  0.3189  0.8146  0.4419
 3963TIP3    H233381   4.331   2.181  11.871 -0.3626  0.0061  0.6330
 3964TIP3   OH233382   3.634   0.071   3.300 -0.3970  0.0902 -0.1263
 3964TIP3    H133383   3.710   0.024   3.264  0.5329  0.9472  0.6583
 3964TIP3    H233384   3.585   0.099   3.223  1.2733  1.4109 -0.7709
 3965TIP3   OH233385   4.106   0.959  15.085  0.5069  0.5465 -0.2838
 3965TIP3    H133386   4.102   1.051  15.060 -0.3445  0.4589 -0.5011
 3965TIP3    H233387   4.199   0.941  15.097  0.6524  1.5120  0.0611
 3966TIP3   OH233388   2.722   4.717   6.191 -0.4774 -0.0468 -0.5765
 3966TIP3    H133389   2.808   4.742   6.225 -1.0777 -0.6354  1.4449
 3966TIP3    H233390   2.661   4.779   6.231 -1.1870 -0.6843 -0.6593
 3967TIP3   OH233391   4.805   6.523  13.821  0.0249 -0.1655 -0.1628
 3967TIP3    H133392   4.745   6.564  13.759  0.2587  2.3127  1.1866
 3967TIP3    H233393   4.891   6.532  13.781 -0.0705 -0.5825 -0.4765
 3968TIP3   OH233394   0.424   5.493  14.346  0.2953 -0.2613  0.3785
 3968TIP3    H133395   0.381   5.556  14.287 -0.2457 -1.4962 -0.5738
 3968TIP3    H233396   0.505   5.469  14.300  0.6366 -0.0660  0.8684
 3969TIP3   OH233397   2.312   3.806  12.163  0.1898 -0.2068 -0.0831
 3969TIP3    H133398   2.304   3.745  12.089 -2.7400  1.3000 -1.1167
 3969TIP3    H233399   2.248   3.775  12.226  1.7668 -0.7204  1.2839
 3970TIP3   OH233400   4.067   6.181   4.053 -0.2916 -0.4579  0.2768
 3970TIP3    H133401   4.161   6.199   4.049 -0.3334  0.1680  1.6880
 3970TIP3    H233402   4.042   6.163   3.963  0.2087  4.6474 -1.0811
 3971TIP3   OH233403   0.659   6.162  15.696  0.3272  0.6210  0.2406
 3971TIP3    H133404   0.681   6.091  15.757 -0.3814  1.4760  1.5129
 3971TIP3    H233405   0.655   6.120  15.611 -2.4996 -1.3771  1.2778
 3972TIP3   OH233406   3.513   5.076   2.843 -0.0100 -0.4513 -0.5365
 3972TIP3    H133407   3.588   5.033   2.802  1.0207  1.4493 -0.7048
 3972TIP3    H233408   3.481   5.137   2.776 -0.3438  0.3069  0.3113
 3973TIP3   OH233409   2.971   4.565  12.463 -0.0879  0.4773 -0.0424
 3973TIP3    H133410   2.924   4.638  12.423  0.2535  0.1854 -0.9806
 3973TIP3    H233411   2.902   4.501  12.483 -0.3130  0.8108  0.2532
 3974TIP3   OH233412   3.689   1.682  11.703  0.2315 -0.3262  0.0627
 3974TIP3    H133413   3.668   1.622  11.631 -0.1722 -1.6513  1.2529
 3974TIP3    H233414   3.665   1.633  11.782  2.0088  0.5289  1.1671
 3975TIP3   OH233415   1.878   2.155   2.396  0.2947  0.1886 -0.2048
 3975TIP3    H133416   1.907   2.243   2.371  0.6968  0.7579  2.1151
 3975TIP3    H233417   1.784   2.165   2.411  0.3507  0.2455  0.1152
 3976TIP3   OH233418   5.266   4.848   5.902 -0.6091  0.1041 -0.6626
 3976TIP3    H133419   5.183   4.876   5.863 -1.4904 -0.0798  1.0383
 3976TIP3    H233420   5.250   4.850   5.997  0.6920 -1.8917 -0.3721
 3977TIP3   OH233421   5.387   5.955  11.846 -0.2393  0.3748 -0.1718
 3977TIP3    H133422   5.369   5.999  11.929  2.1765 -1.0341  1.1341
 3977TIP3    H233423   5.434   6.020  11.794 -1.4459  1.1389 -0.3259
 3978TIP3   OH233424   2.738   1.929   4.314 -0.1415  0.1497 -0.0218
 3978TIP3    H133425   2.646   1.905   4.304  0.0549 -0.5739 -0.0575
 3978TIP3    H233426   2.764   1.888   4.397  1.3064 -3.1711 -2.0515
 3979TIP3   OH233427   4.349   4.476   1.927  0.5637  0.1082 -0.0149
 3979TIP3    H133428   4.403   4.469   2.006 -1.3391 -1.3912  1.1941
 3979TIP3    H233429   4.318   4.567   1.928  0.6040  0.1209  0.9420
 3980TIP3   OH233430   3.292   3.656   3.084  0.4493  0.0770  0.1207
 3980TIP3    H133431   3.371   3.708   3.101  1.4865 -1.3856 -0.1163
 3980TIP3    H233432   3.225   3.696   3.138  1.2955  1.5021  0.1432
 3981TIP3   OH233433   0.385   3.156   0.689 -0.2174  0.0748  0.5293
 3981TIP3    H133434   0.432   3.233   0.719 -0.8726  0.8243 -0.3584
 3981TIP3    H233435   0.390   3.161   0.593  0.6130 -1.5142  0.4721
 3982TIP3   OH233436   2.564   3.908   1.172 -0.3007  0.6302 -0.2656
 3982TIP3    H133437   2.589   3.822   1.139  2.3894  1.9184 -1.7586
 3982TIP3    H233438   2.646   3.947   1.202 -1.2730  3.1583 -0.7864
 3983TIP3   OH233439   4.747   2.646   4.679 -0.9740  1.2815 -0.1637
 3983TIP3    H133440   4.657   2.678   4.673 -1.2270  0.5034 -0.5660
 3983TIP3    H233441   4.780   2.651   4.590 -1.1313  0.1060 -0.3018
 3984TIP3   OH233442   2.929   5.337   2.565  0.0568 -0.7298  0.2230
 3984TIP3    H133443   2.855   5.338   2.625  0.2583 -1.0429  0.4802
 3984TIP3    H233444   2.890   5.331   2.478 -0.2957  1.3348  0.2053
 3985TIP3   OH233445   1.763   1.732   6.283  0.0351  0.2696  0.1888
 3985TIP3    H133446   1.731   1.815   6.247  0.2433  0.1945 -0.1811
 3985TIP3    H233447   1.852   1.751   6.312 -0.7118  0.7433  2.1815
 3986TIP3   OH233448   4.814   3.849  15.418  0.1686  0.3028 -0.3663
 3986TIP3    H133449   4.719   3.863  15.414 -0.3590 -2.7836  0.3870
 3986TIP3    H233450   4.838   3.824  15.328 -0.1893 -1.4484  0.0080
 3987TIP3   OH233451   2.387   3.505  13.936 -0.7064  0.1292  0.2720
 3987TIP3    H133452   2.453   3.537  13.998  0.8447  0.5393 -1.5357
 3987TIP3    H233453   2.352   3.427  13.977  2.0241 -0.9787  0.6058
 3988TIP3   OH233454   6.224   4.837  12.592  0.2426  0.1340 -0.7546
 3988TIP3    H133455   6.307   4.885  12.594 -0.3583  1.1621 -0.3593
 3988TIP3    H233456   6.189   4.844  12.681 -0.0584 -0.6830 -0.8004
 3989TIP3   OH233457   5.229   3.616  17.000  0.4036 -0.0656  0.3628
 3989TIP3    H133458   5.158   3.675  16.975 -0.0417 -0.7230  0.0759
 3989TIP3    H233459   5.240   3.558  16.925  0.8915 -0.2981  0.6126
 3990TIP3   OH233460   1.864   4.578  13.092 -0.1413 -0.5440 -0.5003
 3990TIP3    H133461   1.942   4.603  13.142 -0.1362 -1.2027 -0.1712
 3990TIP3    H233462   1.791   4.607  13.146 -0.1187  1.0238 -1.3050
 3991TIP3   OH233463   0.536   2.708   5.906 -0.0320 -0.4572 -0.3644
 3991TIP3    H133464   0.492   2.628   5.876 -0.2825  0.0591 -1.4197
 3991TIP3    H233465   0.552   2.757   5.825 -1.5295  1.3808  0.4432
 3992TIP3   OH233466   5.918   1.035   4.016 -0.2547  0.2263  0.3712
 3992TIP3    H133467   6.010   1.033   3.989 -0.1115  0.8548  0.7994
 3992TIP3    H233468   5.869   1.053   3.936  0.1455  1.8136  0.4615
 3993TIP3   OH233469   3.968   5.591   3.247 -0.1597  0.6551  0.0721
 3993TIP3    H133470   4.045   5.575   3.191 -0.9879  1.0330 -1.2042
 3993TIP3    H233471   3.978   5.530   3.320  1.5839  1.0048  0.1545
 3994TIP3   OH233472   0.282   1.630   3.988 -0.7001  0.4266 -0.3481
 3994TIP3    H133473   0.229   1.673   4.056  0.6311  0.5627  0.6167
 3994TIP3    H233474   0.360   1.685   3.980  0.5542 -1.2443  0.1565
 3995TIP3   OH233475   6.677   4.699  15.763 -0.1658 -0.1062  0.7813
 3995TIP3    H133476   6.631   4.755  15.826  0.6343  1.2497  0.1890
 3995TIP3    H233477   6.769   4.726  15.769  0.1469 -0.9926  0.1071
 3996TIP3   OH233478   3.341   2.355  16.540 -0.3083  0.1743  0.4202
 3996TIP3    H133479   3.361   2.262  16.526  0.4844  0.5231 -0.8179
 3996TIP3    H233480   3.259   2.369  16.492  0.8070  0.6507 -1.3981
 3997TIP3   OH233481   0.692   2.213  16.336 -0.6079 -0.1022  0.6156
 3997TIP3    H133482   0.646   2.260  16.406 -1.0724  0.2293  0.0935
 3997TIP3    H233483   0.637   2.226  16.259  0.1484 -0.0507  0.0795
 3998TIP3   OH233484   2.837   4.960  15.396 -0.1594 -0.2311  0.3417
 3998TIP3    H133485   2.777   5.004  15.456 -1.0191 -2.5111  1.1903
 3998TIP3    H233486   2.880   4.893  15.449  0.4541 -1.0435 -1.1490
 3999TIP3   OH233487   2.048   0.271   4.028 -0.1012 -0.3845  0.5117
 3999TIP3    H133488   1.954   0.279   4.047  0.0521  0.5041  0.9083
 3999TIP3    H233489   2.082   0.219   4.100 -0.2005 -0.2631  0.6478
 4000TIP3   OH233490   2.117   3.512  15.989 -0.6180  0.2102  0.3935
 4000TIP3    H133491   2.200   3.546  15.955 -1.0286  1.3381  0.4937
 4000TIP3    H233492   2.053   3.581  15.970 -1.8153 -1.1906 -0.8741
 4001TIP3   OH233493   0.527   5.469  13.298  0.1583 -0.2274 -0.0162
 4001TIP3    H133494   0.615   5.461  13.335 -0.4690  0.3155  1.6559
 4001TIP3    H233495   0.535   5.437  13.208  2.3650  1.0948 -0.3312
 4002TIP3   OH233496   2.515   5.382  11.231 -0.2924  0.2262  0.5837
 4002TIP3    H133497   2.572   5.308  11.250 -0.4344 -0.6361 -2.1491
 4002TIP3    H233498   2.426   5.346  11.235 -0.4044  0.4412  0.0583
 4003TIP3   OH233499   6.163   1.897  16.116 -0.0846  0.2686  0.5709
 4003TIP3    H133500   6.082   1.936  16.147 -0.0383 -0.8817  2.2255
 4003TIP3    H233501   6.136   1.836  16.047 -0.2584  2.3850 -1.2725
 4004TIP3   OH233502   2.068   5.403  16.207  0.2464 -0.5542  0.3576
 4004TIP3    H133503   2.058   5.461  16.283  0.8143  0.2496 -0.1682
 4004TIP3    H233504   2.006   5.436  16.143 -0.1778 -1.1855  0.4409
 4005TIP3   OH233505   2.066   1.989   1.752 -0.0365  0.1591  0.3524
 4005TIP3    H133506   2.121   1.956   1.824  0.5687 -1.4961 -0.8321
 4005TIP3    H233507   1.992   2.030   1.796  0.0589 -1.2754  1.9385
 4006TIP3   OH233508   1.407   4.415  14.383  0.3642 -0.5343 -0.4462
 4006TIP3    H133509   1.475   4.348  14.385 -0.5908 -1.5924 -2.6625
 4006TIP3    H233510   1.333   4.376  14.429  0.5355 -0.1571  0.1624
 4007TIP3   OH233511   3.409   6.449  15.796 -0.2360  0.0853 -0.1614
 4007TIP3    H133512   3.378   6.359  15.802 -2.2948  0.5427 -2.9348
 4007TIP3    H233513   3.405   6.481  15.886 -3.9339 -1.2124  0.2470
 4008TIP3   OH233514   4.914   4.323   6.427  0.3927 -0.0073  0.7310
 4008TIP3    H133515   4.848   4.327   6.357 -0.4473  0.2618  1.5355
 4008TIP3    H233516   4.959   4.240   6.411  1.1703  0.7275 -0.9833
 4009TIP3   OH233517   2.015   1.354  16.249  0.7179  0.4015  0.1151
 4009TIP3    H133518   1.981   1.309  16.326  0.8567  2.2300  1.2924
 4009TIP3    H233519   2.110   1.355  16.261  0.8640 -0.6959 -0.8823
 4010TIP3   OH233520   5.872   6.153   0.630 -0.7596  0.1921  0.0899
 4010TIP3    H133521   5.882   6.076   0.687 -1.5355  0.6549  0.8621
 4010TIP3    H233522   5.779   6.175   0.636 -0.8511  0.2309 -1.3917
 4011TIP3   OH233523   5.068   1.673  15.780  0.0655 -0.2045  0.2559
 4011TIP3    H133524   5.033   1.761  15.769 -0.1146 -0.3765 -0.5693
 4011TIP3    H233525   4.995   1.622  15.817 -0.0312 -0.1578  0.1288
 4012TIP3   OH233526   6.278   2.800   4.786  0.3500  0.1137  0.0700
 4012TIP3    H133527   6.218   2.763   4.721  0.5283  1.2969 -0.7963
 4012TIP3    H233528   6.337   2.856   4.734  1.1976  0.1977  1.1104
 4013TIP3   OH233529   2.613   3.232   1.847 -0.0033  0.1124  0.2143
 4013TIP3    H133530   2.580   3.322   1.843 -2.8646 -0.9726 -2.0478
 4013TIP3    H233531   2.611   3.210   1.941 -0.2710  2.0307  0.6803
 4014TIP3   OH233532   1.243   1.403  11.310 -0.2851  0.1938  0.4497
 4014TIP3    H133533   1.278   1.433  11.394  0.8336  0.1123  0.0152
 4014TIP3    H233534   1.312   1.349  11.273 -0.6532  0.4780 -0.6683
 4015TIP3   OH233535   3.013   6.652   0.869  0.0062 -0.1871 -0.0817
 4015TIP3    H133536   3.034   6.741   0.897 -0.3399  0.4714 -1.8579
 4015TIP3    H233537   2.927   6.660   0.827  0.2219 -1.2426 -0.7456
 4016TIP3   OH233538   1.892   2.220   5.440 -0.5907 -0.6796 -0.4267
 4016TIP3    H133539   1.973   2.184   5.404 -0.0695 -1.2267  1.2331
 4016TIP3    H233540   1.824   2.159   5.413  0.2016 -2.6387  1.8603
 4017TIP3   OH233541   0.089   3.797   0.801  0.3217  0.1602  0.5855
 4017TIP3    H133542   0.153   3.748   0.749 -0.1274  2.0320 -1.8598
 4017TIP3    H233543   0.072   3.742   0.877  2.8532 -1.5680 -0.0494
 4018TIP3   OH233544   4.395   5.631  12.761  0.1755  0.5010 -0.4226
 4018TIP3    H133545   4.322   5.692  12.765 -1.1359 -1.0521 -0.1053
 4018TIP3    H233546   4.468   5.678  12.800 -0.9332  1.6973  0.2455
 4019TIP3   OH233547   1.109   0.864   4.079 -0.1653  0.2138  0.7201
 4019TIP3    H133548   1.184   0.853   4.021 -0.4531  0.2704  0.3407
 4019TIP3    H233549   1.033   0.854   4.022 -0.5093 -3.3463  1.6442
 4020TIP3   OH233550   0.568   6.302  11.855 -0.2131  0.1677 -0.5455
 4020TIP3    H133551   0.517   6.330  11.780 -0.9804 -0.1099 -0.1270
 4020TIP3    H233552   0.563   6.206  11.853 -0.9294  0.1898  0.3501
 4021TIP3   OH233553   6.753   2.114  14.802 -0.1334 -0.2699 -0.1510
 4021TIP3    H133554   6.693   2.056  14.850 -0.4308  0.3748  0.2636
 4021TIP3    H233555   6.702   2.193  14.786  0.4263  0.0634 -0.2936
 4022TIP3   OH233556   4.245   0.094  11.502 -0.5410  0.4154 -0.0168
 4022TIP3    H133557   4.303   0.018  11.513  0.1198  1.1847  1.8993
 4022TIP3    H233558   4.185   0.090  11.577 -2.1926  0.3327 -1.3091
 4023TIP3   OH233559   0.239   5.360  16.198 -0.3221  0.1097 -0.0621
 4023TIP3    H133560   0.324   5.315  16.189 -0.2320  0.5141 -1.3156
 4023TIP3    H233561   0.247   5.437  16.143 -0.3796  1.8590  2.3067
 4024TIP3   OH233562   0.235   4.645  14.912  0.0399  0.1860 -0.2244
 4024TIP3    H133563   0.220   4.718  14.853  1.7028 -1.1516 -2.3852
 4024TIP3    H233564   0.317   4.666  14.957 -0.1217  0.2304  0.0483
 4025TIP3   OH233565   5.155   4.296   3.458  0.2127  0.1778 -0.1574
 4025TIP3    H133566   5.169   4.201   3.452 -0.5521  0.0229  0.4345
 4025TIP3    H233567   5.166   4.315   3.552  1.0856  0.7917 -0.3768
 4026TIP3   OH233568   0.077   6.232   1.320 -0.3508 -0.5308  0.4698
 4026TIP3    H133569   0.037   6.306   1.367 -1.5602 -0.0016 -1.3373
 4026TIP3    H233570   0.085   6.164   1.386 -4.0643 -0.5783  0.9966
 4027TIP3   OH233571   3.467   0.996   2.900  0.1526  0.0417 -0.6490
 4027TIP3    H133572   3.433   1.066   2.844  1.1291  1.2259  0.1895
 4027TIP3    H233573   3.503   1.042   2.975  0.6107 -1.4035  0.0315
 4028TIP3   OH233574   3.742   6.341   4.194 -0.2036  0.4834  0.2873
 4028TIP3    H133575   3.758   6.400   4.120 -0.0241 -1.9339 -1.6701
 4028TIP3    H233576   3.653   6.360   4.222 -1.2127 -0.3289 -2.2522
 4029TIP3   OH233577   5.213   0.535  16.642 -0.1746 -0.0764 -0.6152
 4029TIP3    H133578   5.177   0.604  16.585 -0.5902 -0.6041 -0.9928
 4029TIP3    H233579   5.262   0.478  16.583 -0.9835 -0.8803 -0.5265
 4030TIP3   OH233580   2.115   6.776   4.981 -0.0970 -0.5306  0.3262
 4030TIP3    H133581   2.069   6.748   4.901 -0.5117 -2.7013  1.3040
 4030TIP3    H233582   2.052   6.833   5.026 -0.5658 -0.8012  0.0227
 4031TIP3   OH233583   1.365   6.569  12.754  0.0094  0.2537  0.1356
 4031TIP3    H133584   1.443   6.517  12.735  0.4980  1.4818 -1.3712
 4031TIP3    H233585   1.395   6.659  12.753 -1.3713  0.7321 -0.1908
 4032TIP3   OH233586   2.407   1.144   3.243 -0.3103  0.3297 -0.0056
 4032TIP3    H133587   2.452   1.227   3.262 -1.1901  0.5242  1.3268
 4032TIP3    H233588   2.367   1.158   3.157 -0.2752  1.2161  0.1138
 4033TIP3   OH233589   6.359   4.774   0.167  1.1221  0.2999 -0.7552
 4033TIP3    H133590   6.306   4.850   0.141  0.4013 -0.0868 -0.4239
 4033TIP3    H233591   6.441   4.812   0.198  0.7378  0.9469 -0.5230
 4034TIP3   OH233592   3.219   4.404  17.233  0.3129 -0.4274  0.3648
 4034TIP3    H133593   3.229   4.455  17.152 -0.1163  0.0869  0.6270
 4034TIP3    H233594   3.289   4.339  17.230 -1.9825 -2.9049 -2.2503
 4035TIP3   OH233595   5.186   6.024  13.364 -0.0896  0.4647 -0.3130
 4035TIP3    H133596   5.171   5.979  13.280 -0.3047  1.5454 -0.8541
 4035TIP3    H233597   5.142   6.108  13.354  0.1693  0.7271  0.7745
 4036TIP3   OH233598   3.265   1.498   4.834  0.1119  0.1461  0.2025
 4036TIP3    H133599   3.298   1.504   4.923  0.8791 -0.7550 -0.0050
 4036TIP3    H233600   3.177   1.463   4.844  0.2702 -0.1473  0.6033
 4037TIP3   OH233601   4.003   4.443   4.223  0.3337 -0.0053 -0.7103
 4037TIP3    H133602   3.945   4.410   4.154  0.6187 -0.5239 -0.7066
 4037TIP3    H233603   4.050   4.365   4.254 -1.4127 -0.1565  1.6249
 4038TIP3   OH233604   0.214   4.851   2.140 -0.3986  0.5824 -0.2437
 4038TIP3    H133605   0.170   4.876   2.221  0.3053  1.3264 -0.0879
 4038TIP3    H233606   0.255   4.931   2.108  1.1177 -0.1597 -0.2176
 4039TIP3   OH233607   4.158   1.499  16.010  0.4582 -0.0329  0.0416
 4039TIP3    H133608   4.197   1.582  16.037 -1.5296  0.7472  0.6183
 4039TIP3    H233609   4.218   1.465  15.944  2.4248  0.7988  1.3673
 4040TIP3   OH233610   0.048   6.445  10.530  0.8878 -0.0318 -0.2305
 4040TIP3    H133611   0.049   6.539  10.542 -0.4526  0.0680 -0.7198
 4040TIP3    H233612   0.069   6.409  10.616  2.6812  0.7091 -0.3527
 4041TIP3   OH233613   3.439   0.978  16.902  0.3495 -0.2168 -0.0265
 4041TIP3    H133614   3.408   1.068  16.908 -1.3712 -0.8498  0.8924
 4041TIP3    H233615   3.433   0.956  16.809  0.4061  0.4758 -0.1961
 4042TIP3   OH233616   6.573   1.307  14.947 -0.2395 -0.0808 -0.1788
 4042TIP3    H133617   6.528   1.377  14.900 -0.0529  0.1730  0.0216
 4042TIP3    H233618   6.556   1.229  14.895  0.2123  0.2471 -0.8228
 4043TIP3   OH233619   4.603   3.442  11.566 -0.0413  0.1318  0.0414
 4043TIP3    H133620   4.622   3.512  11.628 -0.2338 -0.4085  0.7191
 4043TIP3    H233621   4.660   3.370  11.593  0.3664  0.1163 -0.8264
 4044TIP3   OH233622   4.224   3.534   2.043 -0.0387  0.1115 -0.4049
 4044TIP3    H133623   4.181   3.583   1.973 -0.5567  0.6628  0.2905
 4044TIP3    H233624   4.186   3.446   2.037 -1.0941  0.5217  0.0395
 4045TIP3   OH233625   5.357   3.763  16.241  0.9208  0.9539 -0.2176
 4045TIP3    H133626   5.305   3.773  16.321  0.4026  0.7692 -0.5294
 4045TIP3    H233627   5.296   3.782  16.170  0.9885 -0.3124 -0.6365
 4046TIP3   OH233628   5.037   4.141   2.743  0.1460 -0.1096  0.1480
 4046TIP3    H133629   5.075   4.166   2.659 -0.6790 -1.4533 -0.6456
 4046TIP3    H233630   4.965   4.082   2.721 -0.5213  0.0503  1.7652
 4047TIP3   OH233631   6.727   4.814  13.187 -0.4219  0.1971  0.0895
 4047TIP3    H133632   6.639   4.817  13.147  0.3736 -0.8102 -1.8272
 4047TIP3    H233633   6.753   4.722  13.178  0.2721  0.2047  1.9306
 4048TIP3   OH233634   6.092   2.762   0.881  0.2899  0.2380 -0.1713
 4048TIP3    H133635   6.151   2.755   0.805 -0.5317  0.7085 -0.8573
 4048TIP3    H233636   6.006   2.741   0.846  0.1461 -1.1902  0.9946
 4049TIP3   OH233637   4.969   6.579  14.258  0.4389  0.1780  0.1559
 4049TIP3    H133638   4.999   6.654  14.206  1.4429 -1.0859 -1.1085
 4049TIP3    H233639   4.907   6.534  14.200  1.2723 -1.0246  0.1880
 4050TIP3   OH233640   4.423   5.038   1.841 -0.0545  0.1838  0.2597
 4050TIP3    H133641   4.418   5.132   1.860 -1.2474  0.8385 -2.9279
 4050TIP3    H233642   4.332   5.012   1.826  0.4150 -1.1598 -0.3615
 4051TIP3   OH233643   2.411   5.988   1.420 -0.2189 -0.2220  0.3991
 4051TIP3    H133644   2.418   5.978   1.515 -0.0383 -0.8653  0.3221
 4051TIP3    H233645   2.499   5.971   1.388 -0.2389  0.1814  0.1307
 4052TIP3   OH233646   3.326   0.255  14.963  0.4749 -0.1492 -0.1309
 4052TIP3    H133647   3.388   0.325  14.985  1.7356 -0.6501 -2.0187
 4052TIP3    H233648   3.265   0.296  14.901  0.2907 -0.3035 -0.0509
 4053TIP3   OH233649   5.336   0.776  13.379  0.1610  0.1971  0.0282
 4053TIP3    H133650   5.279   0.786  13.455 -1.3739 -1.0654 -0.9149
 4053TIP3    H233651   5.402   0.712  13.406 -0.5779 -0.5016  0.1882
 4054TIP3   OH233652   6.706   4.181  15.444 -0.2488  0.4033  0.0803
 4054TIP3    H133653   6.710   4.208  15.536 -0.9126 -1.6160  0.7218
 4054TIP3    H233654   6.628   4.127  15.437  0.5592 -0.6390 -1.3538
 4055TIP3   OH233655   5.824   0.121   2.378  0.8410 -0.0296  0.6940
 4055TIP3    H133656   5.875   0.052   2.420  0.1021 -0.1478  1.4235
 4055TIP3    H233657   5.821   0.192   2.443  1.1168  0.4674  0.1750
 4056TIP3   OH233658   6.371   4.226   6.830  0.0240  0.2219 -0.1886
 4056TIP3    H133659   6.458   4.267   6.826  0.1654 -0.0517  0.1275
 4056TIP3    H233660   6.384   4.139   6.794 -0.1317  0.1968 -0.1827
 4057TIP3   OH233661   2.363   3.229  12.744 -0.0515  0.1424 -0.6097
 4057TIP3    H133662   2.302   3.175  12.794  0.0027  0.5936 -0.0495
 4057TIP3    H233663   2.354   3.317  12.782 -1.3260  0.8960 -2.5467
 4058TIP3   OH233664   3.263   6.019   1.623 -0.7759 -0.3625  0.5044
 4058TIP3    H133665   3.276   5.924   1.630  1.7343 -0.0826  0.2855
 4058TIP3    H233666   3.247   6.047   1.712 -2.4334 -1.1080  0.4502
 4059TIP3   OH233667   5.612   0.251  13.689  0.3853 -0.3565  0.7945
 4059TIP3    H133668   5.640   0.337  13.658 -4.0878  0.7364 -0.6054
 4059TIP3    H233669   5.604   0.261  13.784  1.4685  0.2371  0.8370
 4060TIP3   OH233670   1.730   4.795   6.034 -0.1429  0.4850 -0.4000
 4060TIP3    H133671   1.729   4.708   5.994  3.4830  0.1204  0.1053
 4060TIP3    H233672   1.725   4.778   6.128 -0.7202  0.9075 -0.3513
 4061TIP3   OH233673   1.885   3.996  16.587 -0.3556  0.1087  0.3579
 4061TIP3    H133674   1.897   3.960  16.675  3.4245 -1.3397 -0.6321
 4061TIP3    H233675   1.887   3.919  16.530  0.6596  1.2884 -1.2319
 4062TIP3   OH233676   5.488   5.514  12.070  0.5797  0.2363  0.0316
 4062TIP3    H133677   5.411   5.553  12.028  1.1220 -0.3067 -1.5087
 4062TIP3    H233678   5.548   5.588  12.081  0.6782  0.2814 -0.7444
 4063TIP3   OH233679   6.522   2.489   0.307  0.2990  0.4060 -0.3009
 4063TIP3    H133680   6.611   2.464   0.281  0.3842 -0.7752  1.0170
 4063TIP3    H233681   6.534   2.563   0.367  0.4318  0.0468  0.1232
 4064TIP3   OH233682   4.091   5.773  16.866 -0.3304  0.3128  0.3791
 4064TIP3    H133683   4.146   5.838  16.821 -0.1000 -1.1961 -1.5759
 4064TIP3    H233684   4.149   5.734  16.932  0.5285 -0.2159 -0.6684
 4065TIP3   OH233685   1.350   2.814   2.341  0.1371  0.1380  0.5436
 4065TIP3    H133686   1.350   2.884   2.406  2.2758  0.8307 -0.1556
 4065TIP3    H233687   1.433   2.769   2.354  0.4799  0.1053 -1.5076
 4066TIP3   OH233688   5.752   5.436   6.321  0.5204 -0.0600 -0.4204
 4066TIP3    H133689   5.785   5.519   6.356 -0.5945  0.4153 -0.4845
 4066TIP3    H233690   5.770   5.372   6.389  0.1315  0.4948  0.2013
 4067TIP3   OH233691   6.159   6.800   0.866 -0.4634 -0.3824 -0.0116
 4067TIP3    H133692   6.145   6.829   0.956  2.4663 -0.3547  0.4956
 4067TIP3    H233693   6.207   6.717   0.875  1.0206  0.2829 -1.5008
 4068TIP3   OH233694   1.636   1.482  14.996 -0.8791 -0.1570  0.3681
 4068TIP3    H133695   1.542   1.492  14.982 -0.4773  2.1272 -0.9209
 4068TIP3    H233696   1.671   1.572  14.994  1.5627 -1.0724 -0.9826
 4069TIP3   OH233697   3.931   5.035  11.869  0.3263  0.4078  0.0030
 4069TIP3    H133698   3.967   4.969  11.929  0.6286  0.0416 -0.5749
 4069TIP3    H233699   3.992   5.036  11.795 -0.6526  0.0546 -0.8174
 4070TIP3   OH233700   4.925   4.555  14.274 -0.4031  0.0357  0.2712
 4070TIP3    H133701   4.999   4.509  14.315  0.4680  1.0955 -0.1124
 4070TIP3    H233702   4.888   4.490  14.213  0.4075 -0.3888  0.2215
 4071TIP3   OH233703   0.187   4.553   0.479  0.5934 -0.1026 -0.6286
 4071TIP3    H133704   0.265   4.582   0.527  0.0970  0.2147 -0.0185
 4071TIP3    H233705   0.131   4.630   0.475 -0.6525 -0.9132  0.8196
 4072TIP3   OH233706   0.209   4.613   3.668 -0.4845  0.4717 -0.3758
 4072TIP3    H133707   0.124   4.637   3.633 -0.6385  1.3038  0.5528
 4072TIP3    H233708   0.272   4.656   3.611 -0.7130  1.0292 -0.2086
 4073TIP3   OH233709   5.573   2.849   5.193  0.1050 -0.3823  0.2009
 4073TIP3    H133710   5.633   2.808   5.255 -1.3137 -2.3247  0.3416
 4073TIP3    H233711   5.489   2.851   5.239 -0.1439  1.5502 -0.2959
 4074TIP3   OH233712   1.090   4.256  10.833 -0.6522  0.0575 -0.1687
 4074TIP3    H133713   1.090   4.176  10.780  2.2439 -0.4578  0.4792
 4074TIP3    H233714   1.093   4.327  10.769  1.2244 -0.5190 -0.7657
 4075TIP3   OH233715   2.447   4.564  11.695  0.3918 -0.0583  0.0168
 4075TIP3    H133716   2.380   4.623  11.730  1.6196 -0.0572  2.4716
 4075TIP3    H233717   2.528   4.593  11.737  1.4468 -1.8292 -0.7582
 4076TIP3   OH233718   1.453   5.054  11.158 -0.6951  0.5538 -0.1444
 4076TIP3    H133719   1.387   5.071  11.091 -1.0576  0.4003  0.1717
 4076TIP3    H233720   1.448   4.960  11.174 -0.0885  0.4675 -0.4374
 4077TIP3   OH233721   4.584   4.815  16.853 -0.1999  0.0155 -0.4815
 4077TIP3    H133722   4.612   4.739  16.803  0.3826  1.0258 -1.7242
 4077TIP3    H233723   4.517   4.856  16.799 -1.3764 -0.2569  0.7287
 4078TIP3   OH233724   3.839   4.550  12.207 -0.4945  0.5674 -0.5542
 4078TIP3    H133725   3.895   4.600  12.149  0.4026  0.3016  0.0626
 4078TIP3    H233726   3.831   4.604  12.285  2.6168 -1.2701  1.1912
 4079TIP3   OH233727   3.286   2.235  14.406  0.1754 -0.2008  0.3690
 4079TIP3    H133728   3.195   2.262  14.409  0.8152  2.0159  1.2795
 4079TIP3    H233729   3.306   2.229  14.313 -0.8009 -0.3323  0.1667
 4080TIP3   OH233730   6.168   0.057  12.420 -0.1059 -0.3487 -0.3741
 4080TIP3    H133731   6.115   0.133  12.396 -0.6782 -1.0243 -1.2533
 4080TIP3    H233732   6.200   0.023  12.336 -0.8611 -1.8144 -0.0759
 4081TIP3   OH233733   1.507   2.903   0.701  0.2813 -0.1286  0.3066
 4081TIP3    H133734   1.580   2.845   0.723  0.7612  0.1719 -0.4711
 4081TIP3    H233735   1.548   2.983   0.669 -0.3779  0.6145  1.2722
 4082TIP3   OH233736   5.093   2.685   2.187 -0.0558  0.0873 -0.7538
 4082TIP3    H133737   5.109   2.617   2.121 -1.5360  0.3579 -1.4067
 4082TIP3    H233738   5.151   2.756   2.162 -0.4841  0.1218 -1.6714
 4083TIP3   OH233739   3.635   3.404   2.576  0.6484 -0.3892 -0.8890
 4083TIP3    H133740   3.568   3.343   2.546  0.4754 -0.7369  0.1829
 4083TIP3    H233741   3.708   3.347   2.603  0.8879 -0.0671 -0.8537
 4084TIP3   OH233742   2.282   2.189  13.414 -0.4435  0.1605 -0.0416
 4084TIP3    H133743   2.260   2.219  13.325  2.5254  0.9320 -0.5460
 4084TIP3    H233744   2.308   2.268  13.460 -1.1832 -0.3644  1.3001
 4085TIP3   OH233745   2.247   1.702  15.587 -0.4061  0.0583 -0.5677
 4085TIP3    H133746   2.249   1.753  15.668  1.3391  0.8273 -1.0700
 4085TIP3    H233747   2.242   1.611  15.615  1.3046  0.2597  0.4268
 4086TIP3   OH233748   6.274   5.890  15.712 -0.8184 -0.3794  0.1983
 4086TIP3    H133749   6.296   5.940  15.633  2.6810 -1.7086  0.2588
 4086TIP3    H233750   6.196   5.841  15.687 -1.5175  1.4566 -1.4217
 4087TIP3   OH233751   0.753   6.639  13.948  0.5154  0.0148  0.1218
 4087TIP3    H133752   0.705   6.584  13.887  1.1733 -1.3036  0.7646
 4087TIP3    H233753   0.845   6.618  13.933  0.6913 -0.3219  1.5162
 4088TIP3   OH233754   1.141   0.002  13.008  0.1900  0.3534  0.5796
 4088TIP3    H133755   1.142  -0.082  12.963 -0.8238  0.3498  0.5573
 4088TIP3    H233756   1.079  -0.009  13.080 -0.0105  1.1026  0.5312
 4089TIP3   OH233757   0.666   6.414   2.466  0.1853  0.2666 -0.0433
 4089TIP3    H133758   0.586   6.420   2.518 -1.2871 -1.1056 -2.0584
 4089TIP3    H233759   0.725   6.360   2.518 -0.9486 -0.3676  0.5994
 4090TIP3   OH233760   5.624   3.275  16.321 -0.0084  0.6194 -0.3347
 4090TIP3    H133761   5.549   3.215  16.314 -0.4732  1.3220 -1.5542
 4090TIP3    H233762   5.667   3.269  16.235  1.5603 -0.0514  0.4699
 4091TIP3   OH233763   0.825   0.041   1.188  0.8686 -0.2881  0.7672
 4091TIP3    H133764   0.808   0.136   1.185  0.7802 -0.2958  0.9541
 4091TIP3    H233765   0.749   0.006   1.236 -0.1417 -0.7067 -1.1148
 4092TIP3   OH233766   5.109   1.198  13.634  0.1287 -0.1542  0.2587
 4092TIP3    H133767   5.022   1.228  13.607  0.2752 -0.0531 -0.1050
 4092TIP3    H233768   5.133   1.255  13.706 -0.4916 -0.7612  0.9657
 4093TIP3   OH233769   3.212   5.403   5.201 -0.5190  0.5553  0.1530
 4093TIP3    H133770   3.213   5.339   5.130 -0.7399  3.1530 -2.2579
 4093TIP3    H233771   3.292   5.385   5.251  0.0351 -0.8245 -1.2080
 4094TIP3   OH233772   6.093   0.514  11.133  0.8175 -0.2850  0.7377
 4094TIP3    H133773   6.111   0.435  11.082  0.5241  0.2125 -0.1495
 4094TIP3    H233774   6.120   0.586  11.077  0.8921  0.2585  1.4616
 4095TIP3   OH233775   0.348   5.406  11.666 -0.4568  0.3656 -0.2758
 4095TIP3    H133776   0.364   5.374  11.577  0.4639  0.6193 -0.2094
 4095TIP3    H233777   0.420   5.466  11.682 -0.7287  0.4584  0.5789
 4096TIP3   OH233778   1.713   3.553   1.819 -0.3562  0.5061 -0.1452
 4096TIP3    H133779   1.768   3.475   1.810 -0.0459  0.7252 -0.1409
 4096TIP3    H233780   1.770   3.618   1.860 -0.4201  0.9481 -0.7616
 4097TIP3   OH233781   1.521   3.298  12.203  0.1649  0.0705  0.5511
 4097TIP3    H133782   1.567   3.215  12.186 -0.7350 -0.2771 -0.2471
 4097TIP3    H233783   1.504   3.297  12.298  0.0790 -0.7073  0.5321
 4098TIP3   OH233784   1.868   2.221  14.442 -0.6014  0.1112  0.0354
 4098TIP3    H133785   1.825   2.190  14.363 -1.4749  0.1737  0.4783
 4098TIP3    H233786   1.845   2.314  14.448  0.3183  0.3645 -0.1871
 4099TIP3   OH233787   4.684   5.139  11.751  0.5803  0.0653 -0.6186
 4099TIP3    H133788   4.735   5.111  11.827  2.0119  0.4085 -1.4358
 4099TIP3    H233789   4.742   5.126  11.677  0.6844  3.5381 -1.2300
 4100TIP3   OH233790   2.706   2.602   5.309  0.3253 -0.1507  0.4059
 4100TIP3    H133791   2.787   2.617   5.261  0.8183 -0.1081  1.2429
 4100TIP3    H233792   2.641   2.584   5.241  0.7393  1.1215 -0.3479
 4101TIP3   OH233793   0.451   4.598  13.624  0.1046  0.5628 -0.5716
 4101TIP3    H133794   0.405   4.674  13.659  1.4388  1.1676 -0.1133
 4101TIP3    H233795   0.469   4.620  13.533 -1.5571 -0.1735 -1.1000
 4102TIP3   OH233796   4.931   1.062   4.378 -0.3159  0.0819 -0.2748
 4102TIP3    H133797   4.858   1.081   4.438  0.0951  1.4461 -0.1823
 4102TIP3    H233798   5.009   1.076   4.431  0.0283 -0.0427 -0.7510
 4103TIP3   OH233799   5.967   4.014  11.402 -0.6187 -0.3376 -0.3195
 4103TIP3    H133800   5.985   3.975  11.487  0.2802  0.4958 -0.1183
 4103TIP3    H233801   5.901   4.080  11.419 -1.5030 -1.1642 -0.5158
 4104TIP3   OH233802   5.463   0.781  12.044 -0.0157  0.6169  0.0211
 4104TIP3    H133803   5.528   0.829  12.094 -2.8283  1.6469  2.8924
 4104TIP3    H233804   5.435   0.842  11.976  0.2819  1.0639  0.3015
 4105TIP3   OH233805   0.088   1.706  14.703 -0.0724  0.2140  0.3602
 4105TIP3    H133806   0.087   1.802  14.704  0.3139  0.2161  0.5183
 4105TIP3    H233807   0.001   1.681  14.673 -0.7878  0.5765  2.0947
 4106TIP3   OH233808   3.524   1.126  13.162  0.1850  0.4253  0.0798
 4106TIP3    H133809   3.457   1.188  13.131 -0.4773 -0.1751  0.2819
 4106TIP3    H233810   3.606   1.160  13.129 -0.0963  1.7846  0.7344
 4107TIP3   OH233811   2.926   5.544   0.740  0.1887 -0.7219 -0.0245
 4107TIP3    H133812   2.975   5.463   0.753 -0.1537 -0.9622 -0.2226
 4107TIP3    H233813   2.940   5.593   0.821 -0.9354 -1.6862  0.7792
 4108TIP3   OH233814   5.437   1.568   0.719 -0.6573  0.0606  0.1029
 4108TIP3    H133815   5.506   1.524   0.669 -0.0832  0.0588  0.8854
 4108TIP3    H233816   5.470   1.658   0.730  0.2856 -0.5390  2.4430
 4109TIP3   OH233817   5.189   0.417  12.176  0.5977  0.0993 -0.5007
 4109TIP3    H133818   5.139   0.436  12.256  2.3186 -2.2319  1.1959
 4109TIP3    H233819   5.122   0.392  12.112 -0.6480 -0.3879  0.9598
 4110TIP3   OH233820   0.196   2.877   1.677 -0.3409 -0.5875 -0.2914
 4110TIP3    H133821   0.138   2.947   1.646 -0.7211 -0.9092 -0.3056
 4110TIP3    H233822   0.221   2.830   1.598 -0.4596 -0.7582 -0.2255
 4111TIP3   OH233823   6.344   1.519   1.721  0.5695  0.0948  0.1325
 4111TIP3    H133824   6.263   1.468   1.727  1.4602 -1.2214  1.3196
 4111TIP3    H233825   6.370   1.512   1.629 -0.9617  1.0235 -0.3883
 4112TIP3   OH233826   5.934   4.042  12.767  0.4108  0.3201 -0.0656
 4112TIP3    H133827   5.848   4.020  12.804  0.3420  0.1543 -0.3169
 4112TIP3    H233828   5.921   4.032  12.672  0.2598  1.8176 -0.2265
 4113TIP3   OH233829   3.995   1.223   1.819  0.0358 -0.3778 -0.2957
 4113TIP3    H133830   3.928   1.214   1.751  0.2166  1.8457 -0.8199
 4113TIP3    H233831   3.971   1.159   1.886 -2.4711  0.1994 -0.5941
 4114TIP3   OH233832   5.574   0.902  17.018  0.1577  0.3104 -0.2245
 4114TIP3    H133833   5.634   0.913  16.944  1.1821  2.7170  0.8861
 4114TIP3    H233834   5.590   0.979  17.073 -0.1824 -1.6692  2.7862
 4115TIP3   OH233835   5.841   4.356   2.136 -0.1761  0.1203 -0.6425
 4115TIP3    H133836   5.766   4.414   2.129 -0.2609  0.4433  2.4305
 4115TIP3    H233837   5.896   4.396   2.203  0.6351 -2.3998  0.2383
 4116TIP3   OH233838   1.314   2.276   5.725 -0.1807 -0.1186  0.0933
 4116TIP3    H133839   1.315   2.370   5.712  0.0331  0.0990  1.6229
 4116TIP3    H233840   1.225   2.257   5.756 -0.2383 -0.4260 -0.2548
 4117TIP3   OH233841   2.905   0.689  15.284 -0.0842 -0.2707  0.2663
 4117TIP3    H133842   2.890   0.628  15.211 -0.3831  0.5545 -0.3647
 4117TIP3    H233843   2.913   0.775  15.243  2.2769 -0.1140  0.9773
 4118TIP3   OH233844   4.347   5.959   1.590  0.2482  0.5120 -0.1185
 4118TIP3    H133845   4.425   6.006   1.561  2.6015 -3.2576 -0.1986
 4118TIP3    H233846   4.300   6.022   1.645  1.5717  3.9711 -2.7908
 4119TIP3   OH233847   4.055   6.279  15.811 -1.1223  0.0842 -0.1204
 4119TIP3    H133848   4.128   6.266  15.871 -0.5227  1.1695 -0.5990
 4119TIP3    H233849   4.022   6.190  15.795 -0.4871 -0.3334  0.8016
 4120TIP3   OH233850   1.963   0.092  12.925 -0.4477  0.4629 -0.0039
 4120TIP3    H133851   1.940   0.013  12.877 -0.1850  0.0832  0.4975
 4120TIP3    H233852   1.903   0.093  13.001 -1.8032  1.7722 -1.0531
 4121TIP3   OH233853   3.839   3.986   0.376 -0.4188 -0.0995 -0.0375
 4121TIP3    H133854   3.791   4.032   0.444  0.8265  0.4161  0.5119
 4121TIP3    H233855   3.831   3.894   0.399  0.5171  0.1087  1.1699
 4122TIP3   OH233856   0.182   1.126   4.693 -0.5352 -0.7057  0.2974
 4122TIP3    H133857   0.116   1.129   4.762 -1.6193 -1.3896 -0.6927
 4122TIP3    H233858   0.223   1.213   4.695 -0.5287 -0.7314  1.8024
 4123TIP3   OH233859   6.491   1.856   5.188  0.2397 -0.8294 -0.0750
 4123TIP3    H133860   6.445   1.921   5.135  0.2202 -0.8591 -0.0950
 4123TIP3    H233861   6.427   1.786   5.203  0.9773 -1.9975 -2.1154
 4124TIP3   OH233862   3.365   5.889   3.080  0.4365  0.6407  0.0375
 4124TIP3    H133863   3.294   5.829   3.101  0.4130  0.6665  0.0292
 4124TIP3    H233864   3.325   5.957   3.027  0.5372  0.4642 -0.2724
 4125TIP3   OH233865   4.182   2.025  13.433 -0.6081 -0.0803 -0.4824
 4125TIP3    H133866   4.183   1.983  13.347  0.2365  0.7833 -0.8949
 4125TIP3    H233867   4.220   1.960  13.492 -2.0077 -1.0234 -0.5860
 4126TIP3   OH233868   3.290   0.244  13.123 -0.5958 -0.0386  0.2224
 4126TIP3    H133869   3.361   0.183  13.103  0.4488  1.1822  0.1185
 4126TIP3    H233870   3.328   0.306  13.185 -1.9171 -0.0293  1.0326
 4127TIP3   OH233871   4.192   1.729  10.728 -0.3896 -0.1874 -1.0182
 4127TIP3    H133872   4.117   1.702  10.674 -0.8912  2.6211 -1.8135
 4127TIP3    H233873   4.184   1.824  10.734  0.1951 -0.3444  3.3188
 4128TIP3   OH233874   4.303   6.379   3.445  0.1170 -0.7149 -0.5219
 4128TIP3    H133875   4.391   6.414   3.458  0.3202 -1.7707  1.0996
 4128TIP3    H233876   4.317   6.287   3.419 -0.4397 -0.0422 -3.4626
 4129TIP3   OH233877   5.071   3.424  12.520  0.1503  0.1509  0.0245
 4129TIP3    H133878   5.103   3.387  12.437  2.1160  0.6043  0.5530
 4129TIP3    H233879   5.092   3.357  12.585 -1.6582 -0.3339  0.1436
 4130TIP3   OH233880   4.216   2.631   3.354 -0.4065 -0.1895  0.2560
 4130TIP3    H133881   4.142   2.651   3.410 -0.0250  0.5935  0.4936
 4130TIP3    H233882   4.264   2.714   3.347 -0.2192 -0.3771 -0.8725
 4131TIP3   OH233883   2.123   0.820   0.413 -0.1090 -0.6301  0.0437
 4131TIP3    H133884   2.052   0.850   0.470 -0.7027 -0.4957 -0.7601
 4131TIP3    H233885   2.085   0.821   0.326  1.3699  0.9713 -0.6035
 4132TIP3   OH233886   1.104   0.672  11.098 -0.1045  0.4890  0.4767
 4132TIP3    H133887   1.039   0.640  11.034  1.1957 -0.4736 -0.3890
 4132TIP3    H233888   1.188   0.641  11.064  0.7036  0.7537  2.1866
 4133TIP3   OH233889   2.133   5.679   6.211 -0.1471  0.5321 -0.7352
 4133TIP3    H133890   2.067   5.691   6.143 -1.0483  1.2599  0.2369
 4133TIP3    H233891   2.165   5.767   6.230  0.9233  0.2078 -1.0144
 4134TIP3   OH233892   3.510   0.793  11.534 -0.1919  0.2430  0.9975
 4134TIP3    H133893   3.521   0.873  11.483 -0.0207 -1.0611 -1.0729
 4134TIP3    H233894   3.434   0.749  11.494  1.3378 -1.8980  0.3568
 4135TIP3   OH233895   6.743   6.396   6.613 -0.6877  0.1332 -0.0194
 4135TIP3    H133896   6.755   6.474   6.559 -1.3655  0.0948 -0.2283
 4135TIP3    H233897   6.767   6.424   6.701 -1.9941  0.8790  0.1062
 4136TIP3   OH233898   5.842   3.390  15.273 -0.1864  0.3908 -0.3566
 4136TIP3    H133899   5.822   3.469  15.323  1.8141  0.0625  1.0286
 4136TIP3    H233900   5.764   3.335  15.283 -1.7860  2.3456 -1.7121
 4137TIP3   OH233901   1.750   5.860  13.307  0.0375  0.4112  0.2481
 4137TIP3    H133902   1.832   5.905  13.325  1.8437 -2.5931 -0.0854
 4137TIP3    H233903   1.687   5.930  13.292  2.6336  2.7975  0.0132
 4138TIP3   OH233904   1.400   2.341  12.002  0.8546 -0.0593 -0.3038
 4138TIP3    H133905   1.409   2.430  12.035 -1.4531  0.6259 -1.4159
 4138TIP3    H233906   1.427   2.346  11.910  1.6292 -0.7309 -0.1271
 4139TIP3   OH233907   1.746   4.382   4.774 -0.4275 -0.8152  0.1335
 4139TIP3    H133908   1.796   4.332   4.839 -0.2268  0.6209  1.1214
 4139TIP3    H233909   1.699   4.316   4.724 -0.1030 -1.9989  1.3488
 4140TIP3   OH233910   0.512   0.455   2.829 -0.1197 -0.2869  0.1645
 4140TIP3    H133911   0.599   0.471   2.866  0.0426 -0.2879 -0.2107
 4140TIP3    H233912   0.503   0.360   2.827  0.9226 -0.3731 -2.1812
 4141TIP3   OH233913   3.708   1.658   3.828 -0.4465  0.1639  0.0598
 4141TIP3    H133914   3.782   1.663   3.767 -0.8030 -0.8793 -0.4528
 4141TIP3    H233915   3.730   1.585   3.886 -1.7207 -1.0064 -0.9321
 4142TIP3   OH233916   3.642   5.919  13.683  0.1592  0.3350 -0.5208
 4142TIP3    H133917   3.697   5.940  13.759 -0.6835 -0.1793  0.2364
 4142TIP3    H233918   3.674   5.834  13.653  0.0743  0.2435 -0.3531
 4143TIP3   OH233919   0.461   5.226  16.147  0.5623  0.2324  0.1383
 4143TIP3    H133920   0.460   5.218  16.052 -1.3194 -1.6249  0.2857
 4143TIP3    H233921   0.518   5.155  16.176 -2.3244 -1.9801  0.5799
 4144TIP3   OH233922   5.076   4.602  12.057 -0.2617  0.3831 -0.1697
 4144TIP3    H133923   5.168   4.590  12.080  0.2950 -0.5310 -2.6716
 4144TIP3    H233924   5.063   4.548  11.979 -2.5444  1.6483 -0.7344
 4145TIP3   OH233925   2.301   1.902   4.031  0.0256  0.0856  0.0112
 4145TIP3    H133926   2.282   1.950   3.950  3.0998 -1.8798 -1.9686
 4145TIP3    H233927   2.224   1.846   4.044 -0.5209  0.4585 -1.5197
 4146TIP3   OH233928   2.840   3.839   1.497 -0.0832  0.5358 -0.2674
 4146TIP3    H133929   2.852   3.746   1.479 -1.1103 -0.2149  2.7525
 4146TIP3    H233930   2.748   3.848   1.519  0.2364  2.0763  0.5145
 4147TIP3   OH233931   3.615   5.872   3.973 -0.1476  0.2546  0.7066
 4147TIP3    H133932   3.616   5.939   4.041 -2.4684 -0.1977  1.2112
 4147TIP3    H233933   3.674   5.804   4.007  1.1814  1.4072  0.7911
 4148TIP3   OH233934   5.514   4.098  15.715 -0.1940  0.4658  0.2579
 4148TIP3    H133935   5.585   4.141  15.763 -1.0589  1.1337  0.9640
 4148TIP3    H233936   5.456   4.170  15.689 -0.3417 -0.0185 -0.7747
 4149TIP3   OH233937   4.194   3.544  13.136  0.2690  0.2778  0.2800
 4149TIP3    H133938   4.178   3.479  13.068  1.1980  0.6739 -0.3363
 4149TIP3    H233939   4.286   3.569  13.125  0.4806  0.2364  1.7837
 4150TIP3   OH233940   3.299   5.255   1.397 -0.4266  0.4997  0.2627
 4150TIP3    H133941   3.257   5.190   1.340  0.4504  0.8327 -0.7752
 4150TIP3    H233942   3.254   5.337   1.376  3.8547  1.8911 -4.4401
 4151TIP3   OH233943   6.523   3.838   5.845 -0.1131 -0.0581 -0.5138
 4151TIP3    H133944   6.501   3.911   5.788 -1.9481 -1.6892 -1.9434
 4151TIP3    H233945   6.551   3.768   5.785  0.3331 -0.9813  0.7453
 4152TIP3   OH233946   2.723   4.195   3.151  0.5868 -0.5293  0.0733
 4152TIP3    H133947   2.643   4.219   3.198  0.0016 -0.4306 -0.9724
 4152TIP3    H233948   2.694   4.177   3.062  1.6027 -1.3495 -0.0993
 4153TIP3   OH233949   5.392   3.065   1.845 -0.4689  0.2979 -0.4941
 4153TIP3    H133950   5.396   3.101   1.933 -1.8689 -0.1040 -0.2476
 4153TIP3    H233951   5.303   3.084   1.815  0.2087  1.0492 -2.0909
 4154TIP3   OH233952   2.698   3.489  14.276 -0.4535 -0.4178  0.3082
 4154TIP3    H133953   2.791   3.481  14.299 -0.2829 -0.4855 -0.3913
 4154TIP3    H233954   2.651   3.459  14.354  0.0856  1.6367  1.4407
 4155TIP3   OH233955   5.087   2.758  10.802  0.3582 -0.4083 -0.1155
 4155TIP3    H133956   5.007   2.731  10.757 -0.2595  0.4696  0.4575
 4155TIP3    H233957   5.119   2.833  10.752 -1.1063  1.4812  1.7112
 4156TIP3   OH233958   2.361   6.164  14.677  0.1915  0.4802 -0.4189
 4156TIP3    H133959   2.387   6.076  14.647 -1.2633 -0.5314  1.1816
 4156TIP3    H233960   2.405   6.224  14.617  1.1641 -1.3523 -1.5818
 4157TIP3   OH233961   2.636   5.957   5.552 -0.4914 -0.3849  0.0956
 4157TIP3    H133962   2.632   6.049   5.578  0.5840 -0.0990 -0.7157
 4157TIP3    H233963   2.656   5.960   5.458  3.5695 -1.4665  0.8183
 4158TIP3   OH233964   1.277   3.062  11.282  0.0044 -0.1840 -0.3818
 4158TIP3    H133965   1.346   3.028  11.225 -0.7913 -0.6048 -1.1056
 4158TIP3    H233966   1.275   3.156  11.265 -0.8384 -0.4402 -1.7209
 4159TIP3   OH233967   5.536   5.389   3.399  0.3059 -0.1070  0.2774
 4159TIP3    H133968   5.442   5.378   3.412  0.2219  0.3027  0.0176
 4159TIP3    H233969   5.545   5.478   3.364  0.8692  0.1825  1.1493
 4160TIP3   OH233970   0.842   0.586  16.523 -0.4202 -0.0532  0.5088
 4160TIP3    H133971   0.748   0.571  16.529 -0.5052 -0.0374 -0.6962
 4160TIP3    H233972   0.856   0.617  16.433  0.5675  1.1378  1.0537
 4161TIP3   OH233973   3.894   4.640  15.895 -0.0736  0.4605 -0.0399
 4161TIP3    H133974   3.844   4.574  15.943  0.2250 -0.0300 -0.3983
 4161TIP3    H233975   3.862   4.723  15.929 -0.1748  0.1252  0.6969
 4162TIP3   OH233976   5.495   6.532  16.436  0.3550  0.2039  0.1322
 4162TIP3    H133977   5.546   6.477  16.378 -0.1606 -1.9037  1.6113
 4162TIP3    H233978   5.418   6.557  16.385  0.7573 -0.1717 -0.6519
 4163TIP3   OH233979   2.881   4.327   4.812  0.0090 -0.2655 -0.0627
 4163TIP3    H133980   2.923   4.369   4.737  0.4444 -0.4967  0.0490
 4163TIP3    H233981   2.858   4.399   4.870  0.2500 -0.1346 -0.1289
 4164TIP3   OH233982   3.306   1.896   5.448  0.2311 -0.0151 -0.2839
 4164TIP3    H133983   3.330   1.840   5.523  0.1635  0.0332 -0.2267
 4164TIP3    H233984   3.212   1.881   5.436  0.2364 -0.0016 -0.3419
 4165TIP3   OH233985   6.049   4.607  15.864  0.2365  0.3292  0.6014
 4165TIP3    H133986   6.131   4.623  15.816  0.3816  0.3803  0.8650
 4165TIP3    H233987   6.070   4.629  15.955  0.6353 -1.9454  1.0980
 4166TIP3   OH233988   5.143   4.554  13.524 -0.4605 -0.1145 -0.1020
 4166TIP3    H133989   5.174   4.642  13.505  1.0350 -0.5995 -0.0182
 4166TIP3    H233990   5.196   4.525  13.598  0.1729 -1.6399 -1.1098
 4167TIP3   OH233991   1.769   5.858   5.625  0.5834 -0.3118 -0.4500
 4167TIP3    H133992   1.714   5.827   5.554  1.1639 -0.4151 -0.8601
 4167TIP3    H233993   1.748   5.951   5.633 -3.0239 -1.2657  2.4678
 4168TIP3   OH233994   0.742   0.698  16.026  0.3761 -0.2809 -0.0228
 4168TIP3    H133995   0.790   0.765  16.074 -0.5273  0.6065 -0.3522
 4168TIP3    H233996   0.704   0.643  16.095  0.5841 -0.0875  0.2499
 4169TIP3   OH233997   6.430   6.196  15.886 -0.2593  0.1196 -0.0185
 4169TIP3    H133998   6.523   6.178  15.874 -0.3580 -0.2967 -0.1551
 4169TIP3    H233999   6.390   6.110  15.895 -0.7152  0.2742 -0.5573
 4170TIP3   OH234000   3.680   6.081  15.961  0.3862  0.5855 -0.0251
 4170TIP3    H134001   3.694   5.987  15.950 -1.3390  0.1800  1.0827
 4170TIP3    H234002   3.662   6.113  15.873 -0.3686 -0.3596 -0.2213
 4171TIP3   OH234003   5.839   3.077   5.140  0.2645  0.0414 -0.0393
 4171TIP3    H134004   5.922   3.110   5.173  0.1220  1.4315 -1.0341
 4171TIP3    H234005   5.778   3.149   5.152 -0.9661 -1.1844  1.2576
 4172TIP3   OH234006   5.639   4.399  10.415 -0.3928 -0.3416  0.4354
 4172TIP3    H134007   5.698   4.446  10.356  1.7502 -1.1215  1.9287
 4172TIP3    H234008   5.664   4.307  10.407 -1.3385 -0.6774  1.1562
 4173TIP3   OH234009   4.135   2.479   5.607 -0.2531  0.1368  0.2236
 4173TIP3    H134010   4.192   2.556   5.619 -0.0601 -0.0925  0.7762
 4173TIP3    H234011   4.079   2.478   5.685 -0.7374  0.1195 -0.1201
 4174TIP3   OH234012   1.374   0.474   3.462  0.4621 -0.3627 -0.7852
 4174TIP3    H134013   1.437   0.414   3.421  0.4944 -0.1562 -1.0372
 4174TIP3    H234014   1.331   0.518   3.389  0.0810 -0.4435 -0.6101
 4175TIP3   OH234015   2.817   3.941  14.369 -0.1768 -0.0183  0.5382
 4175TIP3    H134016   2.775   4.014  14.323 -0.2697 -1.1079 -1.1392
 4175TIP3    H234017   2.847   3.883  14.300  1.4353 -0.7474  1.8208
 4176TIP3   OH234018   3.533   6.180   1.766  0.1346 -0.1367  0.3212
 4176TIP3    H134019   3.477   6.258   1.770  0.7564  0.3713 -0.7703
 4176TIP3    H234020   3.496   6.122   1.832 -1.6182  0.2481 -0.2799
 4177TIP3   OH234021   5.235   5.663  16.146 -0.3529 -0.0388 -0.0979
 4177TIP3    H134022   5.225   5.599  16.216  0.2548  1.0386  0.9870
 4177TIP3    H234023   5.330   5.669  16.132 -0.4761 -0.4779 -1.2482
 4178TIP3   OH234024   0.632   2.150   0.909  0.0544 -0.0838 -0.4289
 4178TIP3    H134025   0.646   2.197   0.991 -1.5669 -0.2588 -0.0302
 4178TIP3    H234026   0.538   2.155   0.895  0.0919 -1.6112 -1.3369
 4179TIP3   OH234027   2.118   1.700   0.585 -0.9210  1.1638  0.2331
 4179TIP3    H134028   2.205   1.688   0.622 -0.5076  1.1723 -0.7089
 4179TIP3    H234029   2.059   1.663   0.650 -0.0465 -1.0812 -0.1937
 4180TIP3   OH234030   3.918   5.171  13.082  0.3279  0.1109  0.0059
 4180TIP3    H134031   3.875   5.204  13.004 -0.1594  0.4147  0.3959
 4180TIP3    H234032   3.998   5.222  13.089  0.9276 -0.7075 -0.9249
 4181TIP3   OH234033   4.027   2.227   2.516  0.0977 -0.5056  0.1025
 4181TIP3    H134034   3.982   2.205   2.434 -0.7971 -1.8303  0.9346
 4181TIP3    H234035   4.064   2.144   2.546 -0.1715 -0.1723  1.3878
 4182TIP3   OH234036   2.914   6.272   3.140  0.6665 -0.2179 -0.4188
 4182TIP3    H134037   2.898   6.207   3.209 -0.4616 -0.0774 -0.5389
 4182TIP3    H234038   3.008   6.291   3.147  0.5314 -0.0248  1.2479
 4183TIP3   OH234039   1.691   1.392   5.345 -0.3534 -0.2505  0.3156
 4183TIP3    H134040   1.672   1.486   5.355 -0.3161 -0.1735 -0.3273
 4183TIP3    H234041   1.704   1.380   5.251 -0.9031 -1.0018  0.3265
 4184TIP3   OH234042   1.431   3.698  14.894 -0.2097  0.0417  0.0900
 4184TIP3    H134043   1.501   3.640  14.864 -0.0273 -0.6144  1.7445
 4184TIP3    H234044   1.364   3.639  14.927 -0.8725  0.7179 -0.0478
 4185TIP3   OH234045   5.949   1.402   1.065  0.0496 -0.6027  0.4906
 4185TIP3    H134046   5.916   1.313   1.080  0.2014 -0.8007 -0.3158
 4185TIP3    H234047   6.022   1.390   1.003 -0.9594  0.2521 -0.8915
 4186TIP3   OH234048   0.663   6.643  12.837  0.1410  0.3697 -0.5152
 4186TIP3    H134049   0.653   6.566  12.781 -1.8652 -0.5716  1.0706
 4186TIP3    H234050   0.712   6.611  12.914 -1.6296  0.3990  0.6435
 4187TIP3   OH234051   4.565   4.122   3.447  0.2430  0.4881  0.3811
 4187TIP3    H134052   4.630   4.180   3.407  2.0048 -1.0364  1.0078
 4187TIP3    H234053   4.586   4.123   3.541  0.8608 -1.8756  0.2801
 4188TIP3   OH234054   4.249   1.803   0.000 -0.1291 -0.1740 -0.2304
 4188TIP3    H134055   4.279   1.866   0.067  0.6640  0.6365 -1.3163
 4188TIP3    H234056   4.182   1.850  -0.048 -2.2720 -1.5372  1.3614
 4189TIP3   OH234057   1.936   5.538   5.832 -0.2723  0.2250 -0.0245
 4189TIP3    H134058   1.909   5.470   5.895 -1.1387 -1.7733 -2.4662
 4189TIP3    H234059   1.877   5.611   5.849  0.4395  0.2942  2.4188
 4190TIP3   OH234060   0.171   6.262  14.632 -0.4914 -0.6038  0.5886
 4190TIP3    H134061   0.205   6.337  14.583 -1.3100 -0.1853  0.6480
 4190TIP3    H234062   0.182   6.187  14.573  0.2387 -0.4160  0.4910
 4191TIP3   OH234063   2.556   4.096  10.849  0.1729  0.1173  0.4056
 4191TIP3    H134064   2.649   4.090  10.830  0.1749 -1.9106  0.9469
 4191TIP3    H234065   2.525   4.171  10.798  1.9708  0.4256 -0.2360
 4192TIP3   OH234066   6.535   5.994   3.312 -0.4866  0.3232 -0.6152
 4192TIP3    H134067   6.556   6.062   3.247 -0.2114 -1.1832 -2.1330
 4192TIP3    H234068   6.586   5.918   3.284 -1.7284 -0.8949  0.3704
 4193TIP3   OH234069   6.718   0.468   2.420 -0.1678 -0.0739 -0.6122
 4193TIP3    H134070   6.642   0.524   2.401  0.6739  1.2921  0.0182
 4193TIP3    H234071   6.685   0.379   2.408 -0.7567  0.5887 -4.5501
 4194TIP3   OH234072   1.507   3.629   0.507 -0.3501 -0.3151 -0.8301
 4194TIP3    H134073   1.474   3.654   0.593  1.0301  0.0639 -0.3928
 4194TIP3    H234074   1.446   3.562   0.476 -0.9872 -0.2871  0.3347
 4195TIP3   OH234075   0.869   1.935  14.282  0.2149  0.1198  0.0059
 4195TIP3    H134076   0.867   1.963  14.374 -0.7626 -0.5519  0.1947
 4195TIP3    H234077   0.779   1.946  14.252  0.3283 -0.6040 -0.5891
 4196TIP3   OH234078   5.452   3.651   6.415  0.1369  0.1125 -0.2017
 4196TIP3    H134079   5.403   3.571   6.436  0.3106 -0.2311 -1.1222
 4196TIP3    H234080   5.490   3.677   6.499 -0.6527 -0.2742  0.2889
 4197TIP3   OH234081   5.574   3.860  15.558  0.4646  0.4778 -0.1431
 4197TIP3    H134082   5.560   3.902  15.643  1.0302 -0.5372  0.4613
 4197TIP3    H234083   5.539   3.922  15.495 -2.0898  0.2487  0.9782
 4198TIP3   OH234084   0.075   0.927  11.903  0.2350 -0.4304  0.1923
 4198TIP3    H134085  -0.006   0.910  11.952  1.3553  1.0783  2.6632
 4198TIP3    H234086   0.137   0.862  11.936  1.0090  0.6215  0.8468
 4199TIP3   OH234087   0.501   1.198   1.344  0.2996  0.3554  0.0080
 4199TIP3    H134088   0.466   1.286   1.357  0.9535  0.6608 -0.2771
 4199TIP3    H234089   0.577   1.211   1.287  0.4306 -0.3858  0.0137
 4200TIP3   OH234090   4.907   1.471  15.936  0.1721  0.3294  0.1819
 4200TIP3    H134091   4.824   1.516  15.919  0.1411  0.6255  1.0978
 4200TIP3    H234092   4.918   1.413  15.861 -1.2912 -0.3413  0.4748
 4201TIP3   OH234093   5.674   6.394  15.374 -0.3272 -0.1385 -0.0161
 4201TIP3    H134094   5.649   6.321  15.431  0.7680 -0.3059  0.2433
 4201TIP3    H234095   5.695   6.353  15.290  2.5023 -0.3833  0.7749
 4202TIP3   OH234096   0.708   1.660  14.296  0.3234  0.0521 -0.0288
 4202TIP3    H134097   0.796   1.636  14.267 -0.1045 -0.0072 -1.3058
 4202TIP3    H234098   0.721   1.696  14.384  1.7003  0.6873 -0.4838
 4203TIP3   OH234099   2.237   2.570  12.531 -0.4799 -0.5460  0.2792
 4203TIP3    H134100   2.281   2.518  12.464  1.8120 -0.3746  1.6006
 4203TIP3    H234101   2.209   2.506  12.596  0.5070 -0.3776  0.8903
 4204TIP3   OH234102   1.860   3.455   3.303  0.4359 -0.3389  0.4392
 4204TIP3    H134103   1.806   3.471   3.381  0.3115 -1.0780  0.5017
 4204TIP3    H234104   1.907   3.374   3.322  0.1954 -0.6694 -0.3801
 4205TIP3   OH234105   2.243   4.750   0.271 -0.4447  0.0189  0.1188
 4205TIP3    H134106   2.298   4.672   0.277  0.5573  0.7550  0.5542
 4205TIP3    H234107   2.302   4.819   0.241 -1.0449  0.9037  0.9667
 4206TIP3   OH234108   2.740   4.873   4.269 -0.0729  0.4928 -0.0427
 4206TIP3    H134109   2.762   4.924   4.347  0.1397  0.0647  0.1806
 4206TIP3    H234110   2.647   4.889   4.254  0.2339  1.8033 -0.6079
 4207TIP3   OH234111   0.193   4.527   3.938  0.0567  0.7523 -0.3159
 4207TIP3    H134112   0.184   4.595   4.004 -3.0471  0.5385 -0.4289
 4207TIP3    H234113   0.180   4.572   3.855  1.2702  0.5614 -0.6174
 4208TIP3   OH234114   1.382   4.904   1.541 -0.1437 -0.1550 -0.4547
 4208TIP3    H134115   1.387   4.890   1.636 -0.9032 -1.2702 -0.5659
 4208TIP3    H234116   1.456   4.855   1.506  1.2082  1.7335 -0.3108
 4209TIP3   OH234117   3.393   5.548   3.268  0.1419  0.3941  0.0129
 4209TIP3    H134118   3.446   5.613   3.223  0.7930 -1.1534 -1.5453
 4209TIP3    H234119   3.308   5.551   3.224  1.2792 -2.2678 -2.5784
 4210TIP3   OH234120   2.350   2.519  16.249  0.1214  0.1327 -0.5992
 4210TIP3    H134121   2.355   2.523  16.153  1.3248 -0.2663 -0.5566
 4210TIP3    H234122   2.440   2.506  16.277 -0.4326 -1.5576  0.4907
 4211TIP3   OH234123   1.124   5.990  13.990 -0.3044  0.1260 -0.2489
 4211TIP3    H134124   1.090   6.059  14.047  1.2464  2.6779 -2.2905
 4211TIP3    H234125   1.076   5.999  13.908 -0.6475 -1.7815 -0.2919
 4212TIP3   OH234126   3.710   0.799  14.148  1.0235 -0.1424 -0.1137
 4212TIP3    H134127   3.643   0.731  14.142  0.3538  0.3278  1.7767
 4212TIP3    H234128   3.737   0.799  14.240  1.6232  1.5644 -0.2660
 4213TIP3   OH234129   4.782   6.175  15.754 -0.3384  0.4925  0.2416
 4213TIP3    H134130   4.801   6.132  15.837  1.0840 -0.5302 -0.6084
 4213TIP3    H234131   4.842   6.135  15.691 -1.2711  1.3877 -1.2485
 4214TIP3   OH234132   5.999   3.679   0.554 -0.7544  0.1342  0.0939
 4214TIP3    H134133   6.042   3.731   0.622 -1.0099  0.6596 -0.1414
 4214TIP3    H234134   6.071   3.631   0.512 -0.6606 -0.5673  1.0455
 4215TIP3   OH234135   2.090   0.552  15.220 -0.4834 -0.1397 -0.3766
 4215TIP3    H134136   2.132   0.524  15.301  0.5644 -1.7723 -1.4550
 4215TIP3    H234137   2.142   0.627  15.190 -0.3266 -0.1049 -0.0121
 4216TIP3   OH234138   5.014   1.193  11.724  0.2242 -0.0826  0.4599
 4216TIP3    H134139   5.038   1.110  11.766  1.7039  0.7400  1.2799
 4216TIP3    H234140   4.987   1.250  11.796 -1.0599  0.0778 -0.1275
 4217TIP3   OH234141   0.821   1.293   4.623 -0.0439  0.1001  0.4871
 4217TIP3    H134142   0.744   1.262   4.672 -0.3554  0.4010  0.1901
 4217TIP3    H234143   0.812   1.388   4.621 -0.0392  0.0928 -0.1616
 4218TIP3   OH234144   0.487   1.581  16.834  0.0552  0.3933  0.1178
 4218TIP3    H134145   0.489   1.670  16.870  0.3829  0.2772  0.3853
 4218TIP3    H234146   0.394   1.560  16.828  0.0047  0.1424  1.5644
 4219TIP3   OH234147   3.946   4.563  17.039  0.5846  0.0879 -0.1241
 4219TIP3    H134148   4.007   4.585  17.110  1.9374 -0.0796 -1.2170
 4219TIP3    H234149   3.981   4.482  17.002 -1.4452 -1.1313  0.5259
 4220TIP3   OH234150   3.805   5.259   3.874 -0.1576 -0.3326  0.6500
 4220TIP3    H134151   3.766   5.270   3.961 -1.5267 -0.6577  0.1005
 4220TIP3    H234152   3.886   5.310   3.876 -0.3707 -0.0492  1.9969
 4221TIP3   OH234153   2.886   3.489   4.774  0.3327  0.3315  0.0510
 4221TIP3    H134154   2.867   3.544   4.850 -1.9321  0.7063 -0.7391
 4221TIP3    H234155   2.900   3.551   4.702  0.5163 -0.0558 -0.2522
 4222TIP3   OH234156   1.500   5.760   0.336  0.2993 -0.2818 -0.0530
 4222TIP3    H134157   1.496   5.779   0.242 -0.2441 -1.1458 -0.2101
 4222TIP3    H234158   1.481   5.666   0.342 -0.2778 -0.1017  0.9667
 4223TIP3   OH234159   6.499   0.217   0.443 -0.5773  0.0398  0.4421
 4223TIP3    H134160   6.539   0.263   0.369 -0.2749  1.9618  1.7745
 4223TIP3    H234161   6.477   0.286   0.506 -1.6010 -1.4773  1.7992
 4224TIP3   OH234162   6.760   4.219   4.977  0.0582 -0.6732 -0.1366
 4224TIP3    H134163   6.674   4.208   5.018  0.7236 -0.7441  1.2469
 4224TIP3    H234164   6.773   4.314   4.974  0.4929 -0.6978  0.8425
 4225TIP3   OH234165   4.377   2.146   1.761  0.2653  0.6522 -0.0935
 4225TIP3    H134166   4.400   2.199   1.837 -1.9092  0.7724  0.4997
 4225TIP3    H234167   4.340   2.066   1.797  3.5672 -1.3859 -0.9797
 4226TIP3   OH234168   3.391   5.154  16.732  0.5324 -0.3766 -0.6877
 4226TIP3    H134169   3.301   5.174  16.758  0.8678  0.2618 -0.0017
 4226TIP3    H234170   3.404   5.203  16.651  0.5527  0.2727 -0.3000
 4227TIP3   OH234171   4.098   6.731   5.262  0.1483 -0.2319  0.0729
 4227TIP3    H134172   4.190   6.709   5.279  0.2396  1.1130  1.4238
 4227TIP3    H234173   4.099   6.825   5.242 -0.8701 -0.3260 -0.4558
 4228TIP3   OH234174   1.178   3.947  14.202 -0.0707 -0.2626 -0.8075
 4228TIP3    H134175   1.188   3.852  14.204 -1.3785 -0.3905  0.0969
 4228TIP3    H234176   1.268   3.981  14.211  0.0196 -1.3857  3.1028
 4229TIP3   OH234177   2.630   4.335   0.322  0.4107  0.4562  0.5273
 4229TIP3    H134178   2.694   4.397   0.356  1.8398 -0.1428 -0.9988
 4229TIP3    H234179   2.683   4.260   0.294 -1.0123 -0.2408 -0.3131
 4230TIP3   OH234180   6.754   5.098  17.251  0.3204  0.5620  0.4614
 4230TIP3    H134181   6.739   5.151  17.329 -2.0471 -0.3069  0.6319
 4230TIP3    H234182   6.774   5.011  17.285 -1.2936  0.0443  0.0905
 4231TIP3   OH234183   6.107   0.959  15.979  0.7274  0.5258 -0.3432
 4231TIP3    H134184   6.115   1.027  16.045  0.3444  1.6874 -1.4758
 4231TIP3    H234185   6.194   0.955  15.938  0.7946  0.2223 -0.1742
 4232TIP3   OH234186   6.374   4.244  15.566  0.3071  0.0775 -0.3260
 4232TIP3    H134187   6.372   4.329  15.522 -0.3569  0.7120  0.9256
 4232TIP3    H234188   6.417   4.260  15.649  2.6682 -1.3865 -1.2332
 4233TIP3   OH234189   6.756   0.224  16.336  0.5743 -0.0443  0.4737
 4233TIP3    H134190   6.688   0.287  16.313  0.3307 -0.2807  0.5493
 4233TIP3    H234191   6.829   0.278  16.366  0.7919  0.2602 -0.5580
 4234TIP3   OH234192   3.383   5.927   5.501 -0.3308  0.9186 -0.4960
 4234TIP3    H134193   3.297   5.931   5.542 -0.2713  3.1076 -0.5461
 4234TIP3    H234194   3.387   5.839   5.462 -1.3686 -0.2977  1.9845
 4235TIP3   OH234195   2.052   6.500  12.086 -0.1085  0.4688  0.1164
 4235TIP3    H134196   1.977   6.447  12.111  0.4377  0.2599  1.3753
 4235TIP3    H234197   2.039   6.584  12.131 -0.9591  1.4197 -1.8457
 4236TIP3   OH234198   6.376   6.068  12.588 -0.1607 -0.0579 -0.2843
 4236TIP3    H134199   6.395   6.055  12.681  2.0527 -1.1740 -0.8717
 4236TIP3    H234200   6.352   6.161  12.582 -0.0866  0.0845  1.3534
 4237TIP3   OH234201   5.455   1.113  16.761  0.0125 -0.2457  0.0983
 4237TIP3    H134202   5.523   1.159  16.809  0.7145 -0.2676 -0.8612
 4237TIP3    H234203   5.395   1.081  16.829  0.8993 -0.1467  0.9429
 4238TIP3   OH234204   1.465   3.784   6.135 -0.1903  0.1575 -0.4936
 4238TIP3    H134205   1.460   3.738   6.219  1.7788  0.8572  0.0134
 4238TIP3    H234206   1.376   3.776   6.099 -0.8137 -0.9534  1.2079
 4239TIP3   OH234207   4.910   1.544   5.876 -0.7390 -0.2098 -0.6008
 4239TIP3    H134208   4.897   1.638   5.885 -0.8448 -0.4985  2.7434
 4239TIP3    H234209   4.978   1.523   5.939 -0.9963 -2.4516 -1.0316
 4240TIP3   OH234210   2.983   5.759   4.435  0.4122 -0.0906  0.2319
 4240TIP3    H134211   3.033   5.727   4.510  1.1266  0.6874  0.0904
 4240TIP3    H234212   3.042   5.820   4.391  0.0769 -0.6814 -1.0729
 4241TIP3   OH234213   1.002   0.716  12.053 -0.0591  0.1166  0.1723
 4241TIP3    H134214   1.045   0.630  12.049  0.7320  0.5374 -0.5558
 4241TIP3    H234215   1.075   0.778  12.058 -0.5976  0.8238 -0.7444
 4242TIP3   OH234216   1.323   3.827  16.811 -0.0223 -0.1203 -0.3142
 4242TIP3    H134217   1.376   3.828  16.731 -0.3853  0.5682 -0.5553
 4242TIP3    H234218   1.346   3.745  16.854  0.0091 -0.6127 -1.2501
 4243TIP3   OH234219   0.530   6.152  12.992  0.2542 -0.1958 -0.2344
 4243TIP3    H134220   0.588   6.079  12.970  0.7800  0.1993 -0.1881
 4243TIP3    H234221   0.562   6.225  12.938 -0.2304  0.0166 -0.2418
 4244TIP3   OH234222   1.621   1.152   1.511  0.5676  0.2688  0.1965
 4244TIP3    H134223   1.647   1.065   1.481  0.2325  0.4173 -0.5581
 4244TIP3    H234224   1.660   1.211   1.447 -2.1162  0.4612 -1.3448
 4245TIP3   OH234225   6.027   0.970   4.335  0.4122 -0.0585 -0.0170
 4245TIP3    H134226   6.111   0.927   4.323  0.4693  0.7295 -2.9019
 4245TIP3    H234227   5.963   0.898   4.339  1.1930 -0.6483  2.0939
 4246TIP3   OH234228   0.980   5.444   5.938  0.1649  0.5816  0.1654
 4246TIP3    H134229   0.962   5.469   6.029 -1.1706  1.7409 -0.3925
 4246TIP3    H234230   1.075   5.433   5.934  0.0425 -1.5220  2.2005
 4247TIP3   OH234231   6.079   3.315   6.470  0.3540 -0.1207 -0.1470
 4247TIP3    H134232   6.035   3.400   6.460 -0.0025 -0.2258  0.5215
 4247TIP3    H234233   6.053   3.284   6.557  0.2409 -1.0603 -0.5111
 4248TIP3   OH234234   5.798   3.480   3.951  0.4130  0.2587 -1.1645
 4248TIP3    H134235   5.758   3.464   3.865 -0.8828 -1.8357 -0.2073
 4248TIP3    H234236   5.798   3.394   3.994  1.9146  1.1003  0.5775
 4249TIP3   OH234237   4.070   6.394   4.537  0.3611  0.1286  0.0956
 4249TIP3    H134238   4.031   6.338   4.470 -1.3628  0.0652  1.1314
 4249TIP3    H234239   4.076   6.480   4.496 -0.2928 -0.0051 -0.2777
 4250TIP3   OH234240   1.217   4.344  13.930 -0.6076  0.3248 -0.2053
 4250TIP3    H134241   1.266   4.303  14.002 -2.0031  0.0959  0.6518
 4250TIP3    H234242   1.199   4.272  13.870 -2.0604 -0.1355  0.7354
 4251TIP3   OH234243   1.318   2.870   0.504 -0.6344 -0.2293  0.0582
 4251TIP3    H134244   1.285   2.949   0.460 -0.8113 -1.1912 -1.5542
 4251TIP3    H234245   1.382   2.904   0.568 -1.1257  1.2584 -0.2056
 4252TIP3   OH234246   2.003   5.941  12.746 -0.0457  0.1466 -0.3218
 4252TIP3    H134247   1.965   5.959  12.659 -1.0911 -0.2705  0.0337
 4252TIP3    H234248   1.927   5.919  12.800  0.1584  3.8986  1.6442
 4253TIP3   OH234249   1.813   0.799   4.445  0.2162  0.3723  0.1457
 4253TIP3    H134250   1.765   0.875   4.477 -3.5845 -3.0886  3.3089
 4253TIP3    H234251   1.761   0.768   4.371 -0.2310 -1.0896  1.0545
 4254TIP3   OH234252   5.241   2.978   4.060 -0.0679  0.1271 -0.9991
 4254TIP3    H134253   5.201   2.955   3.977 -2.4394 -2.5276  0.7876
 4254TIP3    H234254   5.278   2.896   4.093 -1.1604  0.6083  1.5750
 4255TIP3   OH234255   3.451   3.215   2.525  0.0359  0.4879 -0.1549
 4255TIP3    H134256   3.359   3.201   2.507 -0.5651  0.7445  2.5050
 4255TIP3    H234257   3.484   3.129   2.554  0.1191  0.8633  0.8909
 4256TIP3   OH234258   3.054   1.575  12.470 -0.5590  0.5997  0.4274
 4256TIP3    H134259   3.025   1.520  12.543 -1.4713  0.8421  0.2491
 4256TIP3    H234260   3.019   1.662  12.490 -1.8295  0.4114 -0.8874
 4257TIP3   OH234261   5.342   0.353   5.508  0.5719 -0.1535 -0.2563
 4257TIP3    H134262   5.423   0.392   5.539  0.0440  1.1740 -0.5078
 4257TIP3    H234263   5.367   0.304   5.429  0.9023  1.3962 -1.1346
 4258TIP3   OH234264   6.718   0.168   5.295 -0.5500 -0.3340 -0.1417
 4258TIP3    H134265   6.784   0.101   5.313  0.3646  0.6361  0.1518
 4258TIP3    H234266   6.758   0.225   5.230  0.0995  1.9918  2.2274
 4259TIP3   OH234267   4.054   1.157  16.097 -0.0856 -0.3889 -0.3917
 4259TIP3    H134268   4.068   1.194  16.009  0.8856  0.9893  0.3295
 4259TIP3    H234269   4.045   1.234  16.153 -0.4737 -1.2761  0.7574
 4260TIP3   OH234270   1.943   1.203  16.468  0.2480  0.2120 -0.0362
 4260TIP3    H134271   1.917   1.121  16.425  2.0517  0.6925 -2.1231
 4260TIP3    H234272   1.874   1.218  16.532  0.5760 -3.6515  1.3681
 4261TIP3   OH234273   2.216   4.072  17.263 -0.1196  0.6712 -0.2860
 4261TIP3    H134274   2.245   4.060  17.173  0.7572  0.0544  0.0780
 4261TIP3    H234275   2.156   4.147  17.259  0.3368  0.9897 -1.2787
 4262TIP3   OH234276   5.035   1.143   4.693  0.5951  0.6175  0.1130
 4262TIP3    H134277   5.125   1.112   4.687  1.7842  3.9850 -0.4053
 4262TIP3    H234278   4.997   1.091   4.763  2.8012 -1.1878  0.0200
 4263TIP3   OH234279   4.279   1.397   1.049 -0.2328  1.0747  0.5195
 4263TIP3    H134280   4.354   1.457   1.049 -0.0033  0.7911 -0.4499
 4263TIP3    H234281   4.204   1.453   1.030 -0.2526  1.3318  1.3266
 4264TIP3   OH234282   5.303   2.074  13.706 -0.5509  0.2878 -0.1987
 4264TIP3    H134283   5.226   2.086  13.650 -0.6148 -2.7431 -0.8584
 4264TIP3    H234284   5.268   2.053  13.792 -0.4520  0.6466 -0.0689
 4265TIP3   OH234285   0.925   0.957   0.000  0.4780 -0.5296  0.7110
 4265TIP3    H134286   0.985   0.885   0.020 -1.4133 -2.4795 -0.3516
 4265TIP3    H234287   0.844   0.933   0.046 -0.2497  0.8044  0.1407
 4266TIP3   OH234288   4.115   1.380   5.879  0.1421 -0.1963 -0.4372
 4266TIP3    H134289   4.087   1.460   5.923  3.3825  1.7750 -1.7878
 4266TIP3    H234290   4.160   1.330   5.947 -1.4342 -0.6789  0.2788
 4267TIP3   OH234291   6.227   5.112  14.020 -0.2446 -0.2725  0.3023
 4267TIP3    H134292   6.225   5.178  14.090 -0.2328  1.2840 -1.1280
 4267TIP3    H234293   6.144   5.126  13.973  0.1266 -0.7429 -0.4879
 4268TIP3   OH234294   5.951   3.802  13.091  0.2748 -0.4088 -0.1116
 4268TIP3    H134295   5.931   3.761  13.175 -2.6421 -0.3304 -0.7403
 4268TIP3    H234296   5.934   3.895  13.105  2.3142 -0.0033 -0.0739
 4269TIP3   OH234297   6.208   1.686   3.921 -0.1332  0.3154  0.4014
 4269TIP3    H134298   6.302   1.706   3.922 -0.1334  0.3887 -0.5816
 4269TIP3    H234299   6.172   1.747   3.857 -0.8531  0.2441  0.7370
 4270TIP3   OH234300   3.961   3.696   0.929 -0.2994  0.1388 -0.3099
 4270TIP3    H134301   3.912   3.648   0.862  1.2595 -1.3133 -0.4439
 4270TIP3    H234302   4.048   3.706   0.892  0.0293  1.0590  0.6927
 4271TIP3   OH234303   1.376   1.441   5.059 -0.4176  0.1788  0.1113
 4271TIP3    H134304   1.387   1.530   5.091  0.1904  0.6621 -1.4288
 4271TIP3    H234305   1.457   1.421   5.013 -0.3471 -1.3502  0.8691
 4272TIP3   OH234306   2.178   1.416   0.706  0.4832  0.0990  0.1558
 4272TIP3    H134307   2.164   1.417   0.801 -1.1135 -0.4120 -0.0627
 4272TIP3    H234308   2.244   1.347   0.693  0.1558 -0.3497  0.8307
 4273TIP3   OH234309   2.170   4.622  13.827  0.0354 -0.4474  0.1675
 4273TIP3    H134310   2.085   4.660  13.850 -0.2846 -1.8260  1.3720
 4273TIP3    H234311   2.231   4.663  13.888 -0.3610 -2.0529  1.6794
 4274TIP3   OH234312   2.868   4.114   0.366 -0.4407 -0.0744  0.5234
 4274TIP3    H134313   2.896   4.038   0.315 -0.6488 -0.1830  0.5718
 4274TIP3    H234314   2.789   4.085   0.411  0.7255 -0.5694  2.3330
 4275TIP3   OH234315   0.187   1.804   4.776 -0.3777 -0.0686 -0.9341
 4275TIP3    H134316   0.262   1.830   4.723  0.3867 -0.6065 -0.1254
 4275TIP3    H234317   0.221   1.798   4.865 -1.9615  2.1096 -0.1521
 4276TIP3   OH234318   2.562   1.559   3.618  0.5044  0.0268  0.1899
 4276TIP3    H134319   2.483   1.612   3.608  0.2463 -0.5881 -1.1127
 4276TIP3    H234320   2.544   1.503   3.693  1.0762  2.2623  2.0737
 4277TIP3   OH234321   4.756   3.638  13.222  0.5372  0.6118  0.3157
 4277TIP3    H134322   4.688   3.628  13.155 -0.5870  2.7498  1.1097
 4277TIP3    H234323   4.719   3.598  13.300  1.3682 -0.8046 -0.0043
 4278TIP3   OH234324   1.182   2.364  17.107  0.0214  0.0989  0.9091
 4278TIP3    H134325   1.214   2.424  17.040  0.3545 -1.4385 -0.3360
 4278TIP3    H234326   1.253   2.357  17.171 -0.3861  1.7451  1.5494
 4279TIP3   OH234327   2.378   5.712   1.271 -0.1363 -0.0647  0.2659
 4279TIP3    H134328   2.391   5.788   1.215  0.3550 -0.3708 -0.0328
 4279TIP3    H234329   2.465   5.676   1.286 -0.4795 -1.3277 -0.6507
 4280TIP3   OH234330   1.671   4.519   1.137 -0.0625 -0.2799 -0.4829
 4280TIP3    H134331   1.629   4.467   1.206 -0.9938 -0.5233 -1.2196
 4280TIP3    H234332   1.624   4.495   1.057 -0.2624  1.4010 -0.8918
 4281TIP3   OH234333   1.981   2.124  10.978  0.7225  0.1245 -0.1031
 4281TIP3    H134334   2.065   2.161  11.007  1.3008 -1.1725 -0.0805
 4281TIP3    H234335   1.994   2.029  10.984 -0.6942 -0.0806 -0.2766
 4282TIP3   OH234336   0.725   1.151   0.275  0.2455  0.2334  0.2573
 4282TIP3    H134337   0.724   1.068   0.228  1.2173  0.5180 -0.2927
 4282TIP3    H234338   0.693   1.215   0.211 -0.4584  0.2826  0.6638
 4283TIP3   OH234339   6.648   3.534  17.263  0.0569 -0.7226  0.1735
 4283TIP3    H134340   6.694   3.520  17.180  0.5909 -3.8509  0.9353
 4283TIP3    H234341   6.564   3.489  17.252  0.0668 -1.0226  1.2659
 4284TIP3   OH234342   1.092   4.455  16.598 -0.5168 -0.6253 -0.2143
 4284TIP3    H134343   1.038   4.515  16.650  0.3018  0.7977 -0.9787
 4284TIP3    H234344   1.070   4.475  16.507  0.1086 -1.1824 -0.4918
 4285TIP3   OH234345   6.366   0.926   2.571 -0.2253 -0.1358  0.5096
 4285TIP3    H134346   6.445   0.876   2.552  0.8685  1.3657  1.0529
 4285TIP3    H234347   6.357   0.922   2.666  0.0582  0.9751  0.5880
 4286TIP3   OH234348   5.894   0.768   4.448 -0.3099  0.1149 -0.2840
 4286TIP3    H134349   5.818   0.787   4.502  0.0579 -0.8065  0.5856
 4286TIP3    H234350   5.933   0.690   4.488  0.5285 -0.0024 -1.2966
 4287TIP3   OH234351   2.027   6.447   3.087 -0.4161 -0.0528 -0.3691
 4287TIP3    H134352   2.100   6.509   3.094 -0.8245  0.3210  0.6774
 4287TIP3    H234353   2.064   6.364   3.116 -0.3040  0.0596 -0.1864
 4288TIP3   OH234354   2.272   0.588  11.782 -0.7590 -0.4199 -0.1720
 4288TIP3    H134355   2.219   0.535  11.723  0.1434 -2.2598  0.6414
 4288TIP3    H234356   2.311   0.526  11.843  0.6440  1.1246  0.5716
 4289TIP3   OH234357   1.421   1.029   0.989 -0.1125  0.1107 -0.0628
 4289TIP3    H134358   1.511   1.040   0.959  0.1988 -0.6250  0.5686
 4289TIP3    H234359   1.404   1.107   1.041 -0.0355  0.5216 -0.6485
 4290TIP3   OH234360   0.773   4.745   4.070  0.2950  0.4758  0.8711
 4290TIP3    H134361   0.777   4.740   3.974  0.0813  1.2378  0.8210
 4290TIP3    H234362   0.685   4.715   4.092  0.1324  0.8960  0.7900
 4291TIP3   OH234363   4.287   0.954  14.717 -0.1109 -0.1565  0.7021
 4291TIP3    H134364   4.251   0.894  14.652  0.2558  1.5044 -1.0904
 4291TIP3    H234365   4.276   0.909  14.801 -1.4857 -1.9217 -0.4006
 4292TIP3   OH234366   4.208   5.518  14.719 -0.3248  0.3056 -0.3129
 4292TIP3    H134367   4.145   5.458  14.678 -1.6662 -0.1554  2.3267
 4292TIP3    H234368   4.290   5.469  14.721 -1.1818 -1.0916  0.9795
 4293TIP3   OH234369   4.776   4.288  12.022 -0.0952  0.0367  0.5043
 4293TIP3    H134370   4.837   4.232  11.974 -1.8496 -1.0911 -0.4694
 4293TIP3    H234371   4.806   4.377  12.004  1.0399 -0.4801 -0.2413
 4294TIP3   OH234372   0.791   6.285  14.267  0.2679  0.1844 -0.3340
 4294TIP3    H134373   0.760   6.295  14.177  0.6574 -0.9611 -0.6053
 4294TIP3    H234374   0.712   6.284  14.320 -0.0492 -0.6387 -0.8157
 4295TIP3   OH234375   4.657   0.846   4.249 -0.0069 -0.2347  0.4819
 4295TIP3    H134376   4.657   0.820   4.156  1.5116 -1.6154  0.8466
 4295TIP3    H234377   4.618   0.771   4.294  1.8340 -0.7478  1.2520
 4296TIP3   OH234378   0.261   5.352  17.167  0.7017 -0.3356  0.8266
 4296TIP3    H134379   0.265   5.308  17.252  0.4116  0.5610  1.3053
 4296TIP3    H234380   0.179   5.321  17.128 -1.0126  1.9988  2.4078
 4297TIP3   OH234381   1.995   0.084  14.720  0.3529 -0.0838 -0.0716
 4297TIP3    H134382   2.068   0.147  14.720  0.4805 -0.2269 -1.0818
 4297TIP3    H234383   2.037  -0.002  14.724  0.1616 -0.1140  2.0228
 4298TIP3   OH234384   4.440   2.661  16.700  0.4182  0.4991  0.4146
 4298TIP3    H134385   4.532   2.659  16.726  0.6694  2.2821 -0.2555
 4298TIP3    H234386   4.392   2.668  16.782  1.0055  2.0001  0.6380
 4299TIP3   OH234387   3.419   6.738   0.971  0.3420 -0.7853 -0.1376
 4299TIP3    H134388   3.394   6.681   0.898 -0.6919 -0.9980  0.3685
 4299TIP3    H234389   3.425   6.825   0.932  0.8831 -1.0659 -0.6970
 4300TIP3   OH234390   6.096   4.710  13.250 -0.1484 -0.2216 -0.4813
 4300TIP3    H134391   6.108   4.621  13.215  2.0922 -0.5894  1.1062
 4300TIP3    H234392   6.010   4.709  13.290 -0.3358 -1.5397 -0.8938
 4301TIP3   OH234393   4.678   0.405   4.326 -0.1183 -1.2081  1.1849
 4301TIP3    H134394   4.596   0.359   4.305 -0.3212 -1.6745  2.8814
 4301TIP3    H234395   4.650   0.485   4.370  0.3197 -1.5021  2.0269
 4302TIP3   OH234396   2.644   1.178   6.483  0.1668  0.4882  0.6388
 4302TIP3    H134397   2.699   1.252   6.509  1.0485 -0.5472  1.8222
 4302TIP3    H234398   2.639   1.123   6.562 -2.6731  0.6063  0.5789
 4303TIP3   OH234399   4.686   2.443  14.794 -0.1025  0.0778 -0.1526
 4303TIP3    H134400   4.607   2.495  14.780  0.9238  1.4338 -1.0144
 4303TIP3    H234401   4.756   2.507  14.806  1.0536 -1.0998 -0.4042
 4304TIP3   OH234402   0.075   0.958   3.911  0.4236 -0.1379 -0.7138
 4304TIP3    H134403   0.157   0.922   3.877 -0.0019 -0.7425 -1.1111
 4304TIP3    H234404   0.103   1.024   3.974  1.2202  0.3662 -1.5785
 4305TIP3   OH234405   5.777   0.721   0.849  0.1494  0.3231  0.4780
 4305TIP3    H134406   5.756   0.770   0.769 -2.0772  0.7976  1.3061
 4305TIP3    H234407   5.748   0.779   0.920  1.4698 -0.3929  1.6045
 4306TIP3   OH234408   5.649   0.926  13.076  0.2741 -1.0436 -0.0350
 4306TIP3    H134409   5.649   0.954  13.167 -0.9152 -1.1510  0.0134
 4306TIP3    H234410   5.726   0.871  13.067  0.2713 -1.2146  0.9688
 4307TIP3   OH234411   2.316   5.450  13.737 -0.4837 -0.4294  0.0544
 4307TIP3    H134412   2.337   5.529  13.788 -0.2479 -0.4415 -0.0222
 4307TIP3    H234413   2.222   5.457  13.719 -0.2438  0.3990 -0.9181
 4308TIP3   OH234414   3.889   4.136  16.051  0.1043 -0.0167 -0.0375
 4308TIP3    H134415   3.960   4.127  16.115  0.6314  1.0591 -0.4518
 4308TIP3    H234416   3.931   4.117  15.967 -0.3588 -0.4516 -0.1713
 4309TIP3   OH234417   0.108   2.218  15.530  0.3720 -0.1201  0.6186
 4309TIP3    H134418   0.026   2.208  15.577  0.9630  1.1449  1.9746
 4309TIP3    H234419   0.083   2.252  15.444 -0.5517 -0.0324  0.9219
 4310TIP3   OH234420   0.063   5.306  13.300  0.4623  0.1426 -0.2170
 4310TIP3    H134421   0.120   5.250  13.353  2.4015  0.4569 -1.9029
 4310TIP3    H234422   0.018   5.245  13.241 -1.6523 -0.2018  1.6845
 4311TIP3   OH234423   5.312   2.372  17.039 -0.1266  0.7136  0.0970
 4311TIP3    H134424   5.367   2.441  17.074 -1.1006  1.6744 -0.2414
 4311TIP3    H234425   5.235   2.372  17.096  0.1095 -0.4721  0.4338
 4312TIP3   OH234426   4.535   1.346  10.735  0.4918  0.7657 -0.4105
 4312TIP3    H134427   4.465   1.394  10.690 -0.3856 -1.3414 -1.3728
 4312TIP3    H234428   4.491   1.303  10.808  0.5535 -1.2461 -1.4970
 4313TIP3   OH234429   2.960   1.647   3.296 -0.4617 -0.1862 -0.1692
 4313TIP3    H134430   2.921   1.565   3.325 -0.5669  0.3001  1.0783
 4313TIP3    H234431   2.914   1.669   3.214 -1.2609 -0.7427  0.1330
 4314TIP3   OH234432   1.921   2.623  12.977 -0.0217 -0.2482  0.4250
 4314TIP3    H134433   1.894   2.622  12.885 -0.2745 -1.2254  0.5029
 4314TIP3    H234434   1.862   2.685  13.019 -0.2378 -0.1800  0.0266
 4315TIP3   OH234435   0.608   2.433  11.582 -0.2309  0.2314 -0.1292
 4315TIP3    H134436   0.517   2.438  11.613  0.2019  3.1213  0.8177
 4315TIP3    H234437   0.600   2.427  11.487 -1.4539 -3.3715  0.1272
 4316TIP3   OH234438   4.377   4.799  11.534 -0.1829 -0.4763 -0.3542
 4316TIP3    H134439   4.379   4.894  11.522 -0.3015 -0.7722 -2.8776
 4316TIP3    H234440   4.331   4.766  11.457 -0.3619 -2.5796  0.6295
 4317TIP3   OH234441   5.176   0.896  14.067  0.5330  0.0183  0.2956
 4317TIP3    H134442   5.144   0.952  14.138  0.0981 -1.5124  1.3366
 4317TIP3    H234443   5.137   0.932  13.988  0.9922  1.7280  0.8314
 4318TIP3   OH234444   5.015   2.124  13.034  0.1663  0.1460 -0.6000
 4318TIP3    H134445   4.982   2.035  13.048  1.4110 -0.2317 -0.0293
 4318TIP3    H234446   5.081   2.114  12.965  1.9660  0.2448  1.0810
 4319TIP3   OH234447   1.881   3.988   0.568 -0.4102 -0.4019  0.0574
 4319TIP3    H134448   1.834   3.999   0.651 -0.7683  0.9670 -0.3198
 4319TIP3    H234449   1.909   3.897   0.569 -0.9796 -0.5787  1.3913
 4320TIP3   OH234450   1.651   4.191   4.618 -0.1562 -0.1412 -0.2776
 4320TIP3    H134451   1.617   4.155   4.537  0.1604 -0.6407 -0.1873
 4320TIP3    H234452   1.628   4.127   4.685 -0.3536  0.2361  0.0182
 4321TIP3   OH234453   5.217   1.783  14.407 -0.5132  0.1265 -0.0836
 4321TIP3    H134454   5.161   1.732  14.466  1.4372 -1.1028  0.8063
 4321TIP3    H234455   5.203   1.874  14.432 -1.4818 -0.2300  0.6931
 4322TIP3   OH234456   4.666   6.175   0.281 -0.0066 -0.4744 -0.2685
 4322TIP3    H134457   4.572   6.154   0.282 -0.1811  0.2824 -0.4917
 4322TIP3    H234458   4.700   6.136   0.361 -0.6105 -0.3224  0.0650
 4323TIP3   OH234459   3.121   6.600   2.009  0.4037  0.3665  0.7874
 4323TIP3    H134460   3.216   6.588   2.006  0.3021 -0.8403  1.8443
 4323TIP3    H234461   3.093   6.593   1.917  1.1769 -0.6847  0.6276
 4324TIP3   OH234462   5.133   4.512   4.166  0.7258 -0.5117 -0.4163
 4324TIP3    H134463   5.067   4.536   4.100 -0.1222  1.4425  1.0757
 4324TIP3    H234464   5.215   4.508   4.117  0.1244  0.9613 -1.6102
 4325TIP3   OH234465   1.533   4.590  14.216 -0.0396  0.5066  0.2217
 4325TIP3    H134466   1.488   4.537  14.282 -0.6648  0.8262  0.0546
 4325TIP3    H234467   1.462   4.632  14.167  0.3739 -0.9390 -1.6596
 4326TIP3   OH234468   1.849   1.441   3.833  0.7624  0.1651  0.1100
 4326TIP3    H134469   1.856   1.437   3.929  0.0921  1.7667  0.2385
 4326TIP3    H234470   1.756   1.434   3.815  0.7669  1.2107 -0.3497
 4327TIP3   OH234471   4.737   6.012   2.537 -0.2409 -0.5347  0.5679
 4327TIP3    H134472   4.797   5.973   2.600  0.9927 -0.6528 -0.6507
 4327TIP3    H234473   4.704   5.938   2.486  1.5128 -0.1045 -1.2439
 4328TIP3   OH234474   2.920   6.365   4.749 -0.1020 -0.5159  0.1790
 4328TIP3    H134475   2.870   6.321   4.681 -1.8036 -0.7637  1.5542
 4328TIP3    H234476   2.979   6.297   4.783  0.1714 -0.6121 -0.4897
 4329TIP3   OH234477   5.179   5.516   3.921 -0.0323 -0.1630 -0.0312
 4329TIP3    H134478   5.238   5.523   3.845  1.0147  0.8429  0.8513
 4329TIP3    H234479   5.206   5.589   3.978 -1.6110 -0.1836  0.7455
 4330TIP3   OH234480   1.337   0.011   5.616  0.5003  0.0342 -0.0865
 4330TIP3    H134481   1.359  -0.008   5.707  2.7742  0.2680 -0.5524
 4330TIP3    H234482   1.293   0.096   5.619  0.7307  0.1228  0.7653
 4331TIP3   OH234483   6.233   0.940  10.624 -0.3657  0.0727 -0.3283
 4331TIP3    H134484   6.181   0.869  10.662 -1.1618  0.6821 -0.2598
 4331TIP3    H234485   6.191   1.020  10.657  2.3664  0.5778  2.1167
 4332TIP3   OH234486   2.087   1.233  14.226  0.4638  0.1546 -0.0336
 4332TIP3    H134487   2.049   1.320  14.213  1.0652  0.4821  0.3299
 4332TIP3    H234488   2.069   1.186  14.145 -2.4870 -0.4008  0.8776
 4333TIP3   OH234489   4.322   0.686   3.299 -0.1449  0.0024 -0.2364
 4333TIP3    H134490   4.361   0.602   3.323  0.2113  0.0641 -0.5854
 4333TIP3    H234491   4.301   0.728   3.383  2.1225  0.7002  0.0276
 4334TIP3   OH234492   2.733   5.731   6.210 -0.2542  0.4441 -0.1442
 4334TIP3    H134493   2.805   5.670   6.223 -1.1829 -0.5894  0.1895
 4334TIP3    H234494   2.775   5.817   6.208  1.2302 -0.2951 -2.1394
 4335TIP3   OH234495   1.177   6.060   5.730 -0.5999  0.2802 -0.0780
 4335TIP3    H134496   1.197   6.126   5.796 -1.1143 -0.1677  0.5321
 4335TIP3    H234497   1.113   6.002   5.772 -0.6663 -0.2141 -0.8419
 4336TIP3   OH234498   3.860   1.268  12.102  0.5485  0.2247 -0.3344
 4336TIP3    H134499   3.861   1.342  12.041 -0.8286 -0.8588 -1.7301
 4336TIP3    H234500   3.780   1.220  12.079  0.7718 -1.0043  1.3842
 4337TIP3   OH234501   4.822   4.790   3.420  0.3079 -0.5568 -0.1325
 4337TIP3    H134502   4.848   4.878   3.394  1.7819 -0.8121  0.4328
 4337TIP3    H234503   4.779   4.753   3.343  1.7313 -0.1535 -1.1370
 4338TIP3   OH234504   2.925   3.142   0.799  0.3934  1.0264 -0.6182
 4338TIP3    H134505   2.865   3.132   0.873  1.3025 -2.6361 -0.2598
 4338TIP3    H234506   2.870   3.129   0.722  0.4536 -1.1313 -0.3284
 4339TIP3   OH234507   3.231   0.097  14.587 -0.2759 -0.0653  0.3175
 4339TIP3    H134508   3.152   0.132  14.548 -0.4640 -1.3289 -0.4561
 4339TIP3    H234509   3.236   0.007  14.555 -0.0470 -0.9117  2.5916
 4340TIP3   OH234510   5.650   5.488  13.211  0.6483  0.2658  0.0211
 4340TIP3    H134511   5.556   5.492  13.228  1.1978  1.6502  3.1196
 4340TIP3    H234512   5.678   5.579  13.211  2.5392 -0.2404  2.9777
 4341TIP3   OH234513   4.137   0.306  11.847  0.1996  0.9173 -0.2181
 4341TIP3    H134514   4.168   0.261  11.925  0.1005  1.8214  0.3561
 4341TIP3    H234515   4.089   0.382  11.881  1.1313  1.9493 -1.1786
 4342TIP3   OH234516   2.524   0.265  14.157 -0.6347 -0.0129  0.3243
 4342TIP3    H134517   2.430   0.276  14.165 -0.6925 -0.5956  0.4464
 4342TIP3    H234518   2.559   0.355  14.155 -1.1807  0.1981  0.3527
 4343TIP3   OH234519   3.676   1.117  11.048  0.1234  0.4384  0.2556
 4343TIP3    H134520   3.604   1.159  11.000 -1.4831 -2.8193 -0.3177
 4343TIP3    H234521   3.683   1.167  11.129 -3.2558  0.4460  0.6208
 4344TIP3   OH234522   2.859   6.498  11.428 -0.0577  0.0214 -0.2346
 4344TIP3    H134523   2.904   6.467  11.349  0.8205 -0.0642  0.2850
 4344TIP3    H234524   2.839   6.590  11.409 -0.9874 -0.3437 -1.0451
 4345TIP3   OH234525   2.634   2.193   4.331 -0.0718 -0.1321  0.1262
 4345TIP3    H134526   2.677   2.109   4.312 -0.3306  0.4270 -3.2007
 4345TIP3    H234527   2.548   2.168   4.365  0.5054 -1.2379  0.7823
 4346TIP3   OH234528   6.535   3.612  16.391  0.2179 -0.1558  0.0072
 4346TIP3    H134529   6.458   3.584  16.342  0.7969 -0.6713 -0.6210
 4346TIP3    H234530   6.540   3.552  16.465  1.2340 -1.5237 -1.1267
 4347TIP3   OH234531   4.049   2.861   0.127 -0.1856  0.0199  0.7791
 4347TIP3    H134532   4.140   2.889   0.142  0.1407 -1.3411  1.5128
 4347TIP3    H234533   4.058   2.774   0.086 -1.1533 -0.2151  1.0629
 4348TIP3   OH234534   0.861   3.652  13.618 -0.1168 -0.0342 -0.3676
 4348TIP3    H134535   0.861   3.739  13.578 -1.0417  1.4876  2.7956
 4348TIP3    H234536   0.796   3.603  13.567  0.1120  1.2149 -1.9218
 4349TIP3   OH234537   3.673   3.667   1.539  0.2841  0.6958 -0.0052
 4349TIP3    H134538   3.673   3.596   1.475  0.9822  0.3432  0.3790
 4349TIP3    H234539   3.609   3.640   1.605  0.8275  0.2315  0.3403
 4350TIP3   OH234540   5.463   1.511  13.880 -0.7697 -0.1280  0.3013
 4350TIP3    H134541   5.501   1.573  13.943 -3.1831  0.5046  1.1998
 4350TIP3    H234542   5.494   1.542  13.795  1.6048 -0.3149  1.0548
 4351TIP3   OH234543   1.808   3.686  15.420 -1.0767 -0.0659  0.1934
 4351TIP3    H134544   1.833   3.778  15.425  0.9838 -0.5286 -0.7299
 4351TIP3    H234545   1.730   3.685  15.365 -1.9065  1.2379  1.3209
 4352TIP3   OH234546   5.728   5.098  12.920  0.6145 -0.4290 -0.2650
 4352TIP3    H134547   5.651   5.128  12.871  0.7719 -1.0805 -0.9204
 4352TIP3    H234548   5.759   5.176  12.966 -0.2088 -0.0718 -0.3050
 4353TIP3   OH234549   4.659   6.757   4.405 -0.7993  0.0516 -0.1526
 4353TIP3    H134550   4.719   6.733   4.334 -0.4504 -0.9950  0.4889
 4353TIP3    H234551   4.657   6.680   4.462 -2.1253  0.3905  0.2633
 4354TIP3   OH234552   4.560   1.258   4.924 -0.0459  0.0458  0.0720
 4354TIP3    H134553   4.485   1.303   4.887  0.1577  0.3383  0.0167
 4354TIP3    H234554   4.635   1.315   4.906  0.3329 -0.6845 -0.6898
 4355TIP3   OH234555   0.307   2.753   1.901 -0.3347 -0.1015 -0.0199
 4355TIP3    H134556   0.291   2.660   1.885  1.1353 -0.1725 -1.1727
 4355TIP3    H234557   0.258   2.798   1.832 -1.7760  0.0196  1.0823
 4356TIP3   OH234558   4.872   0.246  14.563 -0.0611  0.5358  0.3516
 4356TIP3    H134559   4.901   0.335  14.582 -0.5749  0.5025  1.3518
 4356TIP3    H234560   4.938   0.190  14.604 -0.7983  0.4616  1.4552
 4357TIP3   OH234561   4.441   3.059   6.077  0.1262 -0.4647  0.3693
 4357TIP3    H134562   4.475   3.105   6.000 -0.2635 -0.5318  0.1561
 4357TIP3    H234563   4.357   3.102   6.095 -0.3741 -1.2868 -0.0074
 4358TIP3   OH234564   5.961   3.813   1.346  0.1790 -0.3597  0.0900
 4358TIP3    H134565   5.932   3.783   1.432 -0.3727 -1.0369 -0.3257
 4358TIP3    H234566   5.882   3.847   1.304 -0.0453 -2.1540 -1.0231
 4359TIP3   OH234567   5.353   3.373  12.632 -0.2373  0.7781  0.5649
 4359TIP3    H134568   5.363   3.401  12.722  0.2268  1.6260  0.2505
 4359TIP3    H234569   5.419   3.422  12.583  0.8248 -1.0956  0.0539
 4360TIP3   OH234570   6.672   6.032   2.627 -0.0972 -0.2143  0.0012
 4360TIP3    H134571   6.710   5.950   2.598 -1.0154 -0.0438 -1.7458
 4360TIP3    H234572   6.741   6.097   2.613 -0.0779 -0.3545 -0.5484
 4361TIP3   OH234573   4.956   3.158   5.420  0.2009 -0.0237  0.0445
 4361TIP3    H134574   5.020   3.116   5.363  0.3053 -0.7750  0.7168
 4361TIP3    H234575   4.947   3.247   5.384  1.1988 -0.0941 -0.3827
 4362TIP3   OH234576   6.210   6.131  14.918  0.4094 -0.4739 -0.0714
 4362TIP3    H134577   6.304   6.146  14.903  0.1328  0.0542 -1.3774
 4362TIP3    H234578   6.180   6.086  14.839 -0.6842  0.4580 -0.2063
 4363TIP3   OH234579   3.281   2.337   2.328 -0.5699  0.2304  0.9820
 4363TIP3    H134580   3.328   2.396   2.270 -0.0889  0.9537  2.0891
 4363TIP3    H234581   3.219   2.291   2.271  2.3340 -1.6988 -0.7845
 4364TIP3   OH234582   3.044   2.743   2.677  0.0493 -0.0437 -0.5376
 4364TIP3    H134583   3.105   2.812   2.651  1.1707 -0.1625  1.7336
 4364TIP3    H234584   2.957   2.784   2.672  0.6367  1.2643 -0.0531
 4365TIP3   OH234585   6.430   4.185   2.855  0.1166 -0.1444  0.0614
 4365TIP3    H134586   6.344   4.184   2.812 -0.0952  0.7312  0.4589
 4365TIP3    H234587   6.472   4.104   2.825 -0.1650  0.2658 -1.4914
 4366TIP3   OH234588   3.475   6.684  12.201  0.3669  0.0143 -0.0196
 4366TIP3    H134589   3.526   6.668  12.280  1.0650  0.9925 -0.2630
 4366TIP3    H234590   3.537   6.721  12.139  0.5483 -3.5524 -2.1187
 4367TIP3   OH234591   3.366   1.995  12.100  0.2937  0.5397  0.1229
 4367TIP3    H134592   3.332   2.054  12.032 -1.4209 -0.6372 -0.0709
 4367TIP3    H234593   3.458   1.985  12.079  0.0952  1.3357 -1.1874
 4368TIP3   OH234594   6.115   5.467  12.984  0.3708 -0.7119  0.0461
 4368TIP3    H134595   6.206   5.470  12.954  0.6326 -1.3501  0.7728
 4368TIP3    H234596   6.064   5.464  12.903  0.8076  3.5322 -0.4925
 4369TIP3   OH234597   5.128   4.206   2.167  0.0644 -0.0405 -0.4460
 4369TIP3    H134598   5.136   4.293   2.126  1.0847 -0.0003 -0.1880
 4369TIP3    H234599   5.151   4.145   2.097  2.5437  0.0616  0.2231
 4370TIP3   OH234600   1.395   3.492  14.682  0.6169  0.3544  0.4064
 4370TIP3    H134601   1.488   3.494  14.703  0.9495  2.4715 -1.0175
 4370TIP3    H234602   1.389   3.535  14.596 -1.4961 -1.1460 -0.2585
 4371TIP3   OH234603   0.557   5.127   0.125  0.3750 -0.9439 -0.1545
 4371TIP3    H134604   0.634   5.072   0.136  1.1127  0.3089  1.1790
 4371TIP3    H234605   0.562   5.157   0.034  1.1360 -1.3462 -0.2500
 4372TIP3   OH234606   1.604   3.535   0.198  0.4704 -0.0455  0.2853
 4372TIP3    H134607   1.631   3.491   0.279  2.9691 -1.3679 -1.2354
 4372TIP3    H234608   1.536   3.479   0.162  0.6981 -0.4632  0.4992
 4373TIP3   OH234609   3.956   1.051  14.631  0.3622 -0.4784 -0.6392
 4373TIP3    H134610   3.877   1.104  14.619  0.4033 -0.1283  0.5880
 4373TIP3    H234611   3.995   1.083  14.712  1.1363 -1.4486 -0.6125
 4374TIP3   OH234612   4.808   0.721   1.061  0.2652 -0.1984 -0.0502
 4374TIP3    H134613   4.796   0.677   1.146  1.3253  0.9893  0.7223
 4374TIP3    H234614   4.891   0.767   1.070  0.8019 -0.7478 -2.0493
 4375TIP3   OH234615   6.115   1.062  11.090  0.4001 -0.0464 -0.6722
 4375TIP3    H134616   6.059   0.995  11.050 -2.0372  0.2918  2.0174
 4375TIP3    H234617   6.087   1.143  11.048  1.8141 -0.3650 -2.3139
 4376TIP3   OH234618   0.823   6.212  14.633  0.7582  0.3197  0.2579
 4376TIP3    H134619   0.835   6.230  14.726  0.8284 -0.1811  0.3486
 4376TIP3    H234620   0.756   6.143  14.630  1.6203 -0.5294  0.0057
 4377TIP3   OH234621   4.053   4.322  14.843 -0.0687  0.5659  0.4874
 4377TIP3    H134622   3.966   4.317  14.803 -0.7390  1.5297  1.7987
 4377TIP3    H234623   4.112   4.334  14.769 -1.1888  1.2483 -0.3153
 4378TIP3   OH234624   6.653   0.222   5.628  0.5235  0.0140 -0.1707
 4378TIP3    H134625   6.620   0.248   5.542  0.6207  0.7434  0.0091
 4378TIP3    H234626   6.574   0.203   5.679  0.4901 -1.0405 -0.6161
 4379TIP3   OH234627   6.054   0.926   2.603 -0.0377  0.5615  0.0918
 4379TIP3    H134628   6.094   0.980   2.535  0.5241 -0.3201 -0.2772
 4379TIP3    H234629   6.116   0.929   2.675  0.8571 -1.0459 -0.5885
 4380TIP3   OH234630   3.952   5.850  15.275 -0.3413  0.2152  0.2463
 4380TIP3    H134631   3.981   5.801  15.352 -2.8906  0.3992  1.3992
 4380TIP3    H234632   4.027   5.904  15.251  0.4966  0.1618  2.6091
 4381TIP3   OH234633   4.418   3.835  16.923 -0.5941 -0.2605 -0.0600
 4381TIP3    H134634   4.364   3.906  16.957 -0.2444 -0.5986  1.2439
 4381TIP3    H234635   4.492   3.878  16.880 -0.8538  0.1750 -0.0613
 4382TIP3   OH234636   4.858   0.461   5.757  0.5028  0.3785 -0.1515
 4382TIP3    H134637   4.792   0.448   5.825  1.6471  2.0099  1.3071
 4382TIP3    H234638   4.942   0.445   5.801  1.1335 -0.7644 -1.7460
 4383TIP3   OH234639   0.076   3.601   5.591  0.0744  0.5274 -0.2460
 4383TIP3    H134640   0.064   3.663   5.520  0.8936  1.9702  0.8384
 4383TIP3    H234641   0.167   3.612   5.618 -0.4690  0.6935  1.6230
 4384TIP3   OH234642   5.799   1.144  15.052  0.3109  0.3369 -0.1029
 4384TIP3    H134643   5.793   1.209  14.982 -0.6511 -0.3615 -0.6747
 4384TIP3    H234644   5.820   1.062  15.008 -2.4375 -0.5539  0.1397
 4385TIP3   OH234645   6.448   5.032  11.854  0.0151 -0.5280  0.0721
 4385TIP3    H134646   6.437   4.991  11.768  0.0882 -1.5814  0.5498
 4385TIP3    H234647   6.358   5.050  11.883 -0.0746 -1.2565  0.2741
 4386TIP3   OH234648   1.601   2.419  14.674 -0.2879 -0.2716  0.5358
 4386TIP3    H134649   1.518   2.385  14.707 -0.5670  0.7454  0.8824
 4386TIP3    H234650   1.577   2.500  14.627  0.7812  1.3478  2.7207
 4387TIP3   OH234651   4.272   4.870  12.650 -0.0935 -0.4590  0.4247
 4387TIP3    H134652   4.318   4.874  12.734  0.7741  2.7450 -0.1595
 4387TIP3    H234653   4.341   4.874  12.584 -1.0449  2.0818 -0.4578
 4388TIP3   OH234654   5.779   6.642   1.603  0.0170 -0.1356 -0.3128
 4388TIP3    H134655   5.697   6.631   1.651  0.5184  0.2075  0.6312
 4388TIP3    H234656   5.820   6.718   1.644  0.0672  0.6708 -1.8228
 4389TIP3   OH234657   2.196   5.148   3.005 -0.2528  0.0547 -0.2350
 4389TIP3    H134658   2.270   5.112   3.054  0.7582  0.9200 -1.1199
 4389TIP3    H234659   2.150   5.203   3.069  1.3419  1.5713 -0.3636
 4390TIP3   OH234660   1.360   5.811   0.553 -0.8009 -0.4038  0.6167
 4390TIP3    H134661   1.290   5.871   0.526 -0.6056 -0.7537 -0.7068
 4390TIP3    H234662   1.405   5.789   0.472  2.8626  2.3073  1.7655
 4391TIP3   OH234663   4.828   4.626   4.216 -0.0828  0.0665 -0.3726
 4391TIP3    H134664   4.735   4.602   4.212 -0.4219  1.4369 -0.7515
 4391TIP3    H234665   4.829   4.715   4.251  1.2450 -0.9035  2.1397
 4392TIP3   OH234666   2.412   2.998   1.248  0.4239  0.1024  1.0819
 4392TIP3    H134667   2.324   2.964   1.234  0.9521 -0.6210 -0.6717
 4392TIP3    H234668   2.414   3.023   1.340 -1.7458  0.5541  1.0324
 4393TIP3   OH234669   3.230   5.625   3.627  0.5821 -0.0749 -0.1376
 4393TIP3    H134670   3.153   5.627   3.684  1.5565 -1.9049  1.2786
 4393TIP3    H234671   3.304   5.645   3.684  1.5170 -1.5205 -0.8038
 4394TIP3   OH234672   0.627   4.977   4.266 -0.6218 -0.0018  0.1494
 4394TIP3    H134673   0.678   5.048   4.227 -1.2350  0.1593 -0.3889
 4394TIP3    H234674   0.692   4.913   4.295 -0.1082  0.3142 -0.2911
 4395TIP3   OH234675   1.598   1.239  13.852  0.0897  0.1193 -0.8413
 4395TIP3    H134676   1.585   1.148  13.879  0.2880  0.6407  1.0661
 4395TIP3    H234677   1.525   1.287  13.893  1.7831  1.3239  0.8670
 4396TIP3   OH234678   4.277   2.662  14.956  0.1252 -0.0943  0.1441
 4396TIP3    H134679   4.184   2.662  14.978 -0.2805  1.1989 -1.4879
 4396TIP3    H234680   4.315   2.593  15.011 -2.1340 -1.9894 -0.5984
 4397TIP3   OH234681   2.517   1.220  12.552 -0.1272  0.3324  1.0007
 4397TIP3    H134682   2.440   1.183  12.595  0.2059  0.3338  1.6014
 4397TIP3    H234683   2.575   1.145  12.539  0.5974  0.6555  2.3174
 4398TIP3   OH234684   5.875   1.294  13.478 -0.0462 -0.3052  0.2719
 4398TIP3    H134685   5.816   1.301  13.402 -0.8566 -2.4918  0.6483
 4398TIP3    H234686   5.845   1.362  13.538 -2.4874 -1.5759  0.6041
 4399TIP3   OH234687   6.671   3.750   3.252 -0.5954  0.0659  1.0936
 4399TIP3    H134688   6.670   3.836   3.208 -1.4769 -0.0048  0.9541
 4399TIP3    H234689   6.583   3.715   3.236 -1.0299  0.1627  3.1829
 4400TIP3   OH234690   1.903   6.424   3.863  0.1074  0.4250 -0.0916
 4400TIP3    H134691   1.897   6.357   3.931 -0.8273 -0.0443 -0.6307
 4400TIP3    H234692   1.997   6.429   3.842  0.3312  0.1712  0.8138
 4401TIP3   OH234693   3.917   2.335   1.845 -0.2876  0.1333  0.0407
 4401TIP3    H134694   3.923   2.415   1.898  1.8296  0.0156  0.0216
 4401TIP3    H234695   3.926   2.365   1.755  0.5716 -0.1084  0.0361
 4402TIP3   OH234696   5.527   0.194  11.112 -0.0181 -0.6553  0.1264
 4402TIP3    H134697   5.527   0.119  11.172 -1.8480 -0.4034  0.4884
 4402TIP3    H234698   5.532   0.155  11.025 -0.0916 -1.1697  0.3515
 4403TIP3   OH234699   1.657   1.515   0.760  0.5278  0.7649  0.1705
 4403TIP3    H134700   1.604   1.532   0.682  0.2545  1.8261  0.5858
 4403TIP3    H234701   1.631   1.582   0.823  1.1033  0.2217  1.0062
 4404TIP3   OH234702   5.089   6.164  11.473  0.6569  0.2913  0.6442
 4404TIP3    H134703   5.092   6.108  11.396 -0.8088  1.5360 -0.3360
 4404TIP3    H234704   5.128   6.111  11.543  2.0946 -0.8024 -0.9584
 4405TIP3   OH234705   5.702   1.354   3.328 -0.4849  0.0200  0.0044
 4405TIP3    H134706   5.619   1.402   3.322 -0.3231  0.5894  2.0672
 4405TIP3    H234707   5.703   1.319   3.417 -1.2151 -5.0075 -1.8249
 4406TIP3   OH234708   6.488   0.286   1.542 -0.2927 -0.5953 -0.2675
 4406TIP3    H134709   6.538   0.364   1.566  0.6568 -0.9629 -1.0145
 4406TIP3    H234710   6.461   0.301   1.452  1.9575 -2.1632 -1.2397
 4407TIP3   OH234711   5.009   5.884  14.939  0.1061 -0.6092 -0.4193
 4407TIP3    H134712   5.094   5.890  14.983  0.5138 -0.1959 -1.2575
 4407TIP3    H234713   5.028   5.898  14.846 -0.7801 -1.2671 -0.7114
 4408TIP3   OH234714   4.427   5.578   2.620 -0.2961 -0.6417 -0.5366
 4408TIP3    H134715   4.440   5.661   2.665  3.0853 -1.4915  0.1790
 4408TIP3    H234716   4.379   5.524   2.682 -1.0857  0.2120 -0.3843
 4409TIP3   OH234717   3.711   5.612  12.016 -0.5646 -0.6660  0.2083
 4409TIP3    H134718   3.669   5.541  11.968 -1.4939 -0.7336  1.1235
 4409TIP3    H234719   3.730   5.678  11.949  1.4236 -2.2651 -0.8690
 4410TIP3   OH234720   1.530   5.473   3.672  0.1454  0.1855 -0.5805
 4410TIP3    H134721   1.538   5.378   3.674 -0.0068  0.1478 -1.4295
 4410TIP3    H234722   1.620   5.505   3.675  0.2798 -0.0322 -1.8440
 4411TIP3   OH234723   5.013   0.049   1.861  0.4435  0.1905  0.1697
 4411TIP3    H134724   5.024  -0.035   1.905 -2.0784  0.5233  1.5345
 4411TIP3    H234725   5.080   0.106   1.898  1.0961 -0.7512  0.4381
 4412TIP3   OH234726   1.565   4.554  16.513  0.1982 -0.4798 -0.0103
 4412TIP3    H134727   1.497   4.579  16.577  1.4845  1.0225  0.8072
 4412TIP3    H234728   1.641   4.606  16.538  1.5991 -1.9975 -1.0530
 4413TIP3   OH234729   5.517   3.444   4.361 -0.2391  0.0083 -0.2564
 4413TIP3    H134730   5.532   3.521   4.307 -1.1666  0.0921 -0.4005
 4413TIP3    H234731   5.475   3.381   4.302  1.2334 -0.9090 -0.3552
 4414TIP3   OH234732   4.578   1.807   0.506 -0.3970 -0.4725  0.4868
 4414TIP3    H134733   4.603   1.833   0.595  0.9502 -0.5575  0.1497
 4414TIP3    H234734   4.488   1.775   0.514 -0.3276 -0.3638  1.7942
 4415TIP3   OH234735   1.070   0.918  13.875  0.2285  0.0718 -0.1181
 4415TIP3    H134736   1.102   1.000  13.835 -0.1661 -0.1235 -0.8495
 4415TIP3    H234737   1.113   0.849  13.825 -0.1390 -0.1732 -0.0982
 4416TIP3   OH234738   4.311   2.933   2.622  0.2365  0.5241  0.4108
 4416TIP3    H134739   4.242   2.895   2.567 -0.4854  0.6773  1.2098
 4416TIP3    H234740   4.281   3.023   2.639  0.3329  0.3875  1.2855
 4417TIP3   OH234741   5.299   5.653  15.028  0.4438  0.2575 -0.2045
 4417TIP3    H134742   5.389   5.620  15.033 -0.2730 -1.8663 -0.6766
 4417TIP3    H234743   5.246   5.585  15.069 -1.1293  0.6722 -1.4732
 4418TIP3   OH234744   1.103   2.527   4.832 -0.1052 -0.3438  0.5589
 4418TIP3    H134745   1.141   2.504   4.917 -1.1514  0.4853  1.2611
 4418TIP3    H234746   1.113   2.622   4.827  1.2070 -0.5276 -0.8720
 4419TIP3   OH234747   2.382   0.216  15.546 -0.1615 -0.5163  1.0114
 4419TIP3    H134748   2.346   0.159  15.478  0.0481 -0.9587  1.2711
 4419TIP3    H234749   2.476   0.219  15.528  0.0047 -1.2626  1.7478
 4420TIP3   OH234750   5.217   2.649   0.687 -0.3168  0.0329 -0.8585
 4420TIP3    H134751   5.190   2.563   0.717  1.8593 -0.7947 -1.1317
 4420TIP3    H234752   5.253   2.633   0.599  1.4826  0.9188 -0.3221
 4421TIP3   OH234753   4.998   4.619  10.298 -0.0531  0.0601  0.4729
 4421TIP3    H134754   5.013   4.537  10.252 -1.2639 -0.5474  1.1592
 4421TIP3    H234755   4.962   4.678  10.232  0.2645 -0.1304  0.1264
 4422TIP3   OH234756   1.628   0.796  12.251  0.0711 -0.1323 -0.2139
 4422TIP3    H134757   1.651   0.704  12.269 -0.6183 -0.2379  0.1279
 4422TIP3    H234758   1.712   0.838  12.232  0.5267 -0.5793  0.7702
 4423TIP3   OH234759   2.232   2.987   5.813  0.6563 -0.3053  0.4056
 4423TIP3    H134760   2.208   3.072   5.774  0.7068  0.3177  1.7200
 4423TIP3    H234761   2.280   2.942   5.743 -1.5577 -0.2837 -1.1749
 4424TIP3   OH234762   4.118   5.146  10.445  0.4329 -0.0899 -0.3158
 4424TIP3    H134763   4.164   5.144  10.361  1.4553 -0.8240  0.2576
 4424TIP3    H234764   4.125   5.057  10.479 -0.1352  0.1601  0.4707
 4425TIP3   OH234765   4.383   1.900   3.563  1.0417 -0.0538 -0.0088
 4425TIP3    H134766   4.324   1.832   3.595 -0.5792  1.1905 -0.3168
 4425TIP3    H234767   4.369   1.974   3.623  2.1845  0.3019 -0.1682
 4426TIP3   OH234768   1.884   1.889   0.520  0.0961 -0.2725 -0.5712
 4426TIP3    H134769   1.789   1.896   0.527  0.1461  0.7825 -0.8953
 4426TIP3    H234770   1.905   1.804   0.560 -0.7285  0.6075  1.8028
 4427TIP3   OH234771   6.331   5.341  15.066 -0.2025  0.2632  0.3358
 4427TIP3    H134772   6.282   5.415  15.101 -0.4406  0.7819 -1.0599
 4427TIP3    H234773   6.279   5.264  15.088  0.4110  0.4228  2.4390
 4428TIP3   OH234774   3.775   3.381  12.890  0.1907  0.0492 -0.3089
 4428TIP3    H134775   3.858   3.411  12.924 -0.0976  1.0007 -0.4438
 4428TIP3    H234776   3.720   3.366  12.967  0.4074 -0.3717 -0.2330
 4429TIP3   OH234777   4.960   4.411  12.264  0.0896  0.5450  0.5042
 4429TIP3    H134778   4.980   4.413  12.170 -2.5878  2.8055 -0.0775
 4429TIP3    H234779   4.947   4.318  12.283 -0.4137  0.1332 -1.6373
 4430TIP3   OH234780   0.070   1.395  11.228  0.1948 -0.6392  0.4035
 4430TIP3    H134781   0.038   1.418  11.140 -1.4563 -0.7327  0.9676
 4430TIP3    H234782   0.043   1.468  11.283  3.1698  0.4907  0.4648
 4431TIP3   OH234783   4.923   1.269  11.288  0.4103 -0.3176 -0.1255
 4431TIP3    H134784   5.001   1.263  11.234  0.1209 -2.4892 -0.3622
 4431TIP3    H234785   4.923   1.188  11.339 -0.1602  0.9758  1.9765
 4432TIP3   OH234786   1.473   3.557   5.952  0.3916  0.1082 -0.9614
 4432TIP3    H134787   1.476   3.634   6.008  0.5557  0.1833 -1.0744
 4432TIP3    H234788   1.412   3.580   5.882 -1.7990 -0.8939  0.5503
 4433TIP3   OH234789   1.929   5.944   0.331 -0.6421 -0.2291 -0.1297
 4433TIP3    H134790   1.935   5.927   0.425  0.2433  1.3749  0.1170
 4433TIP3    H234791   1.859   6.008   0.322 -1.1068 -0.8046 -0.6195
 4434TIP3   OH234792   3.226   5.766  13.769 -0.7892  0.5190 -0.1411
 4434TIP3    H134793   3.311   5.747  13.809 -1.4083  1.4114  1.6503
 4434TIP3    H234794   3.238   5.851  13.726 -1.3277  1.6336  1.8552
 4435TIP3   OH234795   3.868   0.264   6.005  0.1359 -0.7394  0.3482
 4435TIP3    H134796   3.793   0.270   5.947 -0.0357  0.8681  0.7228
 4435TIP3    H234797   3.846   0.320   6.080  0.6564 -2.1965  1.6252
 4436TIP3   OH234798   2.535   3.726  12.322  0.1185  0.5965 -0.9195
 4436TIP3    H134799   2.462   3.757  12.269  1.0667 -1.0594 -3.2709
 4436TIP3    H234800   2.613   3.744  12.270  1.0838 -0.9736 -0.0743
 4437TIP3   OH234801   0.920   4.573   2.007  0.6158 -0.4742  0.5645
 4437TIP3    H134802   0.849   4.601   1.949  0.0035 -2.0473  0.5344
 4437TIP3    H234803   0.879   4.560   2.092  1.3722  1.0958  1.1970
 4438TIP3   OH234804   1.772   6.628  13.285 -0.1443 -0.2247  0.3074
 4438TIP3    H134805   1.762   6.533  13.289  1.2215 -0.3644  0.6746
 4438TIP3    H234806   1.684   6.663  13.296 -0.9755 -1.5007 -1.9564
 4439TIP3   OH234807   6.459   6.379   3.273  0.2892 -0.2084 -0.1979
 4439TIP3    H134808   6.403   6.427   3.212 -0.4770  0.5844  1.1134
 4439TIP3    H234809   6.464   6.291   3.235  1.0971  0.6684 -2.2159
 4440TIP3   OH234810   1.347   6.713  11.720  0.1169 -0.2563 -0.0516
 4440TIP3    H134811   1.361   6.806  11.741  1.0153  0.0029 -1.7806
 4440TIP3    H234812   1.421   6.689  11.665 -1.1150 -1.4968 -1.2061
 4441TIP3   OH234813   4.553   2.858  13.032 -0.4422 -0.4989 -0.5227
 4441TIP3    H134814   4.614   2.805  12.982  0.4641  1.1112 -1.1546
 4441TIP3    H234815   4.603   2.937  13.054 -2.2283  0.7483 -0.8795
 4442TIP3   OH234816   1.497   3.910  13.043  0.4036 -0.1039  0.4207
 4442TIP3    H134817   1.493   3.992  13.092 -1.7301 -1.2843  2.3035
 4442TIP3    H234818   1.497   3.842  13.110 -1.5380 -1.7374 -1.1605
 4443TIP3   OH234819   2.664   4.537   1.896  0.2252 -0.5795  0.0810
 4443TIP3    H134820   2.674   4.623   1.937 -1.3903  0.5133 -1.7618
 4443TIP3    H234821   2.750   4.519   1.857  0.5239  0.2841  0.3334
 4444TIP3   OH234822   0.683   0.590  12.866 -0.0518 -0.5706 -0.1103
 4444TIP3    H134823   0.591   0.571  12.851 -0.4645  0.8102  0.5776
 4444TIP3    H234824   0.708   0.647  12.793 -0.2739  0.6423  0.7433
 4445TIP3   OH234825   5.395   2.743   4.481  0.4357  0.4839  0.1753
 4445TIP3    H134826   5.475   2.724   4.529  0.6758 -1.0998 -0.8220
 4445TIP3    H234827   5.370   2.660   4.441 -2.1439  0.7526  1.0897
 4446TIP3   OH234828   3.390   3.077  13.834 -0.0496  0.1669  0.1986
 4446TIP3    H134829   3.398   3.096  13.740  0.7408  0.8275  0.3927
 4446TIP3    H234830   3.380   3.163  13.875  0.4586 -0.0548  0.7944
 4447TIP3   OH234831   4.793   0.949   2.422  0.3679  0.5592 -0.1905
 4447TIP3    H134832   4.833   0.863   2.410  1.8846  1.6227 -3.1398
 4447TIP3    H234833   4.712   0.944   2.371 -1.4076 -0.2672  2.5827
 4448TIP3   OH234834   0.490   6.788   0.627  0.4714 -0.2300 -0.4488
 4448TIP3    H134835   0.468   6.854   0.561 -0.0401  1.9318  1.8007
 4448TIP3    H234836   0.585   6.794   0.635  0.4933 -0.2140 -0.7001
 4449TIP3   OH234837   1.612   5.326   4.058  0.6299  0.0439  0.0300
 4449TIP3    H134838   1.701   5.363   4.053  0.8080 -0.6992 -2.9038
 4449TIP3    H234839   1.590   5.332   4.151  3.9714 -0.2326  0.9271
 4450TIP3   OH234840   2.609   0.289   3.714 -0.3834  0.2905  0.0127
 4450TIP3    H134841   2.602   0.256   3.625  2.1673  0.5462 -0.3182
 4450TIP3    H234842   2.667   0.228   3.758 -2.4452 -0.4228  1.8371
 4451TIP3   OH234843   1.667   6.277  16.658  0.1540  0.4881  0.4287
 4451TIP3    H134844   1.655   6.348  16.594 -1.5489 -0.1685 -0.0339
 4451TIP3    H234845   1.666   6.321  16.743 -0.1207  1.1106  0.1093
 4452TIP3   OH234846   5.762   3.576   4.872  0.5160  0.1768 -0.2021
 4452TIP3    H134847   5.791   3.546   4.786 -0.7564 -2.8429  0.3499
 4452TIP3    H234848   5.837   3.561   4.930  0.6830  0.2833 -0.3940
 4453TIP3   OH234849   6.226   5.887  12.265 -0.1365  0.2214 -0.0915
 4453TIP3    H134850   6.190   5.938  12.192  0.0731 -0.2451 -0.5238
 4453TIP3    H234851   6.153   5.875  12.325  0.1230  2.1481  0.6431
 4454TIP3   OH234852   3.403   6.506  15.543  0.1220 -0.1099  0.2560
 4454TIP3    H134853   3.415   6.478  15.633 -0.6609 -1.5870 -0.0767
 4454TIP3    H234854   3.446   6.438  15.491  0.4707  0.6716 -0.4888
 4455TIP3   OH234855   4.104   6.608  11.779  0.0737  0.3964  0.2526
 4455TIP3    H134856   4.198   6.626  11.768  0.1203  1.1250  1.6984
 4455TIP3    H234857   4.069   6.687  11.820 -0.5360 -1.0954  2.7314
 4456TIP3   OH234858   0.504   1.630  17.254  0.4011 -0.0582  0.5608
 4456TIP3    H134859   0.570   1.648  17.320  0.6770 -0.0625  0.2848
 4456TIP3    H234860   0.462   1.715  17.238  0.2795 -0.0736  0.8009
 4457TIP3   OH234861   3.279   4.909   4.366  0.2967  0.4996  0.3664
 4457TIP3    H134862   3.323   4.917   4.281  0.8037 -0.3463  0.5452
 4457TIP3    H234863   3.351   4.902   4.429 -0.0899  0.2388  0.7753
 4458TIP3   OH234864   3.545   3.835   3.485  0.0189  0.4617  0.5748
 4458TIP3    H134865   3.559   3.899   3.415 -0.9149 -0.4049 -0.4223
 4458TIP3    H234866   3.469   3.868   3.533  0.2596  0.7111  0.7884
 4459TIP3   OH234867   1.078   3.033  16.560 -0.2579 -0.1420 -0.3654
 4459TIP3    H134868   1.059   2.945  16.527 -0.7949  0.4364 -1.6399
 4459TIP3    H234869   1.151   3.021  16.621 -1.5042 -1.7100  0.8432
 4460TIP3   OH234870   3.941   6.640  12.670  0.1925  0.0296 -0.1059
 4460TIP3    H134871   3.922   6.547  12.658 -1.0857  0.0219  1.8706
 4460TIP3    H234872   3.969   6.647  12.761 -2.3131  1.9687  0.5526
 4461TIP3   OH234873   1.774   4.297  11.098 -0.6002 -0.3754 -0.3997
 4461TIP3    H134874   1.722   4.364  11.054  0.5195 -1.1947 -3.0249
 4461TIP3    H234875   1.852   4.343  11.129  0.4530 -0.5540 -2.7255
 4462TIP3   OH234876   2.062   5.438  12.932  0.3214 -0.7498  0.4112
 4462TIP3    H134877   2.068   5.432  13.027 -1.2130  0.5770  0.6111
 4462TIP3    H234878   1.968   5.440  12.914  0.6162  0.5685 -1.0243
 4463TIP3   OH234879   4.152   2.290   3.561 -0.5838  0.0773  0.4338
 4463TIP3    H134880   4.206   2.266   3.486 -1.1042 -0.0248  0.0903
 4463TIP3    H234881   4.068   2.247   3.545 -1.3235  1.6164  0.1220
 4464TIP3   OH234882   2.531   3.744  15.310  0.0557 -0.0929 -0.1921
 4464TIP3    H134883   2.513   3.781  15.223 -0.2406 -0.4914 -0.3040
 4464TIP3    H234884   2.461   3.779  15.365 -1.4222 -2.0680 -0.7439
 4465TIP3   OH234885   4.634   0.603   5.636  0.1274  0.1868 -0.4272
 4465TIP3    H134886   4.643   0.697   5.651 -2.5764  0.9259 -3.0433
 4465TIP3    H234887   4.723   0.569   5.647  1.2621  3.1338 -0.0321
 4466TIP3   OH234888   2.690   1.707  13.521  0.7452  0.1053  0.0871
 4466TIP3    H134889   2.656   1.779  13.468  2.5712  1.6048  0.8855
 4466TIP3    H234890   2.775   1.738  13.552 -0.4208 -0.5386  4.2031
 4467TIP3   OH234891   1.971   4.990   6.008 -0.1217 -0.3780 -0.4271
 4467TIP3    H134892   2.030   4.944   5.947 -1.8896 -1.1840 -1.5760
 4467TIP3    H234893   1.893   4.934   6.012  0.2311 -0.7013  3.1659
 4468TIP3   OH234894   5.852   3.380   0.399  0.3953  0.3034  0.4273
 4468TIP3    H134895   5.917   3.385   0.469  0.7770  0.4923  0.0540
 4468TIP3    H234896   5.857   3.290   0.367 -0.0386  0.1089  0.8882
 4469TIP3   OH234897   3.599   0.553  11.741 -0.7507 -0.1665 -0.7701
 4469TIP3    H134898   3.572   0.613  11.671 -0.0901 -2.0204 -2.6747
 4469TIP3    H234899   3.522   0.499  11.758 -1.2653  1.0354  0.7608
 4470TIP3   OH234900   2.293   2.737  14.526 -0.4359  0.5021 -0.1206
 4470TIP3    H134901   2.356   2.800  14.493 -0.6010  1.4107  1.2472
 4470TIP3    H234902   2.347   2.666  14.561 -0.2227  0.3586 -0.7420
 4471TIP3   OH234903   2.785   3.026  13.331  0.2657 -0.4127  0.4881
 4471TIP3    H134904   2.800   2.948  13.277 -0.3916  0.7961 -1.5063
 4471TIP3    H234905   2.693   3.020  13.357  0.1631 -0.2087  0.1733
 4472TIP3   OH234906   4.514   3.512  13.851 -0.1666 -0.5928 -0.2619
 4472TIP3    H134907   4.484   3.427  13.820 -0.0637  0.1128 -2.3492
 4472TIP3    H234908   4.608   3.512  13.834  0.0550 -0.5355  0.9006
 4473TIP3   OH234909   5.462   0.699   0.605 -0.2577  0.8637  0.0405
 4473TIP3    H134910   5.366   0.697   0.600 -0.2300  1.6513 -1.0447
 4473TIP3    H234911   5.491   0.663   0.522  0.4101 -0.3384  0.7838
 4474TIP3   OH234912   4.280   0.788  15.977  0.2446 -0.2749 -0.1529
 4474TIP3    H134913   4.187   0.767  15.970  0.3086 -0.7897  0.3945
 4474TIP3    H234914   4.284   0.884  15.981 -0.3850 -0.2894  1.2578
 4475TIP3   OH234915   2.301   3.816  14.050 -0.1470 -0.3940 -0.1701
 4475TIP3    H134916   2.278   3.807  13.958 -0.0364 -0.9444 -0.1461
 4475TIP3    H234917   2.387   3.859  14.050 -0.5190  0.3577 -0.2980
 4476TIP3   OH234918   5.816   2.635  13.190  0.4471 -0.2480  0.2929
 4476TIP3    H134919   5.732   2.613  13.228  0.3263 -1.3331 -0.5641
 4476TIP3    H234920   5.873   2.654  13.265 -0.0990 -1.1739  0.9470
 4477TIP3   OH234921   4.572   3.712  17.181  0.1795 -0.3977 -0.4529
 4477TIP3    H134922   4.533   3.736  17.097 -1.0208 -1.6864 -0.2813
 4477TIP3    H234923   4.528   3.768  17.245 -2.8027 -3.1152 -0.0166
 4478TIP3   OH234924   2.825   5.403  16.643  0.0805  0.0867  0.6318
 4478TIP3    H134925   2.832   5.340  16.572 -0.5239 -0.3916  0.9948
 4478TIP3    H234926   2.850   5.355  16.721  1.0114  0.6862  0.7103
 4479TIP3   OH234927   3.073   1.847  12.557  0.4488 -0.2345 -0.5735
 4479TIP3    H134928   3.164   1.821  12.548  0.4738 -0.1397 -0.6004
 4479TIP3    H234929   3.075   1.943  12.550  0.3203 -0.2491 -0.8237
 4480TIP3   OH234930   2.921   0.384   3.723  0.3257 -0.0390 -0.5157
 4480TIP3    H134931   2.874   0.301   3.726 -0.1729  0.1520 -2.1934
 4480TIP3    H234932   2.858   0.449   3.753  0.5130 -0.1708  0.1796
 4481TIP3   OH234933   0.869   0.689   4.739  0.2654  0.0877 -0.8035
 4481TIP3    H134934   0.869   0.778   4.775  2.4838 -0.2173  0.0902
 4481TIP3    H234935   0.855   0.633   4.815  1.1436 -0.4000 -0.9891
 4482TIP3   OH234936   6.096   4.727  13.574 -0.0292 -0.4939 -0.4748
 4482TIP3    H134937   6.077   4.809  13.619  1.2512  0.0317 -0.8760
 4482TIP3    H234938   6.016   4.675  13.584 -0.6804  0.6170  0.1775
 4483TIP3   OH234939   5.464   3.837   3.338 -0.9812 -0.2775 -0.0032
 4483TIP3    H134940   5.450   3.857   3.245 -1.2033  1.6583  0.4332
 4483TIP3    H234941   5.507   3.915   3.373 -0.4887 -1.1804  1.4274
 4484TIP3   OH234942   1.544   2.635   3.643  0.4400  0.1084  0.3370
 4484TIP3    H134943   1.489   2.660   3.717 -0.0528 -1.8002  0.6520
 4484TIP3    H234944   1.624   2.686   3.654 -1.1599  2.7983 -0.0355
 4485TIP3   OH234945   6.806   5.327  11.381 -0.3395 -0.6346  0.9234
 4485TIP3    H134946   6.875   5.308  11.318 -0.1605 -1.0393  1.2398
 4485TIP3    H234947   6.790   5.421  11.371 -1.0979 -0.9015 -0.5254
 4486TIP3   OH234948   3.163   5.038  15.491 -0.7052 -0.0493  1.0767
 4486TIP3    H134949   3.149   4.944  15.482  1.0716 -0.1842 -0.9514
 4486TIP3    H234950   3.257   5.047  15.507  0.1768  1.5258 -3.8621
 4487TIP3   OH234951   0.949   3.106  11.205 -0.4311  0.1064 -0.0876
 4487TIP3    H134952   1.001   3.037  11.247 -0.5795  0.2561  0.3485
 4487TIP3    H234953   0.955   3.087  11.111  0.0175 -0.1534 -0.0068
 4488TIP3   OH234954   4.174   2.428   1.966 -0.3564 -0.4064 -0.1435
 4488TIP3    H134955   4.153   2.466   2.051 -0.3681  0.4865 -0.5459
 4488TIP3    H234956   4.095   2.380   1.941 -1.1029  1.0482 -0.5997
 4489TIP3   OH234957   3.890   2.029   5.410  0.7240  0.0008  0.4476
 4489TIP3    H134958   3.830   2.022   5.336 -0.5482  0.5029  1.4072
 4489TIP3    H234959   3.840   2.077   5.476  2.2085  0.4698  1.2472
 4490TIP3   OH234960   4.210   1.784  11.370  0.6033 -0.4463  0.4243
 4490TIP3    H134961   4.160   1.744  11.299 -1.1077 -0.7051  1.7260
 4490TIP3    H234962   4.209   1.719  11.440  0.7650  0.4735  1.3073
 4491TIP3   OH234963   5.310   0.026  15.133  0.0207  0.4883  0.2348
 4491TIP3    H134964   5.355   0.106  15.105  0.8231  0.0119  0.1216
 4491TIP3    H234965   5.317   0.027  15.229 -0.4227  0.8127  0.2633
 4492TIP3   OH234966   3.528   0.115  13.024 -0.3799 -0.0411  0.3503
 4492TIP3    H134967   3.560   0.172  12.955 -1.5369  2.4690  1.8195
 4492TIP3    H234968   3.511   0.031  12.980  2.7307  0.2315 -1.5477
 4493TIP3   OH234969   4.738   2.294  13.927  0.0246  0.0295  0.3572
 4493TIP3    H134970   4.781   2.377  13.947 -2.3055  1.7051 -1.3201
 4493TIP3    H234971   4.665   2.290  13.989  0.1067 -0.7588  0.4028
 4494TIP3   OH234972   6.352   3.029  12.832 -0.5933  0.0942 -0.4507
 4494TIP3    H134973   6.368   3.042  12.926  0.5844 -1.7472 -0.3613
 4494TIP3    H234974   6.346   3.117  12.796  1.7556  0.8377  0.8929
 4495TIP3   OH234975   4.672   2.068  15.063 -0.8287 -0.2327 -0.1906
 4495TIP3    H134976   4.624   1.994  15.027 -0.2553 -0.8163  0.2288
 4495TIP3    H234977   4.668   2.134  14.994 -0.7543 -0.9054 -0.8511
 4496TIP3   OH234978   5.257   1.070   4.060 -0.7376  0.6236  0.0196
 4496TIP3    H134979   5.284   1.039   4.147 -2.9208  1.0295  0.8719
 4496TIP3    H234980   5.333   1.052   4.004  0.3875 -0.4347  1.8175
 4497TIP3   OH234981   0.150   0.200  13.182 -0.4028 -0.4841  0.0503
 4497TIP3    H134982   0.196   0.274  13.141 -0.3435  0.5767  1.9610
 4497TIP3    H234983   0.199   0.123  13.154  0.3782  0.3231 -0.8402
 4498TIP3   OH234984   2.203   5.860   2.492  0.3939  0.0183 -0.0591
 4498TIP3    H134985   2.231   5.800   2.562 -1.7262 -0.3119  0.5436
 4498TIP3    H234986   2.159   5.803   2.428 -1.0095  0.8085  0.1796
 4499TIP3   OH234987   3.302   2.472  12.222 -0.0977  0.0949 -0.1519
 4499TIP3    H134988   3.208   2.459  12.226 -0.2895  1.5633  0.4626
 4499TIP3    H234989   3.327   2.447  12.133 -1.0236 -0.5705 -0.2224
 4500TIP3   OH234990   4.671   2.405  16.568 -0.1288  0.2767  0.1223
 4500TIP3    H134991   4.761   2.382  16.590 -0.6329 -1.7624  0.1291
 4500TIP3    H234992   4.677   2.494  16.533  2.1238 -0.4392 -1.4598
 4501TIP3   OH234993   1.733   1.067  14.827  0.0396  0.1296  0.0781
 4501TIP3    H134994   1.816   1.032  14.859  0.6423  1.8960  0.4948
 4501TIP3    H234995   1.758   1.143  14.773 -1.2519  0.2255 -0.4093
 4502TIP3   OH234996   1.814   2.439  13.610 -0.4011 -0.1433 -0.1064
 4502TIP3    H134997   1.815   2.426  13.704 -0.2283 -0.4653 -0.1537
 4502TIP3    H234998   1.723   2.460  13.589 -0.4378 -0.0660  0.1315
 4503TIP3   OH234999   2.354   0.449   3.177  0.4912  0.4551 -0.0465
 4503TIP3    H135000   2.288   0.449   3.107  2.1704  1.2225 -1.6723
 4503TIP3    H235001   2.349   0.537   3.215  0.5311  0.4936 -0.1300
 4504TIP3   OH235002   5.448   3.872   0.731  0.4892 -0.9027 -0.1950
 4504TIP3    H135003   5.394   3.799   0.761 -1.0622 -0.2899 -1.4229
 4504TIP3    H235004   5.442   3.937   0.802  0.2590 -1.1727  0.0343
 4505TIP3   OH235005   4.470   2.972  12.124 -0.0084  0.1903  0.1879
 4505TIP3    H135006   4.425   2.951  12.206  2.0471 -0.6721  1.1468
 4505TIP3    H235007   4.450   2.899  12.066  0.0654 -0.1349  0.5713
 4506TIP3   OH235008   3.455   3.071  13.567 -0.5836 -0.5371 -0.4857
 4506TIP3    H135009   3.536   3.115  13.541  0.0673 -1.1839  0.4641
 4506TIP3    H235010   3.476   2.978  13.566 -0.8686 -0.6366  1.2761
 4507TIP3   OH235011   1.108   0.592   3.533 -0.0964 -0.3218  0.1279
 4507TIP3    H135012   1.136   0.628   3.449  0.3202  2.1145  1.2761
 4507TIP3    H235013   1.156   0.510   3.541  1.0495  0.1800 -1.3024
 4508TIP3   OH235014   6.311   2.820   2.941  0.2192  0.3028 -0.2281
 4508TIP3    H135015   6.374   2.749   2.952  1.6391  0.9540 -3.3932
 4508TIP3    H235016   6.225   2.779   2.951  1.0828 -1.3893  0.2862
 4509TIP3   OH235017   4.786   4.388  14.103  0.1056  0.1496  0.0996
 4509TIP3    H135018   4.737   4.306  14.111  0.3543  0.1110  1.3008
 4509TIP3    H235019   4.720   4.453  14.081 -0.3616 -0.0476  0.9071
 4510TIP3   OH235020   2.732   2.217  15.207 -0.0630 -0.1249  0.0058
 4510TIP3    H135021   2.717   2.311  15.208 -0.1057 -0.1370  1.9698
 4510TIP3    H235022   2.739   2.195  15.114 -1.3277  1.6006 -0.5263
 4511TIP3   OH235023   0.954   4.422   6.329 -0.0606  0.6787  0.1901
 4511TIP3    H135024   0.970   4.344   6.275 -1.3293  0.6232 -0.1160
 4511TIP3    H235025   1.018   4.415   6.400  0.5067 -0.1192 -0.3852
 4512TIP3   OH235026   1.047   3.349   0.389 -0.0050  0.5161  0.3681
 4512TIP3    H135027   1.007   3.270   0.426  1.5842  0.4290  1.9615
 4512TIP3    H235028   0.991   3.372   0.315 -1.3780 -1.2058  0.8455
 4513TIP3   OH235029   2.526   6.652  11.545  0.3076  0.7119 -0.1259
 4513TIP3    H135030   2.573   6.707  11.482  0.9449 -0.8483 -1.0432
 4513TIP3    H235031   2.437   6.687  11.545  0.5096  1.2584 -1.2732
 4514TIP3   OH235032   5.337   2.111   3.806  0.9185  0.2426 -0.1763
 4514TIP3    H135033   5.250   2.127   3.841  1.6462  1.5934  1.1042
 4514TIP3    H235034   5.325   2.106   3.711 -0.2526  2.5418 -0.1914
 4515TIP3   OH235035   2.081   1.640  17.266 -0.2653  0.3748 -0.1137
 4515TIP3    H135036   2.034   1.557  17.268  0.8573 -0.2953 -0.6932
 4515TIP3    H235037   2.083   1.664  17.173  0.1253  0.6279 -0.0419
 4516TIP3   OH235038   4.793   6.019   5.564 -0.1572 -0.0245 -0.1476
 4516TIP3    H135039   4.717   5.963   5.548 -0.5810 -0.0366  1.8265
 4516TIP3    H235040   4.816   6.003   5.655  1.1217  1.3311 -0.2118
 4517TIP3   OH235041   2.043   6.105   5.566 -0.7276 -0.1894 -0.2378
 4517TIP3    H135042   1.979   6.131   5.632 -0.2585 -2.4675  1.1679
 4517TIP3    H235043   1.994   6.105   5.484 -1.4842  2.0241  0.1798
 4518TIP3   OH235044   0.206   3.590  12.056  0.0086  0.0850 -0.1262
 4518TIP3    H135045   0.238   3.581  12.145  1.4894  0.2544 -0.6250
 4518TIP3    H235046   0.249   3.519  12.008 -1.3069 -0.4304 -0.5727
 4519TIP3   OH235047   0.055   0.464  12.871  0.1280  0.0845 -0.1604
 4519TIP3    H135048   0.113   0.470  12.946 -1.6057  0.7382  1.1514
 4519TIP3    H235049   0.094   0.523  12.806  0.1984  1.6067  1.2269
 4520TIP3   OH235050   1.612   4.813   1.357  0.4474 -0.0254 -0.1960
 4520TIP3    H135051   1.600   4.749   1.427  1.7485  1.7920  1.7337
 4520TIP3    H235052   1.707   4.825   1.351  0.4567 -0.9488 -3.0561
 4521TIP3   OH235053   2.875   6.250   6.246  0.1324 -0.0355 -0.6962
 4521TIP3    H135054   2.826   6.257   6.328  1.3436 -0.1805  0.0462
 4521TIP3    H235055   2.856   6.161   6.215  0.3808 -0.2956 -0.1161
 4522TIP3   OH235056   1.367   4.562  16.703 -0.4612  0.6294 -0.0126
 4522TIP3    H135057   1.398   4.474  16.723  0.6759  1.1859  0.7437
 4522TIP3    H235058   1.272   4.553  16.698 -0.3706 -0.5989  0.2352
 4523TIP3   OH235059   4.612   0.826  14.955 -0.1701 -0.6423  0.1854
 4523TIP3    H135060   4.591   0.796  14.867  0.5590 -1.7054  0.3714
 4523TIP3    H235061   4.663   0.906  14.941  2.5316 -2.4082 -0.4648
 4524TIP3   OH235062   4.084   3.548  15.844 -0.5475  0.1180  0.2951
 4524TIP3    H135063   4.074   3.464  15.889 -2.9681 -0.1102 -0.5967
 4524TIP3    H235064   4.105   3.610  15.914  2.2507 -1.3658  0.8320
 4525TIP3   OH235065   6.725   5.028   2.111  0.1978  0.3619 -0.0917
 4525TIP3    H135066   6.767   5.072   2.185  1.6351 -0.2633 -0.5232
 4525TIP3    H235067   6.731   4.935   2.132  0.1879  0.2074 -0.7686
 4526TIP3   OH235068   4.853   5.182  14.494 -0.0545 -0.2125  0.8045
 4526TIP3    H135069   4.932   5.209  14.448 -1.2375  0.8822 -0.6619
 4526TIP3    H235070   4.874   5.190  14.587  1.0097  1.6556  0.4157
 4527TIP3   OH235071   2.172   0.211  13.218  0.1395 -0.0737  0.3216
 4527TIP3    H135072   2.118   0.171  13.285  0.7230  0.1616  0.9355
 4527TIP3    H235073   2.109   0.248  13.156 -0.3987 -0.0079  0.9008
 4528TIP3   OH235074   3.607   5.325   4.542 -0.2191 -0.4222 -0.2641
 4528TIP3    H135075   3.629   5.342   4.633  0.0795  0.5598 -0.5219
 4528TIP3    H235076   3.518   5.291   4.545  0.6744 -2.8144  0.6263
 4529TIP3   OH235077   0.126   0.234  11.586  0.5648  0.4319  0.0244
 4529TIP3    H135078   0.141   0.221  11.493  0.5618  1.8013 -0.1849
 4529TIP3    H235079   0.059   0.303  11.590  1.0076  0.8192  1.0348
 4530TIP3   OH235080   3.606   3.874  16.131 -0.0049  0.0628  0.1360
 4530TIP3    H135081   3.552   3.832  16.064  0.3592 -0.8191  0.3848
 4530TIP3    H235082   3.616   3.964  16.101 -1.0184  0.0468 -0.2732
 4531TIP3   OH235083   0.273   1.797   6.297  0.4257  1.0605 -0.0917
 4531TIP3    H135084   0.330   1.870   6.274  0.1324  0.9008 -1.4261
 4531TIP3    H235085   0.187   1.822   6.262 -0.3850  1.3961  2.0658
 4532TIP3   OH235086   1.048   6.081   6.532  0.5063  0.5656 -0.8068
 4532TIP3    H135087   1.114   6.082   6.463  1.3787 -0.9662 -0.0298
 4532TIP3    H235088   1.095   6.048   6.609 -0.7940  0.8936  0.1400
 4533TIP3   OH235089   4.121   6.396  11.399 -0.5101  0.5463  0.3896
 4533TIP3    H135090   4.033   6.359  11.398 -0.2015 -0.1917  0.2559
 4533TIP3    H235091   4.152   6.382  11.489  0.4716 -1.6114 -0.2449
 4534TIP3   OH235092   5.822   5.627   6.055  0.1141  0.5584 -0.3004
 4534TIP3    H135093   5.896   5.568   6.065  0.0578  0.4690 -0.4068
 4534TIP3    H235094   5.764   5.582   5.994 -0.4804  0.1809  0.5256
 4535TIP3   OH235095   3.717   5.847  11.872 -0.2481 -0.0364  0.4948
 4535TIP3    H135096   3.638   5.880  11.830 -0.7986 -0.0233  1.5370
 4535TIP3    H235097   3.787   5.903  11.839 -0.6314 -0.2013 -0.6161
 4536TIP3   OH235098   2.166   1.853  15.841 -0.2363  0.6998 -0.0981
 4536TIP3    H135099   2.208   1.904  15.910 -1.5415  0.7998  0.6391
 4536TIP3    H235100   2.113   1.918  15.793  1.7929  0.9282 -2.1387
 4537TIP3   OH235101   5.472   3.892  12.506  0.0382  0.1460  0.0277
 4537TIP3    H135102   5.548   3.865  12.455  2.1438  0.2046  2.9757
 4537TIP3    H235103   5.438   3.811  12.544  0.0562  0.3741  0.5464
 4538TIP3   OH235104   1.180   6.414   2.261 -0.3942  0.0687  0.1954
 4538TIP3    H135105   1.191   6.391   2.353 -1.5876 -0.2716  0.2536
 4538TIP3    H235106   1.180   6.330   2.215 -1.7855  0.1137  0.0988
 4539TIP3   OH235107   6.111   4.313   3.643  0.0521  0.2331 -0.2310
 4539TIP3    H135108   6.039   4.289   3.701 -0.4222  0.9142 -0.5278
 4539TIP3    H235109   6.128   4.235   3.590 -1.1068  0.3836 -0.8250
 4540TIP3   OH235110   1.652   2.727   2.536  0.3599 -0.1672 -0.0979
 4540TIP3    H135111   1.641   2.714   2.630 -1.7134 -0.1027 -0.3209
 4540TIP3    H235112   1.657   2.822   2.525  0.6805 -0.1773 -0.0565
 4541TIP3   OH235113   0.791   4.032  12.620  0.5121 -0.0490  0.2840
 4541TIP3    H135114   0.720   3.973  12.597 -0.5873  0.7899  1.4315
 4541TIP3    H235115   0.787   4.102  12.555  0.9900 -0.5669 -0.3057
 4542TIP3   OH235116   6.165   6.171  11.789 -0.0336 -0.0504  0.0042
 4542TIP3    H135117   6.126   6.148  11.704 -0.3116  0.1914  0.0658
 4542TIP3    H235118   6.252   6.132  11.786  0.0504  0.1749 -0.4934
 4543TIP3   OH235119   6.686   1.017   5.143 -0.8955  0.2458 -0.4745
 4543TIP3    H135120   6.695   0.927   5.175 -1.5470  0.2649 -0.2339
 4543TIP3    H235121   6.592   1.027   5.125 -0.9606  1.1430  0.3183
 4544TIP3   OH235122   3.063   0.211  15.073 -0.2123 -0.3159  0.2299
 4544TIP3    H135123   3.053   0.126  15.117 -0.9364  0.2481  1.2057
 4544TIP3    H235124   3.157   0.227  15.071 -0.1530 -0.4381  1.4593
 4545TIP3   OH235125   3.135   4.523  11.322 -0.0090  0.0431  0.1328
 4545TIP3    H135126   3.079   4.451  11.292 -0.9012  0.7587  0.0645
 4545TIP3    H235127   3.203   4.480  11.373 -0.7489 -0.8293  0.4085
 4546TIP3   OH235128   1.090   6.565   1.830 -0.2719  0.0523  0.3669
 4546TIP3    H135129   1.001   6.547   1.801 -0.7561  2.9706 -0.1366
 4546TIP3    H235130   1.084   6.572   1.925 -0.7351  0.9148  0.2795
 4547TIP3   OH235131   3.756   0.421  13.830 -0.0289 -0.0493  0.0762
 4547TIP3    H135132   3.802   0.378  13.757 -1.6528  0.8216 -1.4807
 4547TIP3    H235133   3.810   0.498  13.850  0.2563 -0.1151 -0.4300
 4548TIP3   OH235134   2.111   2.662  16.618 -0.9615  0.3516  0.2817
 4548TIP3    H135135   2.052   2.633  16.687 -1.8308  0.5707 -0.3415
 4548TIP3    H235136   2.134   2.583  16.570 -0.4875  0.2212  0.7332
 4549TIP3   OH235137   0.637   5.124   2.968  0.7257  0.1599 -0.4732
 4549TIP3    H135138   0.704   5.157   3.029 -0.4333 -0.6185  1.2392
 4549TIP3    H235139   0.651   5.030   2.965 -1.0861 -0.1738  0.8851
 4550TIP3   OH235140   0.846   1.638  13.946 -0.3867 -0.0675 -0.0259
 4550TIP3    H135141   0.882   1.720  13.979 -0.8163  0.1815 -0.1735
 4550TIP3    H235142   0.908   1.609  13.879  1.1176 -1.1811  1.7939
 4551TIP3   OH235143   2.249   0.704  12.854  0.1790  0.4194 -0.0246
 4551TIP3    H135144   2.253   0.628  12.912  1.1565  0.4274 -0.0754
 4551TIP3    H235145   2.257   0.780  12.912  2.3297  0.3961 -0.2784
 4552TIP3   OH235146   1.147   2.539   3.564  0.0141 -0.3203  0.4006
 4552TIP3    H135147   1.188   2.502   3.643  0.0536 -2.3347 -0.5354
 4552TIP3    H235148   1.057   2.508   3.567 -0.6842  1.6859  0.9270
 4553TIP3   OH235149   6.569   4.764   3.595 -0.4819  0.1225  0.6093
 4553TIP3    H135150   6.476   4.782   3.580 -0.3507  0.3361  0.0282
 4553TIP3    H235151   6.571   4.704   3.669 -1.1401 -0.6195  0.0368
 4554TIP3   OH235152   4.025   4.299  10.103  0.2891 -0.3825  0.7021
 4554TIP3    H135153   4.085   4.231  10.072  0.0848 -0.5273  0.6268
 4554TIP3    H235154   4.028   4.293  10.199 -0.6958 -1.3427  0.6791
 4555TIP3   OH235155   0.982   1.508  16.774  0.2739 -0.9025 -0.2133
 4555TIP3    H135156   0.907   1.564  16.752 -0.6843 -1.6293  1.1655
 4555TIP3    H235157   0.969   1.485  16.865  2.0581 -1.2590 -0.0333
 4556TIP3   OH235158   0.031   6.089   4.794 -0.4339  0.2258 -0.4936
 4556TIP3    H135159   0.100   6.117   4.734 -0.0391  1.5569  0.5553
 4556TIP3    H235160   0.063   6.007   4.831 -0.2076 -0.0639 -1.3301
 4557TIP3   OH235161   5.559   3.508  16.834 -0.2146  0.1937  0.3278
 4557TIP3    H135162   5.636   3.493  16.888  0.5326  0.8544 -0.5450
 4557TIP3    H235163   5.506   3.429  16.846  1.7621 -1.3938 -1.0284
 4558TIP3   OH235164   5.911   2.397   2.740 -0.2434 -0.1874 -0.2815
 4558TIP3    H135165   5.851   2.410   2.814  0.0824  2.4453 -0.4357
 4558TIP3    H235166   5.874   2.451   2.670  1.1756 -0.1785 -1.0355
 4559TIP3   OH235167   2.913   5.659   3.524  0.3420  0.1912  0.0076
 4559TIP3    H135168   2.906   5.739   3.472 -0.3375  1.1618  1.5540
 4559TIP3    H235169   2.995   5.618   3.495 -0.7075 -0.0119 -2.7785
 4560TIP3   OH235170   1.552   2.464  13.642 -0.0723  0.3865 -0.0565
 4560TIP3    H135171   1.492   2.402  13.682  0.6224 -0.1893  0.0954
 4560TIP3    H235172   1.512   2.550  13.657  0.1358  0.1677  1.7680
 4561TIP3   OH235173   4.413   0.066   1.174  0.2465  0.1981  0.0560
 4561TIP3    H135174   4.359   0.115   1.236 -1.0616 -1.6669  0.4154
 4561TIP3    H235175   4.460   0.134   1.125 -0.8725  1.7827  1.1261
 4562TIP3   OH235176   3.309   3.624  16.699  0.3031 -0.0102 -0.5853
 4562TIP3    H135177   3.286   3.532  16.713  0.7264  0.0366  0.4066
 4562TIP3    H235178   3.239   3.673  16.741  0.1887  0.1265 -0.9304
 4563TIP3   OH235179   4.949   0.037   6.263 -0.7697  0.2989 -0.4643
 4563TIP3    H135180   4.897  -0.018   6.322  0.5094  0.5987  0.9520
 4563TIP3    H235181   4.911   0.124   6.272  1.0758  0.8949  1.9315
 4564TIP3   OH235182   6.236   4.082   0.244  0.7339 -0.5035  0.8003
 4564TIP3    H135183   6.326   4.054   0.259  0.9052 -0.1326  0.5011
 4564TIP3    H235184   6.221   4.150   0.311  0.0639 -1.8315  2.0154
 4565TIP3   OH235185   1.513   3.666  14.466  0.1520  0.4149 -0.6271
 4565TIP3    H135186   1.558   3.732  14.519 -0.5867 -0.0765  0.6458
 4565TIP3    H235187   1.582   3.606  14.439  0.7406  1.3955 -1.3295
 4566TIP3   OH235188   4.000   2.315   3.189 -0.1528  0.5359 -0.3480
 4566TIP3    H135189   4.077   2.370   3.175 -1.3708  2.1334 -0.9134
 4566TIP3    H235190   3.997   2.259   3.112  1.0599 -0.3063  0.2008
 4567TIP3   OH235191   1.011   2.312   4.162  0.6912 -1.2055  0.0986
 4567TIP3    H135192   1.069   2.285   4.092  1.9520  0.6242  0.4204
 4567TIP3    H235193   1.051   2.278   4.242  0.9970 -0.4918  0.2552
 4568TIP3   OH235194   4.475   5.246  11.173 -0.2704  0.3075  0.1858
 4568TIP3    H135195   4.513   5.305  11.238 -0.0908 -0.6323  0.9447
 4568TIP3    H235196   4.493   5.158  11.206  0.5734 -0.2029 -1.5733
 4569TIP3   OH235197   5.553   1.258   1.193 -0.2897  0.3383  0.2078
 4569TIP3    H135198   5.533   1.289   1.104 -1.1725  0.1504  0.3371
 4569TIP3    H235199   5.582   1.337   1.239 -0.5611  0.5890 -0.0374
 4570TIP3   OH235200   4.943   3.064   5.956  0.3047 -0.2567 -0.1605
 4570TIP3    H135201   4.986   3.095   6.035 -1.1158  0.5475  0.3251
 4570TIP3    H235202   4.927   2.971   5.971 -1.0298  0.1484  1.0156
 4571TIP3   OH235203   6.460   4.615  12.146  0.2265 -0.4122  0.2741
 4571TIP3    H135204   6.504   4.678  12.203 -1.6512 -0.8514  2.2672
 4571TIP3    H235205   6.464   4.655  12.059  2.6843  0.5036  0.7450
 4572TIP3   OH235206   3.516   1.962   2.430 -0.6438  0.3876 -0.2993
 4572TIP3    H135207   3.463   2.017   2.487  1.3824  1.6255  0.4669
 4572TIP3    H235208   3.588   1.932   2.486 -1.5378 -2.8569 -0.7717
 4573TIP3   OH235209   3.788   3.865  11.388 -0.0725 -0.1098 -0.0874
 4573TIP3    H135210   3.785   3.775  11.418  1.0531 -0.0536  0.2197
 4573TIP3    H235211   3.881   3.888  11.388 -0.2576  0.7257 -1.1311
 4574TIP3   OH235212   0.914   1.400  11.763 -0.3757  0.3609 -0.5061
 4574TIP3    H135213   0.903   1.408  11.668 -1.2781  0.1842 -0.4200
 4574TIP3    H235214   0.878   1.314  11.785  0.7082  0.0015 -0.1363
 4575TIP3   OH235215   3.331   4.201  17.036  0.0079  0.0663  0.1298
 4575TIP3    H135216   3.306   4.288  17.003 -0.8446 -0.1074  0.3122
 4575TIP3    H235217   3.412   4.217  17.085 -1.0650  1.0602  1.6142
 4576TIP3   OH235218   5.648   2.429  14.480  0.0077  0.3584  0.4169
 4576TIP3    H135219   5.618   2.433  14.389  0.9621 -0.3883  0.0540
 4576TIP3    H235220   5.573   2.455  14.532 -1.5892 -2.4313 -0.3855
 4577TIP3   OH235221   4.564   3.853   3.390 -0.0164 -0.3292  0.3873
 4577TIP3    H135222   4.567   3.948   3.396 -1.6938 -0.3488  2.2410
 4577TIP3    H235223   4.544   3.824   3.479 -1.1508 -2.3368 -0.4853
 4578TIP3   OH235224   6.443   3.388  17.160 -0.0899 -0.6084 -0.2280
 4578TIP3    H135225   6.439   3.368  17.253 -0.2147 -0.2295 -0.1529
 4578TIP3    H235226   6.491   3.314  17.122  0.6836 -0.3608  0.2509
 4579TIP3   OH235227   1.860   1.665  12.336 -0.0781 -0.2098  0.1017
 4579TIP3    H135228   1.943   1.712  12.335 -0.7791  1.0533  0.5993
 4579TIP3    H235229   1.810   1.706  12.407 -2.2433  0.9997 -2.0475
 4580TIP3   OH235230   6.596   1.510   1.856  0.5755  0.6792 -0.0914
 4580TIP3    H135231   6.508   1.512   1.819  1.7725  1.5928 -3.0455
 4580TIP3    H235232   6.597   1.580   1.921 -0.4651  1.5325 -0.9926
 4581TIP3   OH235233   5.794   1.155   1.051 -0.1939 -0.0370 -0.1441
 4581TIP3    H135234   5.743   1.142   0.971 -0.1668  1.4336 -0.4261
 4581TIP3    H235235   5.728   1.162   1.120 -0.2846 -0.0487 -0.2292
 4582TIP3   OH235236   2.079   0.544  12.254 -0.2297  0.3093 -0.0500
 4582TIP3    H135237   1.990   0.536  12.218 -0.7843  1.6028  0.9785
 4582TIP3    H235238   2.104   0.454  12.276 -1.5561 -0.0048  0.2581
 4583TIP3   OH235239   0.267   0.293   2.306 -0.0852  0.1503 -0.2761
 4583TIP3    H135240   0.228   0.226   2.362  1.3968  0.2173  0.8706
 4583TIP3    H235241   0.242   0.376   2.346  1.9526  0.1830  1.0172
 4584TIP3   OH235242   2.495   2.903  12.880  0.2161  0.0840  0.2919
 4584TIP3    H135243   2.443   2.940  12.951 -1.9494  1.2048 -1.8437
 4584TIP3    H235244   2.471   2.810  12.879 -0.0711  0.1523  0.7443
 4585TIP3   OH235245   4.912   4.246   3.177 -0.4647 -0.3294 -0.2108
 4585TIP3    H135246   4.928   4.274   3.087  1.1194 -2.2265 -0.5743
 4585TIP3    H235247   4.999   4.235   3.214 -1.0979  2.4041  2.2471
 4586TIP3   OH235248   0.645   2.148   0.478 -0.3803  0.3431  0.2393
 4586TIP3    H135249   0.651   2.053   0.467 -0.7019  0.5113 -1.4363
 4586TIP3    H235250   0.725   2.171   0.525  0.3628 -0.5874 -0.5464
 4587TIP3   OH235251   6.589   2.479   1.211 -0.3539  0.3027  0.2431
 4587TIP3    H135252   6.497   2.455   1.213 -0.2866  0.0041 -0.2203
 4587TIP3    H235253   6.636   2.397   1.226 -0.2064  0.9299  3.5241
 4588TIP3   OH235254   4.638   2.032   1.658 -0.0870 -0.3488 -0.0049
 4588TIP3    H135255   4.548   2.044   1.629 -0.8351 -0.7282  2.0579
 4588TIP3    H235256   4.649   2.095   1.729  1.7955  0.8181 -1.2631
 4589TIP3   OH235257   1.011   4.141   3.121 -0.2344 -0.1156 -0.1512
 4589TIP3    H135258   0.928   4.121   3.166 -0.7297  1.8100 -0.1373
 4589TIP3    H235259   0.984   4.166   3.033  0.6063 -2.2880 -1.0532
 4590TIP3   OH235260   3.830   5.426  14.310 -0.3364 -0.8791  0.1008
 4590TIP3    H135261   3.901   5.388  14.257 -0.6875 -1.0697 -0.2422
 4590TIP3    H235262   3.779   5.350  14.339 -0.5773 -0.7263  0.0836
 4591TIP3   OH235263   5.345   0.282   2.693 -0.0153  0.2477 -0.6645
 4591TIP3    H135264   5.389   0.367   2.694  0.1591  0.1631 -1.3865
 4591TIP3    H235265   5.415   0.220   2.673 -0.6391  0.2115 -2.7820
 4592TIP3   OH235266   3.859   1.854   4.434 -0.5095  0.0057 -0.2465
 4592TIP3    H135267   3.777   1.897   4.458  0.1267  0.0364  1.9992
 4592TIP3    H235268   3.832   1.776   4.385 -1.6890  2.4186 -3.6124
 4593TIP3   OH235269   1.823   2.583   2.067 -0.2949  0.0645 -0.4297
 4593TIP3    H135270   1.728   2.577   2.063 -0.3946  1.1385  0.2720
 4593TIP3    H235271   1.841   2.637   2.144  0.9423 -2.2889  1.0341
 4594TIP3   OH235272   5.602   5.871  12.650  0.1602 -0.2538 -0.3897
 4594TIP3    H135273   5.540   5.829  12.709  0.1369 -0.4980 -0.5835
 4594TIP3    H235274   5.569   5.960  12.640  0.1904 -0.2025 -0.0007
 4595TIP3   OH235275   3.451   5.270  12.400  0.1689 -0.2438 -0.2961
 4595TIP3    H135276   3.370   5.322  12.394 -1.1416 -2.1611  0.1716
 4595TIP3    H235277   3.495   5.285  12.317 -0.7107  0.7761 -0.5898
 4596TIP3   OH235278   0.951   4.858   6.648  0.2803  0.4149  0.2182
 4596TIP3    H135279   0.917   4.944   6.675 -0.8201 -0.2181  0.8819
 4596TIP3    H235280   0.882   4.823   6.591  1.2898  0.4979 -1.0652
 4597TIP3   OH235281   4.045   5.476  12.423 -0.2536 -0.4095  0.1002
 4597TIP3    H135282   4.091   5.539  12.478  2.1507 -1.4989 -0.5639
 4597TIP3    H235283   4.019   5.525  12.345 -0.6281  0.3271  0.6854
 4598TIP3   OH235284   4.903   3.920  14.212 -0.1424 -0.6561  0.0846
 4598TIP3    H135285   4.978   3.919  14.152 -0.0566 -1.8179  0.1985
 4598TIP3    H235286   4.832   3.882  14.161 -0.6780  0.4660 -0.0304
 4599TIP3   OH235287   1.398   2.965   4.657  0.3375 -0.5357 -0.0734
 4599TIP3    H135288   1.387   2.897   4.590  1.8766  0.9192 -1.8370
 4599TIP3    H235289   1.373   3.046   4.613 -3.5456 -0.1143  2.6197
 4600TIP3   OH235290   2.776   5.471   4.704  0.0576  0.2219  0.2092
 4600TIP3    H135291   2.731   5.390   4.727  1.4294 -0.9114 -1.0203
 4600TIP3    H235292   2.868   5.446   4.697  0.4201  1.7606 -0.8053
 4601TIP3   OH235293   5.421   2.925   5.441 -0.3857 -0.3690  0.2016
 4601TIP3    H135294   5.446   2.856   5.502 -0.3933  0.3642  1.0403
 4601TIP3    H235295   5.504   2.955   5.403 -0.2953 -0.2103  0.5230
 4602TIP3   OH235296   5.654   4.681  15.782  0.0371 -0.5312 -0.5647
 4602TIP3    H135297   5.587   4.746  15.807  2.2262  1.4291  0.4350
 4602TIP3    H235298   5.711   4.729  15.721  1.4988 -1.6120 -0.0659
 4603TIP3   OH235299   1.835   3.726   4.159 -0.1661 -0.1394 -0.1614
 4603TIP3    H135300   1.919   3.696   4.123 -0.1090 -0.7965  0.5142
 4603TIP3    H235301   1.771   3.663   4.127 -0.7710  1.5824 -2.4949
 4604TIP3   OH235302   1.835   4.196  10.854 -0.3183  0.1715  0.2134
 4604TIP3    H135303   1.891   4.124  10.825  0.3328  0.9037 -0.3747
 4604TIP3    H235304   1.885   4.240  10.922  0.0807  1.1622 -0.6992
 4605TIP3   OH235305   5.694   2.995  11.228 -0.5123 -0.3442 -0.3107
 4605TIP3    H135306   5.774   3.028  11.187 -1.3060 -0.4355 -1.9959
 4605TIP3    H235307   5.631   2.988  11.156 -1.5145 -1.9464  0.6780
 4606TIP3   OH235308   3.148   2.673   1.546  0.1969  0.3774 -0.0334
 4606TIP3    H135309   3.216   2.725   1.590 -0.3657  0.4821  0.7298
 4606TIP3    H235310   3.162   2.689   1.453  0.3409  1.4939  0.1771
 4607TIP3   OH235311   0.307   4.487  16.346 -0.0877 -0.6904 -0.1180
 4607TIP3    H135312   0.329   4.579  16.326  1.8468 -0.5678  2.2859
 4607TIP3    H235313   0.285   4.449  16.261 -0.3733  1.8706 -1.2429
 4608TIP3   OH235314   0.252   2.849   3.354 -0.3549  0.0269  0.5841
 4608TIP3    H135315   0.223   2.937   3.379 -0.5762 -0.3541  1.6980
 4608TIP3    H235316   0.265   2.803   3.438 -0.7039 -1.1546  0.0009
 4609TIP3   OH235317   4.863   2.457  15.503 -0.1566 -0.0451 -0.1799
 4609TIP3    H135318   4.887   2.514  15.430 -0.8691 -1.2418 -1.3811
 4609TIP3    H235319   4.893   2.370  15.475  1.7269 -0.1250  2.0049
 4610TIP3   OH235320   0.932   3.697   1.184  0.0601 -0.6484 -0.3700
 4610TIP3    H135321   0.958   3.756   1.113 -0.5771 -0.8735 -0.8002
 4610TIP3    H235322   0.887   3.753   1.246  0.1851 -0.5348 -0.3818
 4611TIP3   OH235323   1.095   1.042   1.695  0.1242  0.1873 -0.4774
 4611TIP3    H135324   1.161   0.973   1.701  0.1128  0.1794 -0.4441
 4611TIP3    H235325   1.012   0.997   1.710  0.1649  0.3040  0.0776
 4612TIP3   OH235326   0.446   6.733  12.091  0.1113 -0.0321 -0.5000
 4612TIP3    H135327   0.485   6.646  12.080  0.9493  0.2333  0.3026
 4612TIP3    H235328   0.352   6.719  12.078  0.1638 -1.1842  0.2992
 4613TIP3   OH235329   2.236   5.224  13.998  0.2872  0.4495  0.3327
 4613TIP3    H135330   2.213   5.165  13.926 -0.2453  1.8408 -0.6587
 4613TIP3    H235331   2.179   5.300  13.985  0.7697  1.0618  1.7591
 4614TIP3   OH235332   6.593   6.239  15.103 -0.0390  0.1494 -0.2439
 4614TIP3    H135333   6.538   6.163  15.126  0.6282 -0.2397  0.0778
 4614TIP3    H235334   6.662   6.203  15.047 -0.1393  0.6465 -0.6925
 4615TIP3   OH235335   5.985   3.545  13.811 -0.2641  0.1499  0.2909
 4615TIP3    H135336   5.991   3.625  13.863  0.5602 -0.4061  1.0719
 4615TIP3    H235337   6.073   3.535  13.774  0.1396 -1.2887  1.5677
 4616TIP3   OH235338   2.830   5.536  12.441 -1.0247 -0.3976  0.8572
 4616TIP3    H135339   2.856   5.444  12.445 -1.2086 -0.3941  2.2953
 4616TIP3    H235340   2.780   5.550  12.521 -0.5703  1.0875  0.8802
 4617TIP3   OH235341   3.322   0.139  10.602  0.7243 -0.6798  0.6026
 4617TIP3    H135342   3.275   0.057  10.618  0.7595 -0.8404 -0.1017
 4617TIP3    H235343   3.370   0.124  10.521  2.4697 -0.7236  1.6170
 4618TIP3   OH235344   6.014   5.948  13.658 -0.3557 -0.0886 -0.6349
 4618TIP3    H135345   6.089   5.900  13.623 -3.0765 -2.2712 -3.7853
 4618TIP3    H235346   5.991   5.901  13.738  2.1127  1.1828  0.9131
 4619TIP3   OH235347   0.333   6.107   0.321  0.0083 -0.5096 -0.1414
 4619TIP3    H135348   0.258   6.111   0.261  0.1965 -2.0714 -0.4844
 4619TIP3    H235349   0.335   6.017   0.351  0.1863  0.1546  1.8966
 4620TIP3   OH235350   2.773   3.194   4.542 -0.4614  0.3048 -0.6420
 4620TIP3    H135351   2.799   3.234   4.459  0.3735 -0.6898 -0.8680
 4620TIP3    H235352   2.830   3.117   4.550 -0.3419  0.5539  0.9863
 4621TIP3   OH235353   2.252   1.216   4.103 -0.1501 -0.3652 -0.1299
 4621TIP3    H135354   2.211   1.133   4.082 -1.6467 -0.3946  2.6011
 4621TIP3    H235355   2.275   1.254   4.019 -2.0158 -2.2587 -1.5510
 4622TIP3   OH235356   3.235   5.175  10.999  0.0788 -0.2971 -0.2311
 4622TIP3    H135357   3.247   5.092  10.952 -0.5237 -0.5466  0.0611
 4622TIP3    H235358   3.311   5.180  11.057 -1.0519 -1.7532  1.4037
 4623TIP3   OH235359   1.781   6.084   6.219 -0.7841  0.2349 -0.2836
 4623TIP3    H135360   1.798   5.994   6.245 -1.4023  0.0209 -0.6153
 4623TIP3    H235361   1.689   6.099   6.243 -0.8128  0.6307 -0.6428
 4624TIP3   OH235362   5.261   2.814  12.362  0.1931  0.4754 -0.1197
 4624TIP3    H135363   5.258   2.790  12.269  0.9130 -0.9518  0.2118
 4624TIP3    H235364   5.262   2.730  12.408 -0.0628  1.1793  1.1719
 4625TIP3   OH235365   1.345   3.130  12.481  0.0107 -0.2795 -0.2384
 4625TIP3    H135366   1.328   3.219  12.451 -2.1218 -0.8511 -0.8576
 4625TIP3    H235367   1.362   3.138  12.574  0.7463  0.8821 -0.4712
 4626TIP3   OH235368   6.040   0.147  12.096  0.5371  0.2444 -0.0456
 4626TIP3    H135369   6.121   0.145  12.045 -0.4065 -1.2635 -1.5324
 4626TIP3    H235370   5.972   0.167  12.032 -0.2733  1.5989  1.2077
 4627TIP3   OH235371   3.425   1.354  16.595 -0.3579  0.0888  0.4370
 4627TIP3    H135372   3.398   1.399  16.516 -1.3164  0.0667  0.7433
 4627TIP3    H235373   3.520   1.367  16.599 -0.2731 -0.0867 -0.8107
 4628TIP3   OH235374   4.540   1.418  16.054 -0.1956 -0.1318 -0.5287
 4628TIP3    H135375   4.497   1.496  16.088  1.6834  0.8519 -0.3116
 4628TIP3    H235376   4.536   1.428  15.959 -0.5750 -0.1347 -0.5141
 4629TIP3   OH235377   5.428   3.721   2.482  0.1319 -0.2402 -0.0980
 4629TIP3    H135378   5.482   3.642   2.478  1.4068  0.5398  1.1565
 4629TIP3    H235379   5.487   3.791   2.452  0.4472  0.9219  3.0742
 4630TIP3   OH235380   6.304   5.681  10.453 -0.2339  0.3732  0.3354
 4630TIP3    H135381   6.335   5.608  10.399 -0.7960  0.8423 -0.6330
 4630TIP3    H235382   6.230   5.646  10.502  0.3665 -0.0934  0.9297
 4631TIP3   OH235383   2.222   3.419  11.305  0.8172  0.4422  0.6469
 4631TIP3    H135384   2.128   3.412  11.324  0.8628 -0.5541  0.5296
 4631TIP3    H235385   2.226   3.428  11.210  0.8229  0.8544  0.6845
 4632TIP3   OH235386   0.162   5.394  13.593  0.6785  0.2086 -0.8062
 4632TIP3    H135387   0.256   5.408  13.584  1.0279 -1.5836 -0.1606
 4632TIP3    H235388   0.125   5.421  13.509  1.7495  1.1156 -0.9866
 4633TIP3   OH235389   1.411   2.379  12.511 -0.1771 -0.7124  0.2949
 4633TIP3    H135390   1.367   2.451  12.467  0.9629 -1.3052 -1.8638
 4633TIP3    H235391   1.394   2.303  12.456  1.3107 -1.4682  0.8428
 4634TIP3   OH235392   5.583   1.126  15.413 -0.0324  0.7228 -0.2470
 4634TIP3    H135393   5.563   1.156  15.502 -0.5159  0.7659 -0.3691
 4634TIP3    H235394   5.663   1.173  15.389  1.4710 -1.1055  1.0751
 4635TIP3   OH235395   5.752   0.403  13.140  0.4136 -0.5392  0.5864
 4635TIP3    H135396   5.841   0.368  13.154  1.1105  0.6476 -0.7906
 4635TIP3    H235397   5.742   0.470  13.207  0.5323 -0.7095  0.7757
 4636TIP3   OH235398   0.712   5.714  17.055  0.2154 -0.4435 -0.0144
 4636TIP3    H135399   0.620   5.738  17.040 -0.2204 -2.0914 -0.0878
 4636TIP3    H235400   0.723   5.718  17.150  0.3296  0.6821 -0.0749
 4637TIP3   OH235401   5.530   3.085  14.580 -0.0055  0.2089 -0.0042
 4637TIP3    H135402   5.593   3.065  14.511  1.0107  1.1118  0.6475
 4637TIP3    H235403   5.554   3.173  14.609  0.2281 -0.5779  2.2118
 4638TIP3   OH235404   5.773   3.071  15.492  0.7137  0.3834 -0.2711
 4638TIP3    H135405   5.749   3.125  15.417  2.0202  1.6562  0.1977
 4638TIP3    H235406   5.690   3.039  15.527  0.0815 -0.0318 -2.1130
 4639TIP3   OH235407   2.820   6.029  15.848  0.5673  0.3263 -0.5639
 4639TIP3    H135408   2.791   5.951  15.894  0.0461  2.0624  2.1643
 4639TIP3    H235409   2.803   6.101  15.909  1.4592  2.5270 -2.8069
 4640TIP3   OH235410   1.870   2.268  12.569  0.1233 -0.3178  0.2809
 4640TIP3    H135411   1.787   2.221  12.563  1.8623 -3.5988  0.4709
 4640TIP3    H235412   1.894   2.286  12.478 -1.0451  1.1339  0.2536
 4641TIP3   OH235413   3.949   0.768   5.431 -0.3979 -0.0430 -0.4417
 4641TIP3    H135414   3.862   0.783   5.468  0.1764  0.3943  0.7472
 4641TIP3    H235415   3.938   0.783   5.337 -0.7455  3.8813  0.1653
 4642TIP3   OH235416   6.455   6.132   0.966 -0.1649 -0.3884 -0.0138
 4642TIP3    H135417   6.551   6.132   0.961 -0.1389  2.6276 -0.5000
 4642TIP3    H235418   6.427   6.090   0.886  0.7797  1.4435 -1.3586
 4643TIP3   OH235419   0.568   1.822   2.081  0.6507  0.3813  0.0203
 4643TIP3    H135420   0.530   1.807   2.168 -0.1514 -1.8133 -0.6781
 4643TIP3    H235421   0.569   1.917   2.072 -1.9367  0.5867  1.2829
 4644TIP3   OH235422   0.146   0.840  13.528  0.4711 -0.0129  0.5089
 4644TIP3    H135423   0.110   0.866  13.613 -1.8641 -3.0919  0.5520
 4644TIP3    H235424   0.147   0.922  13.477  0.7707  1.6394  3.0740
 4645TIP3   OH235425   6.646   3.292  13.861  0.1518 -0.1152  0.3661
 4645TIP3    H135426   6.695   3.264  13.939  0.7435 -0.9119 -0.2793
 4645TIP3    H235427   6.698   3.260  13.788 -0.1157  1.1224 -0.3768
 4646TIP3   OH235428   4.936   2.945   2.086  0.3208 -0.5206  0.1824
 4646TIP3    H135429   4.868   2.901   2.036  0.1961 -3.0953  2.5040
 4646TIP3    H235430   4.888   3.000   2.149  0.4206 -0.6754  0.3931
 4647TIP3   OH235431   1.628   3.836   1.881 -0.1750 -0.0818  0.0573
 4647TIP3    H135432   1.693   3.842   1.811  1.0485  1.8834  1.3012
 4647TIP3    H235433   1.678   3.853   1.961 -2.2139  1.6837  1.0185
 4648TIP3   OH235434   3.315   1.220   0.850  0.0128  0.7671  0.1000
 4648TIP3    H135435   3.312   1.170   0.769 -1.4310 -1.0190  1.2307
 4648TIP3    H235436   3.276   1.304   0.828 -1.8408 -0.2726 -0.6927
 4649TIP3   OH235437   1.173   1.743   2.105  0.2892 -0.3586  0.0553
 4649TIP3    H135438   1.205   1.670   2.159 -0.5704  0.9850  2.4666
 4649TIP3    H235439   1.078   1.734   2.107  0.1536  1.0381  0.7128
 4650TIP3   OH235440   2.892   5.192   1.910 -0.3546  0.4456 -0.1240
 4650TIP3    H135441   2.856   5.198   1.998 -0.6904 -0.3546 -0.2008
 4650TIP3    H235442   2.986   5.184   1.922 -0.3608  0.7669  0.1429
 4651TIP3   OH235443   5.371   1.826  12.896 -0.3265  0.3260  0.2830
 4651TIP3    H135444   5.402   1.758  12.956 -0.2736  0.5925  0.5556
 4651TIP3    H235445   5.408   1.801  12.811 -2.4690 -1.4773 -0.1873
 4652TIP3   OH235446   1.460   0.543  12.158  0.2552  0.3446 -0.3903
 4652TIP3    H135447   1.511   0.470  12.123  2.1302  1.6730 -0.4532
 4652TIP3    H235448   1.441   0.599  12.083 -1.3026 -0.1211 -0.3672
 4653TIP3   OH235449   4.008   2.796   1.096 -0.1367 -0.5551  0.0721
 4653TIP3    H135450   4.083   2.748   1.133 -0.2684 -1.0193 -0.2582
 4653TIP3    H235451   4.048   2.871   1.051  0.1373 -0.8535 -0.1820
 4654TIP3   OH235452   5.847   4.215  15.129 -0.8363  0.1697  0.8367
 4654TIP3    H135453   5.889   4.197  15.213  0.0317 -0.6899  0.2365
 4654TIP3    H235454   5.918   4.247  15.073 -1.4226  0.8013  0.4498
 4655TIP3   OH235455   2.507   1.905   5.507  0.2048  0.3600 -0.7591
 4655TIP3    H135456   2.548   1.901   5.420  3.1285 -0.7410  0.6029
 4655TIP3    H235457   2.557   1.972   5.553  0.6530 -1.1402  1.0031
 4656TIP3   OH235458   3.617   2.020  16.771  0.4379  0.1563  0.3283
 4656TIP3    H135459   3.647   1.935  16.801 -0.2395  0.1188  0.9107
 4656TIP3    H235460   3.551   2.047  16.835  1.9884  1.9621  1.2344
 4657TIP3   OH235461   3.796   4.589   0.047 -0.3443  0.7147 -0.1919
 4657TIP3    H135462   3.769   4.497   0.043  2.0015  0.0192 -0.5020
 4657TIP3    H235463   3.823   4.610  -0.042  0.4433  1.2850  0.1754
 4658TIP3   OH235464   0.090   0.739  13.206  0.1398  0.5474  0.1685
 4658TIP3    H135465   0.110   0.768  13.117 -2.4919 -0.1295 -0.6825
 4658TIP3    H235466   0.064   0.819  13.252 -0.6302  0.5639 -0.2905
 4659TIP3   OH235467   3.052   5.412  11.980  0.2435 -0.3806  0.2358
 4659TIP3    H135468   3.049   5.378  12.069 -0.2888 -1.9122 -0.3566
 4659TIP3    H235469   3.115   5.484  11.983  0.1007 -0.3212  1.8748
 4660TIP3   OH235470   4.770   0.559  16.231 -0.0304 -0.0519 -0.5101
 4660TIP3    H135471   4.702   0.496  16.207 -0.0684 -0.3568  0.3561
 4660TIP3    H235472   4.775   0.553  16.327  1.1868 -0.0172 -0.5534
 4661TIP3   OH235473   4.588   0.082   0.268 -0.8948  0.7023 -0.6162
 4661TIP3    H135474   4.502   0.056   0.301  0.5906 -1.0601  2.0949
 4661TIP3    H235475   4.624   0.002   0.231 -0.0712  1.2269 -0.9475
 4662TIP3   OH235476   6.527   4.871   0.764 -0.1583  0.8823 -0.1190
 4662TIP3    H135477   6.501   4.943   0.707  0.4492  1.2267  0.0336
 4662TIP3    H235478   6.565   4.914   0.841  1.2716  0.3888 -0.5327
 4663TIP3   OH235479   6.138   2.199   1.804  0.2039 -0.4038  0.3668
 4663TIP3    H135480   6.201   2.137   1.841 -0.3698 -0.6005  1.0381
 4663TIP3    H235481   6.132   2.268   1.870  0.0087 -0.1927  0.1270
 4664TIP3   OH235482   2.380   1.922  12.787 -0.1183 -0.5463 -0.0181
 4664TIP3    H135483   2.364   1.993  12.725 -0.1199  1.1150  1.8431
 4664TIP3    H235484   2.361   1.843  12.737  0.1013  0.7204 -2.2112
 4665TIP3   OH235485   2.880   4.761  10.372 -0.1705 -0.3058  0.0439
 4665TIP3    H135486   2.844   4.673  10.384  1.4090 -0.8788  0.7107
 4665TIP3    H235487   2.940   4.773  10.446  0.0966  1.0989 -0.3762
 4666TIP3   OH235488   5.561   3.943   6.334 -0.5716 -0.2992  0.4483
 4666TIP3    H135489   5.498   3.908   6.270 -0.7717  1.0775 -0.1283
 4666TIP3    H235490   5.575   3.871   6.395 -0.7472 -1.4898 -0.8724
 4667TIP3   OH235491   3.136   3.269  14.136  0.4145  0.3731  0.1895
 4667TIP3    H135492   3.053   3.308  14.107  0.5798  0.1195 -0.6560
 4667TIP3    H235493   3.197   3.291  14.065  0.6467 -0.9355 -0.0190
 4668TIP3   OH235494   5.271   2.331   3.499  0.1751  0.4699  0.1587
 4668TIP3    H135495   5.255   2.241   3.526 -0.9314  0.5637 -0.1482
 4668TIP3    H235496   5.191   2.356   3.453  0.2200  1.8247  0.8114
 4669TIP3   OH235497   5.872   4.630   5.787 -0.1877 -0.4703  0.3210
 4669TIP3    H135498   5.907   4.615   5.875  0.1409  1.7086  0.5897
 4669TIP3    H235499   5.914   4.712   5.758 -1.0986 -0.6041 -1.4334
 4670TIP3   OH235500   2.593   3.960   4.384 -0.0715  0.4836 -0.5031
 4670TIP3    H135501   2.670   4.017   4.385  0.2331  0.0702 -0.6337
 4670TIP3    H235502   2.519   4.021   4.374  0.1482  0.9705  0.7166
 4671TIP3   OH235503   0.776   6.153   6.516 -0.2509 -0.0298  0.3150
 4671TIP3    H135504   0.793   6.242   6.547  1.3018  0.4170 -1.7221
 4671TIP3    H235505   0.863   6.114   6.506 -0.8641 -1.2958 -0.2127
 4672TIP3   OH235506   4.171   3.482   5.825 -0.3635 -0.4452 -0.1222
 4672TIP3    H135507   4.257   3.491   5.865  0.2813  0.4864 -1.6850
 4672TIP3    H235508   4.148   3.570   5.796 -1.2211 -0.9335 -0.9666
 4673TIP3   OH235509   3.957   2.347  10.751  0.3430 -0.1705 -0.4009
 4673TIP3    H135510   3.905   2.286  10.804 -2.3418 -1.1642 -3.9265
 4673TIP3    H235511   4.032   2.295  10.723  0.3644 -0.4837  0.2220
 4674TIP3   OH235512   3.308   0.938  15.805  0.5312 -0.4954 -0.6037
 4674TIP3    H135513   3.243   0.952  15.873  0.6089  0.8089 -0.7697
 4674TIP3    H235514   3.258   0.913  15.728  0.2186  0.3718 -0.6937
 4675TIP3   OH235515   3.801   5.968  13.905  0.2878  0.0660 -0.0141
 4675TIP3    H135516   3.795   6.020  13.985  1.0175  0.0171  0.0739
 4675TIP3    H235517   3.888   5.928  13.908 -0.3430 -1.3195  0.0184
 4676TIP3   OH235518   5.816   0.233  14.603  0.3768  0.1308 -0.2974
 4676TIP3    H135519   5.759   0.186  14.542 -0.6426 -0.2676  0.9269
 4676TIP3    H235520   5.758   0.294  14.648  1.2194  0.7908 -0.0991
 4677TIP3   OH235521   3.007   4.932  13.343  0.1595  0.8855 -0.5954
 4677TIP3    H135522   3.037   5.023  13.344  0.0962  0.9130 -0.9610
 4677TIP3    H235523   3.080   4.883  13.304  0.7239  0.5804  0.7959
 4678TIP3   OH235524   6.449   0.512  11.015  0.2513  0.1337  0.3506
 4678TIP3    H135525   6.382   0.449  10.988 -0.4250 -0.2293  2.7558
 4678TIP3    H235526   6.522   0.496  10.955 -0.7518 -1.4096 -0.4923
 4679TIP3   OH235527   3.293   5.801  15.374 -0.3583  0.0663  0.2757
 4679TIP3    H135528   3.332   5.777  15.458  0.1050 -0.8378 -0.1874
 4679TIP3    H235529   3.236   5.728  15.352 -1.9869  1.1774  0.7176
 4680TIP3   OH235530   3.884   1.299   3.047  0.7299 -0.6111 -0.2264
 4680TIP3    H135531   3.915   1.249   2.971 -2.8507 -3.3364 -0.0795
 4680TIP3    H235532   3.796   1.327   3.022  1.3894  2.8313  1.0671
 4681TIP3   OH235533   1.837   0.005   6.356  0.8312  0.0252  0.5791
 4681TIP3    H135534   1.776   0.070   6.390  1.2303  0.4415  0.5198
 4681TIP3    H235535   1.919   0.053   6.346  0.8351 -0.1988 -0.5482
 4682TIP3   OH235536   5.458   4.077  17.037  0.6385  0.1829  0.1064
 4682TIP3    H135537   5.432   3.986  17.052  1.8251 -0.3534 -0.9251
 4682TIP3    H235538   5.464   4.085  16.941  0.2598  1.4317  0.1738
 4683TIP3   OH235539   6.770   2.791   6.566  0.4436 -0.0838 -0.3660
 4683TIP3    H135540   6.857   2.795   6.604 -0.1699 -3.9801  1.7285
 4683TIP3    H235541   6.711   2.819   6.637 -0.2092 -0.4042 -0.7719
 4684TIP3   OH235542   6.497   5.573   6.252  0.2963  0.6698  0.0231
 4684TIP3    H135543   6.513   5.574   6.346 -0.0203 -0.6652  0.1041
 4684TIP3    H235544   6.403   5.560   6.244  0.3360  0.6738 -0.4879
 4685TIP3   OH235545   4.234   5.096   0.984 -0.1479 -0.0452 -0.3725
 4685TIP3    H135546   4.203   5.133   1.067  0.4655  0.2523 -0.2669
 4685TIP3    H235547   4.255   5.005   1.005 -1.7255 -0.4869 -0.6474
 4686TIP3   OH235548   1.893   3.959   6.397 -0.4440 -0.4190 -0.1229
 4686TIP3    H135549   1.953   3.886   6.378 -2.5653 -2.4441  0.7844
 4686TIP3    H235550   1.917   3.988   6.485 -0.8183 -1.2259  0.2402
 4687TIP3   OH235551   2.953   1.592   5.586 -0.3365 -0.4979 -0.7241
 4687TIP3    H135552   3.019   1.547   5.639  0.4550 -0.5060 -1.7007
 4687TIP3    H235553   2.869   1.564   5.623  0.2100  0.4401  1.2956
 4688TIP3   OH235554   4.068   2.537   0.350 -0.3874 -0.6029 -0.2554
 4688TIP3    H135555   4.144   2.516   0.296  0.0380 -0.5385  0.3160
 4688TIP3    H235556   4.070   2.472   0.421 -0.5399 -0.2392  0.0815
 4689TIP3   OH235557   4.296   2.646   4.252  0.3757  0.0014  0.6525
 4689TIP3    H135558   4.216   2.628   4.203  0.2098 -2.0284  1.6081
 4689TIP3    H235559   4.367   2.622   4.192  0.2555  0.8648  0.1595
 4690TIP3   OH235560   4.631   6.557   3.857 -0.6445 -0.3009 -0.3885
 4690TIP3    H135561   4.620   6.615   3.932  2.8540 -1.8299  1.4218
 4690TIP3    H235562   4.563   6.490   3.869 -0.7199 -0.0074  0.9163
 4691TIP3   OH235563   3.886   5.657  11.654  0.0956  0.5312 -0.1872
 4691TIP3    H135564   3.859   5.580  11.704  0.5053 -0.8588 -2.0437
 4691TIP3    H235565   3.804   5.695  11.621 -0.1262  1.0806  0.9855
 4692TIP3   OH235566   2.180   0.618  15.972  0.1924 -0.2136  0.7978
 4692TIP3    H135567   2.216   0.556  16.036  1.0128  0.2987  0.8375
 4692TIP3    H235568   2.155   0.563  15.898 -0.7782 -0.8119  1.5562
 4693TIP3   OH235569   4.354   4.249   1.173  0.9270 -0.1959 -0.5686
 4693TIP3    H135570   4.386   4.160   1.154  1.4495 -0.3255  0.9151
 4693TIP3    H235571   4.268   4.252   1.130  0.8865 -1.4284 -0.6097
 4694TIP3   OH235572   4.942   5.981   3.976  0.1241 -0.0616 -0.6121
 4694TIP3    H135573   4.872   6.016   3.921 -0.3413 -0.4723 -0.2905
 4694TIP3    H235574   5.017   5.973   3.917  0.5366  2.3555 -0.4667
 4695TIP3   OH235575   6.409   1.581  14.082 -0.0868  0.8600 -0.5502
 4695TIP3    H135576   6.406   1.676  14.097  0.8851  0.6493  1.1410
 4695TIP3    H235577   6.493   1.567  14.037 -0.7377  0.9085 -1.8153
 4696TIP3   OH235578   4.936   5.162  12.989 -0.5427  0.0143  0.6169
 4696TIP3    H135579   4.924   5.165  12.894 -1.0580 -0.1936  0.6768
 4696TIP3    H235580   4.871   5.100  13.020 -0.0393 -0.3021  1.0549
 4697TIP3   OH235581   4.379   4.201   1.437 -0.6038 -0.1367 -0.4302
 4697TIP3    H135582   4.392   4.107   1.427  1.1856  0.0376  0.0851
 4697TIP3    H235583   4.334   4.227   1.357  1.5526 -0.9539 -1.9589
 4698TIP3   OH235584   0.471   3.383   5.146  0.0077  0.1938  0.4667
 4698TIP3    H135585   0.384   3.350   5.122  0.1279  1.2873 -1.5994
 4698TIP3    H235586   0.461   3.413   5.236 -2.1862  1.6484 -0.2064
 4699TIP3   OH235587   4.672   5.987   2.222 -0.6704  0.3944 -0.2075
 4699TIP3    H135588   4.759   6.001   2.185 -0.0726  1.3549  1.5123
 4699TIP3    H235589   4.683   5.914   2.283 -0.8541  1.1180  0.7046
 4700TIP3   OH235590   3.498   1.820  15.563  0.6708  0.1034 -0.4808
 4700TIP3    H135591   3.409   1.791  15.544 -0.1502  2.3591 -0.1965
 4700TIP3    H235592   3.496   1.846  15.655  1.6358  0.1594 -0.4632
 4701TIP3   OH235593   3.985   4.469   1.253  0.1046 -0.3393 -0.1184
 4701TIP3    H135594   3.907   4.417   1.271 -0.4708  0.3497 -0.6078
 4701TIP3    H235595   4.021   4.490   1.340  0.0733 -1.1382  0.0906
 4702TIP3   OH235596   3.829   2.138   2.329  0.1113  0.4663  0.3681
 4702TIP3    H135597   3.883   2.075   2.280  1.6692  1.3533  0.8899
 4702TIP3    H235598   3.760   2.163   2.268  1.7076  1.1361 -1.2269
 4703TIP3   OH235599   5.197   0.047   0.732  0.0719  0.2031  0.2994
 4703TIP3    H135600   5.162   0.104   0.800 -1.0240  2.5579 -2.1231
 4703TIP3    H235601   5.277   0.091   0.702  0.8391 -1.0879  0.4318
 4704TIP3   OH235602   4.742   1.226  15.015 -0.0436  0.1751  0.0565
 4704TIP3    H135603   4.769   1.227  15.107  1.6014  0.0706 -0.4116
 4704TIP3    H235604   4.824   1.226  14.966 -0.9043  1.1176 -1.4248
 4705TIP3   OH235605   4.803   2.012   2.887 -0.5218  0.2006 -0.3002
 4705TIP3    H135606   4.755   2.045   2.811 -0.0474 -0.2500 -0.8023
 4705TIP3    H235607   4.736   1.981   2.947 -0.8942  0.4518 -0.5874
 4706TIP3   OH235608   6.015   4.680  11.350  0.7642  0.8781 -0.2922
 4706TIP3    H135609   6.004   4.766  11.310 -0.8761  0.5631 -0.5544
 4706TIP3    H235610   6.009   4.618  11.277  2.9352  0.5789 -0.2458
 4707TIP3   OH235611   4.591   4.465  13.291 -0.1300 -0.3148 -0.1954
 4707TIP3    H135612   4.553   4.400  13.231 -0.9476  0.9299 -1.0533
 4707TIP3    H235613   4.652   4.515  13.237  0.4897 -0.3621  0.4586
 4708TIP3   OH235614   0.492   3.891  11.888  0.2864 -0.3875 -0.1976
 4708TIP3    H135615   0.535   3.894  11.973  1.0374 -1.2411 -0.5437
 4708TIP3    H235616   0.399   3.893  11.908  0.4626  0.2384  0.6017
 4709TIP3   OH235617   5.040   6.572  13.661 -0.3051  0.0968 -0.0329
 4709TIP3    H135618   4.999   6.598  13.578  0.1399  0.4508 -0.1414
 4709TIP3    H235619   5.134   6.576  13.644 -0.1837  1.1650  0.7841
 4710TIP3   OH235620   3.137   0.082   0.729  0.1969  0.1079  0.2590
 4710TIP3    H135621   3.070   0.143   0.696 -0.4905  0.6268  2.5252
 4710TIP3    H235622   3.091  -0.001   0.740  0.0958  0.2623  1.0666
 4711TIP3   OH235623   1.697   4.143   3.574  0.1434 -0.0676 -0.2693
 4711TIP3    H135624   1.659   4.213   3.628 -1.1334 -1.3777  0.5702
 4711TIP3    H235625   1.623   4.112   3.520  0.5272 -1.2099 -0.1534
 4712TIP3   OH235626   2.718   1.423  13.504  0.3003 -0.3055  0.4125
 4712TIP3    H135627   2.697   1.516  13.496  1.8000  0.2562  2.6334
 4712TIP3    H235628   2.804   1.414  13.462 -0.5542 -1.0272 -1.2406
 4713TIP3   OH235629   5.940   0.554   6.932 -0.0371  0.4627  0.7012
 4713TIP3    H135630   5.948   0.524   7.023  0.3906  1.6493  1.0677
 4713TIP3    H235631   5.988   0.489   6.881 -1.6001 -1.0693  1.1313
 4714TIP3   OH235632   6.227   4.938  11.463  0.1775  0.1491 -0.0422
 4714TIP3    H135633   6.279   4.887  11.526  1.2738  0.3430 -0.7591
 4714TIP3    H235634   6.137   4.908  11.476  0.7644 -1.8197 -0.2923
 4715TIP3   OH235635   3.130   4.420   3.630 -0.8076  0.0955  0.0903
 4715TIP3    H135636   3.109   4.508   3.663 -0.5990  0.4347 -0.6821
 4715TIP3    H235637   3.197   4.388   3.690 -0.2515  0.8097 -0.1497
 4716TIP3   OH235638   1.441   4.916  16.240  0.0810 -0.1039  0.4501
 4716TIP3    H135639   1.388   4.887  16.166  0.4392 -2.1864  0.9806
 4716TIP3    H235640   1.521   4.863  16.235  0.2513 -0.0434  2.1386
 4717TIP3   OH235641   1.450   6.344   4.353  0.0858  0.6510  0.2003
 4717TIP3    H135642   1.399   6.423   4.370  0.0897  0.7601 -0.2818
 4717TIP3    H235643   1.541   6.373   4.361  0.0883  0.7132 -0.0695
 4718TIP3   OH235644   2.665   3.142  16.311  0.4319  0.1733  0.0319
 4718TIP3    H135645   2.575   3.155  16.342 -0.0678  1.6610 -1.9226
 4718TIP3    H235646   2.716   3.203  16.364  0.2989 -0.6507  1.1292
 4719TIP3   OH235647   6.124   6.080  15.269  0.0385  0.0068  0.1233
 4719TIP3    H135648   6.119   5.998  15.317  1.5649  0.1532  0.5829
 4719TIP3    H235649   6.121   6.148  15.336  0.3415  0.2715 -0.1277
 4720TIP3   OH235650   2.124   1.930   0.376 -0.2730  0.4238 -0.1232
 4720TIP3    H135651   2.091   1.873   0.446 -0.1283 -1.4415 -1.5143
 4720TIP3    H235652   2.045   1.967   0.337 -0.3953  0.8429  0.5193
 4721TIP3   OH235653   4.255   1.516  12.792  0.0069 -0.1517 -0.1175
 4721TIP3    H135654   4.245   1.561  12.708  1.0803 -0.1700 -0.2666
 4721TIP3    H235655   4.326   1.563  12.835 -1.2314  0.5318  1.2377
 4722TIP3   OH235656   2.359   1.408   1.871  0.1942 -0.4060 -0.5986
 4722TIP3    H135657   2.275   1.365   1.853 -0.0123  0.6530 -2.4033
 4722TIP3    H235658   2.425   1.348   1.836 -0.0055  0.0253 -1.7577
 4723TIP3   OH235659   5.769   4.000   4.187  0.3561  0.6765 -0.7142
 4723TIP3    H135660   5.775   4.041   4.274  2.6017 -0.6028 -0.2136
 4723TIP3    H235661   5.689   3.948   4.191  1.4892 -1.0215  1.3840
 4724TIP3   OH235662   2.293   1.354  16.261 -0.1822  0.2675  0.2114
 4724TIP3    H135663   2.340   1.292  16.318 -3.5095 -0.0727  2.7312
 4724TIP3    H235664   2.355   1.426  16.249  1.9087 -1.2608  1.3543
 4725TIP3   OH235665   5.808   5.174   5.297 -0.0795  0.7610 -0.3562
 4725TIP3    H135666   5.874   5.187   5.365  0.0600  0.1008 -0.3549
 4725TIP3    H235667   5.791   5.080   5.299 -0.6874  0.8646 -0.6681
 4726TIP3   OH235668   1.278   4.773   3.271  0.2650 -0.1628  0.1768
 4726TIP3    H135669   1.244   4.735   3.190  0.2506  0.0809  0.0685
 4726TIP3    H235670   1.373   4.759   3.266  0.2264 -0.4702  0.2867
 4727TIP3   OH235671   4.967   0.954  12.589 -0.5241  0.2979  0.2836
 4727TIP3    H135672   4.988   0.938  12.497 -1.1306  1.3618 -0.0502
 4727TIP3    H235673   4.957   1.049  12.596  0.5860  0.3411  1.6902
 4728TIP3   OH235674   2.032   6.768   4.066 -0.1742 -0.5449 -0.8438
 4728TIP3    H135675   1.943   6.799   4.050  0.1755  0.4926 -0.8257
 4728TIP3    H235676   2.065   6.825   4.136  0.6947 -0.5360 -1.2491
 4729TIP3   OH235677   3.180   1.112   3.151  0.3341 -0.6447  0.4457
 4729TIP3    H135678   3.111   1.150   3.205 -0.7843 -1.8501 -0.1343
 4729TIP3    H235679   3.246   1.181   3.145 -0.6414  0.3730  1.3252
 4730TIP3   OH235680   3.037   4.059   1.528 -0.6597 -0.4942  0.6786
 4730TIP3    H135681   3.110   4.077   1.587  1.0446 -0.6500 -1.3147
 4730TIP3    H235682   3.033   3.964   1.523  1.1995 -0.4780 -1.8022
 4731TIP3   OH235683   1.426   0.362  14.609  0.0896  0.1613  0.1808
 4731TIP3    H135684   1.333   0.339  14.611 -0.0895  0.8996  2.8611
 4731TIP3    H235685   1.471   0.282  14.636  0.1500  0.1483  0.0408
 4732TIP3   OH235686   5.049   3.622   3.575  0.2711  0.1152  0.2410
 4732TIP3    H135687   5.018   3.553   3.515  0.8167  0.0972 -0.0205
 4732TIP3    H235688   4.970   3.649   3.622 -0.2179  0.3068 -0.6711
 4733TIP3   OH235689   5.096   4.428  15.800  0.7134  0.7313  0.1510
 4733TIP3    H135690   5.108   4.510  15.752 -0.4023  1.0138  0.3395
 4733TIP3    H235691   5.001   4.415  15.802  0.9081 -0.9947 -0.6054
 4734TIP3   OH235692   1.405   3.261   4.590 -0.2553  0.5074 -0.1058
 4734TIP3    H135693   1.437   3.236   4.676 -1.3469 -0.4172  0.0319
 4734TIP3    H235694   1.311   3.241   4.591 -0.5391  1.6885 -1.0595
 4735TIP3   OH235695   1.712   5.647  15.972  0.0436  0.8410 -0.1376
 4735TIP3    H135696   1.741   5.599  16.050  0.7816  1.6911  0.1187
 4735TIP3    H235697   1.753   5.602  15.899 -1.0975 -0.3035 -0.0917
 4736TIP3   OH235698   1.461   3.492  16.122 -0.3816  0.3366  0.2965
 4736TIP3    H135699   1.413   3.533  16.049  1.1102 -1.1697 -1.5906
 4736TIP3    H235700   1.532   3.553  16.140  0.6410 -0.3882 -1.1471
 4737TIP3   OH235701   2.607   4.497  14.231  0.2863 -0.1057 -0.2178
 4737TIP3    H135702   2.587   4.493  14.138 -0.0071  0.9546 -0.2166
 4737TIP3    H235703   2.703   4.495  14.236  0.3826  2.1087 -0.7031
 4738TIP3   OH235704   5.272   1.289  15.346 -0.0318 -0.3989  0.7325
 4738TIP3    H135705   5.333   1.238  15.399 -0.9607 -0.8776  1.3571
 4738TIP3    H235706   5.312   1.376  15.340  1.3368 -1.0565  0.0489
 4739TIP3   OH235707   1.441   5.541  13.689  0.8133  0.5970  0.1716
 4739TIP3    H135708   1.479   5.453  13.687 -0.5114 -0.0019 -3.6860
 4739TIP3    H235709   1.467   5.577  13.774  4.6031 -2.0872  0.2617
 4740TIP3   OH235710   2.701   1.042  14.063 -0.0545  0.0134 -0.3995
 4740TIP3    H135711   2.645   1.027  13.987  0.1512  1.4884 -0.8591
 4740TIP3    H235712   2.653   1.106  14.115 -0.7010 -1.7879  1.2792
 4741TIP3   OH235713   1.398   4.768  16.027 -0.4139  0.3182 -0.3775
 4741TIP3    H135714   1.317   4.718  16.013 -0.2240 -0.1893  0.2995
 4741TIP3    H235715   1.449   4.714  16.088  0.0981  1.0118 -0.1886
 4742TIP3   OH235716   3.951   4.098  11.533 -0.0832  0.4154  0.2615
 4742TIP3    H135717   3.973   4.009  11.560 -3.7400 -1.5649 -2.8419
 4742TIP3    H235718   3.996   4.110  11.449  2.4518  2.5223  1.8367
 4743TIP3   OH235719   3.075   1.178  15.629  0.0218  0.4832  0.5425
 4743TIP3    H135720   3.014   1.244  15.662 -0.1402  1.2734 -1.3143
 4743TIP3    H235721   3.047   1.096  15.671 -1.3828  1.1071  0.8381
 4744TIP3   OH235722   0.987   1.076  12.760  1.0303  0.0170 -0.6090
 4744TIP3    H135723   1.076   1.104  12.742  1.3449 -1.0742 -0.8342
 4744TIP3    H235724   0.932   1.141  12.718  1.7072  1.2405  0.3799
 4745TIP3   OH235725   0.410   0.627  15.471 -0.0990  0.1920 -0.3999
 4745TIP3    H135726   0.434   0.579  15.551  0.4601  1.0899 -0.0255
 4745TIP3    H235727   0.317   0.607  15.458 -0.4898  0.9537  1.1204
 4746TIP3   OH235728   3.638   4.041   0.153 -0.1951 -0.4374 -0.7040
 4746TIP3    H135729   3.694   4.028   0.230  0.4941 -0.9812 -1.2905
 4746TIP3    H235730   3.691   4.010   0.079 -0.9040 -0.0478 -1.3839
 4747TIP3   OH235731   1.579   4.055  12.618 -0.3729  0.4596 -0.1880
 4747TIP3    H135732   1.635   4.066  12.695  1.8727 -0.6895 -1.5939
 4747TIP3    H235733   1.633   4.087  12.545 -0.7678 -2.4534 -1.8509
 4748TIP3   OH235734   2.756   1.149   5.714 -0.2766  0.5068  0.2015
 4748TIP3    H135735   2.802   1.065   5.722  0.4100  0.6365 -2.1009
 4748TIP3    H235736   2.824   1.212   5.692 -0.6247  1.9081  2.9167
 4749TIP3   OH235737   5.257   2.838   3.604 -0.1943 -0.4302  0.3158
 4749TIP3    H135738   5.227   2.929   3.608  1.8980  0.5226 -3.4629
 4749TIP3    H235739   5.352   2.844   3.608 -0.0477 -2.5040  0.4132
 4750TIP3   OH235740   6.134   3.750   2.941 -0.2706 -0.4258  0.2210
 4750TIP3    H135741   6.197   3.751   2.869 -0.2636  4.3137  0.1578
 4750TIP3    H235742   6.181   3.788   3.015 -2.0137 -0.0925  1.1720
 4751TIP3   OH235743   1.168   4.345   1.582  0.0513  0.3189  0.2284
 4751TIP3    H135744   1.135   4.367   1.495  0.4267  1.1904  0.2999
 4751TIP3    H235745   1.260   4.320   1.568 -0.0306 -0.0369  0.3105
 4752TIP3   OH235746   1.001   1.162  11.221  0.2430  0.7612 -0.5132
 4752TIP3    H135747   1.034   1.088  11.271  1.2761  1.2484 -0.4682
 4752TIP3    H235748   0.919   1.131  11.183  0.0942 -0.0250  0.4420
 4753TIP3   OH235749   1.124   1.324  14.153 -0.0119  0.2273  0.0322
 4753TIP3    H135750   1.081   1.409  14.167 -0.1684 -0.0301  1.2035
 4753TIP3    H235751   1.079   1.286  14.078 -1.8918 -0.0551  1.2646
 4754TIP3   OH235752   2.632   4.617  16.279  0.2619  0.1221  0.2607
 4754TIP3    H135753   2.626   4.710  16.258 -3.1121 -0.2833 -0.7236
 4754TIP3    H235754   2.612   4.612  16.373 -1.5965  0.1709 -0.1345
 4755TIP3   OH235755   2.713   3.783  13.326  0.2065  0.1656  0.0164
 4755TIP3    H135756   2.667   3.701  13.306  0.3989 -0.0414  0.4068
 4755TIP3    H235757   2.651   3.852  13.304 -0.4983 -0.1171  1.0540
 4756TIP3   OH235758   1.361   5.752   4.222 -0.5682 -0.6370  0.2836
 4756TIP3    H135759   1.407   5.724   4.142 -0.9035 -0.1731 -0.0775
 4756TIP3    H235760   1.349   5.847   4.210  0.3554 -0.3754  1.3841
 4757TIP3   OH235761   5.435   3.072  17.237 -0.4464 -0.0837 -0.1985
 4757TIP3    H135762   5.351   3.067  17.282 -0.9655  2.7817 -0.7933
 4757TIP3    H235763   5.494   3.113  17.300  0.0184 -0.2952 -0.4919
 4758TIP3   OH235764   0.811   3.282  10.320  0.4699  0.4860 -0.3763
 4758TIP3    H135765   0.857   3.365  10.308 -0.9203  1.5933  1.7001
 4758TIP3    H235766   0.849   3.245  10.399 -0.5288  0.2427 -0.0128
 4759TIP3   OH235767   2.808   4.874  14.159  0.2513 -0.2834 -0.2448
 4759TIP3    H135768   2.743   4.899  14.093 -0.3860 -1.6775 -0.1615
 4759TIP3    H235769   2.854   4.799  14.120 -0.3761 -1.3532  1.0298
 4760TIP3   OH235770   4.724   5.609  16.004  0.5924 -0.1254  0.3829
 4760TIP3    H135771   4.678   5.530  15.975  0.9288 -0.1149 -0.1823
 4760TIP3    H235772   4.662   5.680  15.988  0.6305 -0.1663  0.0610
 4761TIP3   OH235773   4.980   2.900  17.283 -0.0166 -0.4994  0.2065
 4761TIP3    H135774   5.006   2.992  17.279  3.2734 -1.3545  0.9351
 4761TIP3    H235775   4.915   2.897  17.354  1.3940  0.9253  1.5955
 4762TIP3   OH235776   3.664   2.126  15.776  0.2666  0.4215  0.6895
 4762TIP3    H135777   3.644   2.188  15.846 -2.1739  0.5599 -0.0797
 4762TIP3    H235778   3.635   2.170  15.696  1.6985 -0.3222 -0.2606
 4763TIP3   OH235779   0.113   2.349  15.291  0.4742 -0.0066  0.0573
 4763TIP3    H135780   0.148   2.437  15.310  2.4517 -0.6103 -0.6095
 4763TIP3    H235781   0.027   2.365  15.252  0.0338  1.5578  1.6013
 4764TIP3   OH235782   0.276   5.855   5.530 -0.0037 -0.0094 -0.3611
 4764TIP3    H135783   0.259   5.828   5.440 -1.2427 -1.6680  0.3379
 4764TIP3    H235784   0.203   5.914   5.551 -0.9285 -1.3436  0.2470
 4765TIP3   OH235785   6.809   5.463  13.774  0.5601  0.7884  0.0910
 4765TIP3    H135786   6.879   5.445  13.712  0.0678 -2.2123  0.3601
 4765TIP3    H235787   6.845   5.442  13.860 -0.4379 -0.1022  0.3056
 4766TIP3   OH235788   2.981   5.666  14.176 -0.0264  0.1568  0.4084
 4766TIP3    H135789   2.918   5.610  14.130  0.8096 -0.0582 -0.4737
 4766TIP3    H235790   3.059   5.613  14.185  1.4412  1.7749 -2.1064
 4767TIP3   OH235791   1.123   4.911  12.461  0.4564 -0.1795 -0.3047
 4767TIP3    H135792   1.103   4.940  12.372 -1.1084  0.5127  0.2604
 4767TIP3    H235793   1.134   4.992  12.511 -0.9442 -0.5625  0.6337
 4768TIP3   OH235794   5.229   3.426  15.263 -0.0169 -0.1574 -0.3302
 4768TIP3    H135795   5.285   3.495  15.227  0.7032  0.1798  1.3796
 4768TIP3    H235796   5.157   3.474  15.305  1.1288 -0.3518  1.9432
 4769TIP3   OH235797   4.907   4.332   2.903 -0.2042  0.2369 -0.3714
 4769TIP3    H135798   4.950   4.266   2.848  1.2610  1.1703 -0.3878
 4769TIP3    H235799   4.922   4.414   2.857 -1.1254  0.7182  0.1783
 4770TIP3   OH235800   1.831   2.644  11.650 -0.0947 -0.5077  0.1794
 4770TIP3    H135801   1.876   2.661  11.733 -0.6913 -2.3515  0.8877
 4770TIP3    H235802   1.902   2.642  11.585  0.6386 -1.3223  0.9832
 4771TIP3   OH235803   6.484   1.654   4.268 -0.0151 -0.2605  0.0071
 4771TIP3    H135804   6.504   1.674   4.359 -0.0051 -0.5152  0.0584
 4771TIP3    H235805   6.496   1.738   4.223  2.2785 -0.6598 -0.1675
 4772TIP3   OH235806   6.203   3.675  13.260  0.3240 -0.2434  0.5054
 4772TIP3    H135807   6.241   3.755  13.297  0.4786 -0.5527  1.0226
 4772TIP3    H235808   6.170   3.701  13.174 -0.9114  0.7216  1.2565
 4773TIP3   OH235809   2.657   0.012   1.167  0.1625 -0.1256  0.4030
 4773TIP3    H135810   2.671   0.059   1.086 -0.7650  1.8490  1.3615
 4773TIP3    H235811   2.697  -0.074   1.153  2.2307  1.0881 -1.2221
 4774TIP3   OH235812   5.160   1.826   1.213  0.1877  0.5510  0.7024
 4774TIP3    H135813   5.140   1.741   1.252  0.7447 -0.4483 -1.1127
 4774TIP3    H235814   5.099   1.887   1.255  0.8040 -0.4599  3.1085
 4775TIP3   OH235815   1.235   5.218   6.077  0.0101 -0.3364  0.3604
 4775TIP3    H135816   1.246   5.262   6.161  1.1066 -1.7127  0.9511
 4775TIP3    H235817   1.269   5.129   6.091  0.4754 -0.4977 -1.5952
 4776TIP3   OH235818   6.590   5.812  14.590  0.2189  0.1324 -0.0162
 4776TIP3    H135819   6.661   5.764  14.547  0.0395  2.0296 -2.5701
 4776TIP3    H235820   6.510   5.774  14.552  0.0700  2.1808 -1.8168
 4777TIP3   OH235821   3.879   5.667  16.709 -0.5859 -0.0391  0.2692
 4777TIP3    H135822   3.931   5.700  16.782 -0.3879  0.6118 -0.1546
 4777TIP3    H235823   3.916   5.580  16.690  1.0130  0.8094 -0.6613
 4778TIP3   OH235824   0.691   6.224   5.063 -0.0983  0.3792 -0.2622
 4778TIP3    H135825   0.721   6.198   5.150  0.7717  0.1205 -0.6359
 4778TIP3    H235826   0.600   6.252   5.077 -0.0304  0.1598  0.6922
 4779TIP3   OH235827   6.258   5.908  14.691 -0.1775 -0.1200 -0.2979
 4779TIP3    H135828   6.280   5.954  14.611 -0.4643  0.0587 -0.2743
 4779TIP3    H235829   6.176   5.862  14.671  1.0168 -2.0787 -0.9101
 4780TIP3   OH235830   1.260   4.129  13.347 -0.0313  0.3707 -0.3476
 4780TIP3    H135831   1.335   4.107  13.292 -0.0002 -1.9054  0.5632
 4780TIP3    H235832   1.283   4.094  13.433 -1.3479  1.2815  0.3899
 4781TIP3   OH235833   5.469   3.104   1.401  0.2492 -0.3148 -0.1259
 4781TIP3    H135834   5.430   3.102   1.313  3.2279 -0.8709 -1.5016
 4781TIP3    H235835   5.462   3.013   1.432 -1.1272 -0.0443  0.3802
 4782TIP3   OH235836   2.907   1.416  11.098  0.3504  0.3141  0.1383
 4782TIP3    H135837   2.958   1.371  11.164 -0.1806  0.9304  0.9715
 4782TIP3    H235838   2.942   1.384  11.014  0.6891 -0.8312  0.7120
 4783TIP3   OH235839   5.579   0.033   2.167 -0.3208 -0.2942  0.6771
 4783TIP3    H135840   5.581  -0.061   2.186 -0.9372 -0.1199  1.6576
 4783TIP3    H235841   5.661   0.050   2.121 -1.2679 -1.7453 -1.6478
 4784TIP3   OH235842   2.097   4.137   3.458  0.5719 -0.2642  0.3407
 4784TIP3    H135843   2.031   4.079   3.420  1.1748 -2.8997  3.1358
 4784TIP3    H235844   2.055   4.174   3.536  0.8732  1.6027 -0.3588
 4785TIP3   OH235845   5.003   3.574  16.451 -0.2156  0.4813  0.3840
 4785TIP3    H135846   5.023   3.520  16.375  1.2120 -0.2301  1.2617
 4785TIP3    H235847   5.052   3.655  16.436  0.8062 -0.0204  0.9901
 4786TIP3   OH235848   2.972   5.579   3.816  0.3285 -0.3707 -0.5669
 4786TIP3    H135849   2.961   5.526   3.737 -0.3493 -1.4950  0.2560
 4786TIP3    H235850   2.886   5.619   3.830  0.5852  0.2114 -0.6793
 4787TIP3   OH235851   5.870   2.663   0.753 -0.0108 -0.3325  0.1944
 4787TIP3    H135852   5.889   2.602   0.682  0.1059  1.5951 -1.4666
 4787TIP3    H235853   5.802   2.720   0.718 -0.1536  0.4739  1.7402
 4788TIP3   OH235854   1.322   1.566  15.479  0.1237 -0.7066 -0.6282
 4788TIP3    H135855   1.316   1.534  15.569  1.4382  0.9919  0.0954
 4788TIP3    H235856   1.414   1.589  15.467 -0.5967  2.0403 -1.3389
 4789TIP3   OH235857   2.656   0.093   0.552  0.1260  0.1283  0.0187
 4789TIP3    H135858   2.617   0.156   0.613  1.0139 -1.3909  2.1845
 4789TIP3    H235859   2.587   0.028   0.538  0.2648 -0.0515  0.1747
 4790TIP3   OH235860   2.108   5.627   2.342 -0.0757 -0.1058  0.0608
 4790TIP3    H135861   2.061   5.572   2.405  0.0794 -2.1524 -1.5613
 4790TIP3    H235862   2.087   5.590   2.257  1.0983  1.5692 -0.9998
 4791TIP3   OH235863   3.952   0.539   2.753 -0.0265 -0.4329 -0.5216
 4791TIP3    H135864   3.983   0.577   2.835  0.8154 -0.4259 -0.8414
 4791TIP3    H235865   4.027   0.546   2.693 -0.4340 -0.9954 -1.1026
 4792TIP3   OH235866   4.372   4.640   6.240 -0.5411 -0.3996 -0.1180
 4792TIP3    H135867   4.302   4.577   6.223 -0.0564 -1.0042  0.1264
 4792TIP3    H235868   4.452   4.594   6.215 -0.0823 -0.2808  1.0960
 4793TIP3   OH235869   6.767   0.410  15.992  0.2388 -0.4796 -0.0517
 4793TIP3    H135870   6.760   0.467  15.915 -0.6454 -0.7935 -0.2043
 4793TIP3    H235871   6.831   0.454  16.048 -0.2343  0.5257 -0.2848
 4794TIP3   OH235872   6.799   1.653   1.604 -0.3704  0.1882  0.1647
 4794TIP3    H135873   6.858   1.586   1.571  0.0695  0.5198  0.2693
 4794TIP3    H235874   6.830   1.671   1.693 -0.2368  0.8118 -0.0025
 4795TIP3   OH235875   3.261   5.799  11.702 -0.0212 -0.0472  0.0164
 4795TIP3    H135876   3.173   5.835  11.709  0.6236  1.0519  2.7966
 4795TIP3    H235877   3.310   5.865  11.653 -0.7054 -0.6530 -1.5217
 4796TIP3   OH235878   2.281   1.024   2.343  0.1608 -0.1187  0.4851
 4796TIP3    H135879   2.192   0.996   2.320  0.0157  0.4840  0.2962
 4796TIP3    H235880   2.338   0.957   2.304 -0.1583  0.1117 -0.3989
 4797TIP3   OH235881   2.079   2.531   6.491  0.0254  0.6631  0.2339
 4797TIP3    H135882   2.010   2.468   6.510  1.0263  0.0179  1.8492
 4797TIP3    H235883   2.040   2.617   6.510 -1.1262  0.5133 -1.3464
 4798TIP3   OH235884   6.806   6.285   6.183  0.1411  0.1404 -0.7229
 4798TIP3    H135885   6.789   6.374   6.212 -2.1051 -0.0640 -1.2699
 4798TIP3    H235886   6.838   6.240   6.261  0.2492  1.1608 -0.1747
 4799TIP3   OH235887   4.854   0.256  15.967  0.1349  0.0861  0.1629
 4799TIP3    H135888   4.917   0.254  16.039  1.2903 -0.5688 -0.8496
 4799TIP3    H235889   4.906   0.283  15.891 -0.8934 -0.1025 -0.6141
 4800TIP3   OH235890   1.906   0.020  11.762  0.3282 -0.0617  0.4412
 4800TIP3    H135891   1.946  -0.013  11.682  0.5916  2.6758 -0.6026
 4800TIP3    H235892   1.980   0.047  11.817  0.0729  0.7372  0.4053
 4801TIP3   OH235893   3.805   4.128  11.118  0.3510 -0.1702  0.2682
 4801TIP3    H135894   3.788   4.194  11.185  2.5016 -0.1177  0.8159
 4801TIP3    H235895   3.843   4.178  11.045  2.3524 -0.8101  0.8338
 4802TIP3   OH235896   4.262   1.049   0.662 -0.3873 -0.3581  0.2609
 4802TIP3    H135897   4.331   1.106   0.697 -0.3528  0.2831 -0.8318
 4802TIP3    H235898   4.287   0.961   0.691  0.3559 -0.0066  0.7088
 4803TIP3   OH235899   6.557   2.526  16.645  0.5929 -0.6940 -0.1969
 4803TIP3    H135900   6.483   2.469  16.626 -0.4930  0.9854 -1.1987
 4803TIP3    H235901   6.592   2.550  16.559  0.7699  0.4524  0.1874
 4804TIP3   OH235902   1.328   1.709  16.255 -0.2370 -0.4490 -0.6284
 4804TIP3    H135903   1.332   1.618  16.225 -0.5351 -0.9607  0.8451
 4804TIP3    H235904   1.240   1.719  16.291 -0.3148  0.5216 -1.0633
 4805TIP3   OH235905   1.509   2.087   3.039  0.7587  0.0226 -0.1843
 4805TIP3    H135906   1.592   2.041   3.026  1.6524  0.8288  2.5460
 4805TIP3    H235907   1.473   2.050   3.119 -3.1860 -2.6664 -2.9872
 4806TIP3   OH235908   1.496   6.212   6.058  0.1249 -0.0781  0.7738
 4806TIP3    H135909   1.558   6.283   6.043 -1.1751  1.1034  0.8765
 4806TIP3    H235910   1.502   6.194   6.152 -1.3110  1.6102  1.2226
 4807TIP3   OH235911   0.286   2.003  13.275 -0.2517 -0.5383  0.1808
 4807TIP3    H135912   0.254   2.061  13.205 -0.9709 -1.3830 -0.1976
 4807TIP3    H235913   0.303   2.062  13.349 -3.5476 -0.1199  0.6938
 4808TIP3   OH235914   6.573   4.086   4.207  1.0819 -0.5194 -0.5456
 4808TIP3    H135915   6.483   4.071   4.234 -0.1580  2.6676 -2.5984
 4808TIP3    H235916   6.586   4.029   4.132 -0.1215  0.9300 -1.8746
 4809TIP3   OH235917   2.126   0.497   4.178  0.6161  0.5362 -0.9629
 4809TIP3    H135918   2.194   0.537   4.124  2.4493 -1.0739  0.0994
 4809TIP3    H235919   2.079   0.438   4.119  0.5576  1.1307 -1.5230
 4810TIP3   OH235920   6.616   2.714   4.748 -0.4456  0.2614  0.4358
 4810TIP3    H135921   6.634   2.800   4.710  0.4361  0.2022  0.7244
 4810TIP3    H235922   6.592   2.732   4.839 -2.3728  0.3862 -0.0746
 4811TIP3   OH235923   3.868   2.814   1.768 -0.0071  0.6692 -0.5650
 4811TIP3    H135924   3.826   2.831   1.684 -2.2408 -1.1098  0.1559
 4811TIP3    H235925   3.827   2.876   1.828 -1.0300 -0.5127 -0.0324
 4812TIP3   OH235926   1.411   5.189  14.415  0.2541 -0.0945 -0.6987
 4812TIP3    H135927   1.327   5.233  14.402  1.0424  1.7254  0.1550
 4812TIP3    H235928   1.473   5.241  14.364  0.9664 -1.0968 -0.8701
 4813TIP3   OH235929   2.958   2.800   3.753 -0.1271  0.2099 -0.1105
 4813TIP3    H135930   2.969   2.761   3.839  1.9555  1.1584  0.0732
 4813TIP3    H235931   2.886   2.751   3.713 -0.3318 -0.9926  1.7142
 4814TIP3   OH235932   4.054   5.511   0.841 -0.2514  0.1688  0.1188
 4814TIP3    H135933   4.135   5.528   0.792  0.2216 -1.4192  0.3142
 4814TIP3    H235934   4.083   5.503   0.932 -0.4866 -1.2570  0.0847
 4815TIP3   OH235935   1.422   0.502  15.542 -0.9661 -0.4157 -0.4227
 4815TIP3    H135936   1.473   0.439  15.593 -3.3593 -2.1570 -0.0980
 4815TIP3    H235937   1.363   0.448  15.489 -1.4995  1.5014 -1.8587
 4816TIP3   OH235938   2.934   1.924   3.767 -0.0251  0.3745  0.3123
 4816TIP3    H135939   2.887   1.903   3.848  2.0919 -0.2713  1.4423
 4816TIP3    H235940   2.878   1.986   3.721 -1.0989  1.0362  2.4579
 4817TIP3   OH235941   2.180   2.003  17.013  0.2456 -0.1950  0.4864
 4817TIP3    H135942   2.234   2.053  17.074 -0.5332  0.3508  0.7299
 4817TIP3    H235943   2.213   2.026  16.926  0.2259  0.3412  0.6210
 4818TIP3   OH235944   1.189   2.921  13.320 -0.4753 -0.2366  0.0858
 4818TIP3    H135945   1.240   2.894  13.396 -0.7223 -0.6022  0.1216
 4818TIP3    H235946   1.177   2.842  13.269  0.1452  0.1148 -0.6092
 4819TIP3   OH235947   0.018   2.547  14.064 -0.1353 -0.2098 -0.3787
 4819TIP3    H135948   0.086   2.499  14.110 -3.1882 -0.5863  4.0483
 4819TIP3    H235949   0.032   2.638  14.089 -1.2107 -0.2996  0.6274
 4820TIP3   OH235950   1.882   3.691  13.198 -0.8043 -0.4600 -0.0275
 4820TIP3    H135951   1.914   3.601  13.194 -0.2174 -0.2420 -0.1829
 4820TIP3    H235952   1.799   3.684  13.246 -1.4705 -1.2727 -1.2746
 4821TIP3   OH235953   2.812   6.098   5.368  0.7168 -0.3620 -0.1294
 4821TIP3    H135954   2.847   6.113   5.280  0.6173  0.3936 -0.0405
 4821TIP3    H235955   2.733   6.152   5.372  0.0370 -1.3559 -0.0074
 4822TIP3   OH235956   6.698   1.870   0.720 -0.0192  0.0112 -0.1627
 4822TIP3    H135957   6.638   1.806   0.682  2.0120 -1.5483 -0.8047
 4822TIP3    H235958   6.714   1.839   0.809  0.9418 -0.3643 -0.4642
 4823TIP3   OH235959   2.317   2.488   5.682 -0.1374  0.3586  0.6354
 4823TIP3    H135960   2.379   2.556   5.708 -0.3951 -0.1508  2.6334
 4823TIP3    H235961   2.233   2.517   5.719 -0.4557 -0.5262  0.6025
 4824TIP3   OH235962   6.163   0.518   1.394  0.0729  0.3714  0.3037
 4824TIP3    H135963   6.175   0.425   1.373 -1.0053  0.2667  0.1519
 4824TIP3    H235964   6.232   0.562   1.343  1.8678 -0.4952  1.8976
 4825TIP3   OH235965   0.183   4.221  11.568 -0.0927  0.1886 -0.0200
 4825TIP3    H135966   0.199   4.186  11.480 -1.6334 -1.5884  0.3634
 4825TIP3    H235967   0.151   4.310  11.553 -1.5985 -0.5511 -1.3411
 4826TIP3   OH235968   0.575   5.676  11.448  0.8782  0.3845 -0.0387
 4826TIP3    H135969   0.559   5.582  11.449  0.8728  0.3829  1.7759
 4826TIP3    H235970   0.660   5.687  11.489  0.3566  1.2376  0.8517
 4827TIP3   OH235971   4.959   3.121  16.142  0.7446 -0.2899 -0.3940
 4827TIP3    H135972   4.932   3.174  16.217  1.7228  1.3890 -1.2090
 4827TIP3    H235973   4.876   3.097  16.099  0.3042  0.9941 -0.2924
 4828TIP3   OH235974   2.389   2.489   1.497 -0.2993 -0.2564 -0.2246
 4828TIP3    H135975   2.408   2.419   1.560  0.1295  0.5278  0.5188
 4828TIP3    H235976   2.467   2.494   1.443 -0.3682 -0.4168 -0.3393
 4829TIP3   OH235977   3.062   4.693  11.512  0.4875  0.5630  0.1728
 4829TIP3    H135978   3.074   4.623  11.576 -1.7019  0.7441  0.8347
 4829TIP3    H235979   3.093   4.657  11.429 -0.8566 -1.2967  0.4533
 4830TIP3   OH235980   3.874   4.507  13.925 -0.1796 -0.0523 -0.2483
 4830TIP3    H135981   3.821   4.427  13.917 -0.3627  0.0174  0.2852
 4830TIP3    H235982   3.948   4.492  13.865  0.3552 -1.0868  0.6318
 4831TIP3   OH235983   5.310   6.486  13.656  0.2923  0.1156 -0.3097
 4831TIP3    H135984   5.371   6.426  13.613  1.5278  1.4491 -0.4469
 4831TIP3    H235985   5.293   6.446  13.741  0.8690 -0.5720 -0.5161
 4832TIP3   OH235986   3.521   5.645  15.073  0.5441  0.2285 -0.1224
 4832TIP3    H135987   3.539   5.639  14.980 -3.5341 -0.8292 -0.9259
 4832TIP3    H235988   3.520   5.554  15.104 -2.9448  0.1995 -0.1313
 4833TIP3   OH235989   0.465   1.611   0.358 -0.0747 -0.6390 -0.7980
 4833TIP3    H135990   0.432   1.578   0.441 -2.1695  0.9921 -0.9415
 4833TIP3    H235991   0.558   1.589   0.359 -0.0270 -0.5098  2.0299
 4834TIP3   OH235992   6.002   4.111  16.397 -0.8146 -0.1231  0.1349
 4834TIP3    H135993   5.991   4.116  16.492  0.4226 -0.2229  0.2918
 4834TIP3    H235994   6.041   4.194  16.373 -2.3487  0.4416 -0.4831
 4835TIP3   OH235995   5.689   2.359   5.273  0.0339 -0.5400  0.3544
 4835TIP3    H135996   5.594   2.356   5.277 -0.0402  1.0630  0.2008
 4835TIP3    H235997   5.719   2.328   5.358 -0.6674  0.6726  1.0443
 4836TIP3   OH235998   0.996   3.578  15.695  0.1486 -0.0636  0.3865
 4836TIP3    H135999   1.010   3.601  15.604  1.5077  0.0242  0.5997
 4836TIP3    H236000   1.070   3.616  15.741 -1.3015  1.1571  1.7538
 4837TIP3   OH236001   4.842   3.975   3.901 -0.2080 -0.1563  0.2895
 4837TIP3    H136002   4.778   4.025   3.952 -1.4294  0.7110 -2.0181
 4837TIP3    H236003   4.879   4.038   3.839 -0.6690 -1.7134 -1.6336
 4838TIP3   OH236004   5.437   4.054   3.943  0.2582  0.2837 -0.5367
 4838TIP3    H136005   5.406   4.103   4.019 -0.5555  0.2780 -0.8580
 4838TIP3    H236006   5.523   4.092   3.923  0.4400  0.3390  0.3265
 4839TIP3   OH236007   0.532   4.871  13.202  0.7243  0.2423 -0.0988
 4839TIP3    H136008   0.509   4.964  13.195 -0.8625 -0.0741  0.6961
 4839TIP3    H236009   0.449   4.827  13.224  1.3183 -1.4521 -1.1461
 4840TIP3   OH236010   3.154   3.679  11.293  0.0023 -0.3204 -0.2607
 4840TIP3    H136011   3.233   3.650  11.248 -0.4600 -0.8503 -0.7333
 4840TIP3    H236012   3.172   3.664  11.386  0.7095  0.1857 -0.3143
 4841TIP3   OH236013   4.582   1.447   4.100 -0.0305 -0.0990 -0.0211
 4841TIP3    H136014   4.600   1.524   4.154 -1.3919 -0.7698  1.4192
 4841TIP3    H236015   4.512   1.475   4.041  1.0359  0.4470 -1.0400
 4842TIP3   OH236016   5.981   3.350   6.160 -0.2089 -0.0654  0.1926
 4842TIP3    H136017   5.959   3.312   6.075  0.5443 -1.6881  0.7111
 4842TIP3    H236018   5.897   3.378   6.196 -0.4794  1.1994 -1.3194
 4843TIP3   OH236019   1.124   1.171  17.291 -0.2425 -0.0597 -0.1198
 4843TIP3    H136020   1.085   1.213  17.367 -1.5938  0.4809 -1.0799
 4843TIP3    H236021   1.054   1.115  17.256 -0.2984  1.1443 -2.0432
 4844TIP3   OH236022   1.122   0.056  15.595 -0.2363 -0.0523 -0.5449
 4844TIP3    H136023   1.131   0.007  15.676 -0.3949 -0.8301 -0.9978
 4844TIP3    H236024   1.045   0.019  15.552 -0.0237  0.2060 -1.1607
 4845TIP3   OH236025   4.304   6.446   1.504  0.0449 -0.0464 -0.9232
 4845TIP3    H136026   4.311   6.542   1.508 -0.9082  0.0056 -0.2658
 4845TIP3    H236027   4.233   6.430   1.441 -2.0284 -0.2154  1.3850
 4846TIP3   OH236028   5.393   3.033  12.324  0.2459 -0.3849  0.1281
 4846TIP3    H136029   5.345   3.098  12.375  0.6982  0.7477 -0.8792
 4846TIP3    H236030   5.353   2.949  12.348 -2.1848  0.5311 -0.6509
 4847TIP3   OH236031   6.690   1.487   6.455 -0.4275  0.2547  0.3675
 4847TIP3    H136032   6.622   1.425   6.429 -1.9174  1.5119  1.1349
 4847TIP3    H236033   6.641   1.560   6.494  1.3836  1.0969  1.1024
 4848TIP3   OH236034   0.538   3.222  11.468 -0.6481  0.0619 -0.2191
 4848TIP3    H136035   0.623   3.178  11.458 -0.0925  0.0940  3.6879
 4848TIP3    H236036   0.474   3.159  11.435  0.4153 -2.5671  2.5347
 4849TIP3   OH236037   6.529   2.371  17.158  0.8329  0.2440 -0.3682
 4849TIP3    H136038   6.442   2.404  17.135  1.5137  0.7943 -2.1760
 4849TIP3    H236039   6.583   2.450  17.167  1.0654 -0.0668  1.2214
 4850TIP3   OH236040   6.396   3.103  15.366 -0.7142  0.2928  0.6308
 4850TIP3    H136041   6.306   3.110  15.334 -0.4676 -0.8294 -0.3331
 4850TIP3    H236042   6.391   3.043  15.440 -0.2272 -2.8634 -1.7643
 4851TIP3   OH236043   1.749   3.299  11.456 -0.2872 -0.3896 -0.1121
 4851TIP3    H136044   1.662   3.339  11.454 -0.2129 -0.1394  1.0678
 4851TIP3    H236045   1.732   3.206  11.471 -0.3840 -0.4919 -0.8464
 4852TIP3   OH236046   6.131   1.700  13.844  0.3166  0.4620  0.3884
 4852TIP3    H136047   6.137   1.724  13.751  0.1211  0.7575  0.4539
 4852TIP3    H236048   6.212   1.733  13.882 -0.3948  1.8950  0.6763
 4853TIP3   OH236049   5.944   1.890   3.103  0.3011 -0.4200 -0.1367
 4853TIP3    H136050   6.006   1.938   3.049 -0.1999 -0.4224 -0.7231
 4853TIP3    H236051   5.995   1.817   3.139  0.9507  0.2928  0.4043
 4854TIP3   OH236052   0.619   5.158   6.633  0.1207 -0.2565 -0.3147
 4854TIP3    H136053   0.638   5.249   6.610  0.6111 -0.9274 -2.6587
 4854TIP3    H236054   0.532   5.142   6.595 -0.6606 -0.3027  1.4596
 4855TIP3   OH236055   1.369   5.989   3.562 -0.4198  0.3269  0.0213
 4855TIP3    H136056   1.391   6.079   3.584 -1.2273  0.6210 -0.3688
 4855TIP3    H236057   1.282   5.994   3.522 -0.6861 -0.6850  0.4663
 4856TIP3   OH236058   4.280   4.143   1.743 -0.4876  0.2359 -0.4637
 4856TIP3    H136059   4.371   4.125   1.718 -0.5980  0.4142 -0.9897
 4856TIP3    H236060   4.252   4.064   1.791 -0.2175 -0.0233 -0.7314
 4857TIP3   OH236061   1.862   0.460  15.076  0.2136 -0.7529  0.0934
 4857TIP3    H136062   1.930   0.516  15.113  0.2918 -1.5688  1.2080
 4857TIP3    H236063   1.909   0.406  15.012  0.1575  0.3711 -0.9005
 4858TIP3   OH236064   1.811   6.484  12.390  0.6652  0.1172 -0.2387
 4858TIP3    H136065   1.788   6.526  12.473 -1.0908 -2.4877  0.6623
 4858TIP3    H236066   1.772   6.539  12.323 -0.8688  0.3769  0.8462
 4859TIP3   OH236067   0.216   0.751   5.720 -0.0515 -0.0573 -0.3089
 4859TIP3    H136068   0.136   0.707   5.748 -0.7840  0.9404 -0.8212
 4859TIP3    H236069   0.237   0.810   5.793  0.8351 -1.1135  0.3036
 4860TIP3   OH236070   1.637   3.906  16.885 -0.0979 -0.1245 -0.5922
 4860TIP3    H136071   1.648   3.846  16.959 -0.2857  0.0520 -0.4201
 4860TIP3    H236072   1.612   3.989  16.925  0.7700  0.2376 -0.7931
 4861TIP3   OH236073   5.798   5.727   0.253  0.5935 -0.2451  0.1431
 4861TIP3    H136074   5.796   5.756   0.162  2.8273  0.6153  0.3390
 4861TIP3    H236075   5.713   5.685   0.267 -0.2974  0.8113 -1.9336
 4862TIP3   OH236076   3.871   3.598  11.483  0.6523 -0.1203 -0.5737
 4862TIP3    H136077   3.884   3.586  11.577  0.9577  0.6314 -0.5159
 4862TIP3    H236078   3.806   3.532  11.459 -1.3400  1.3352  0.6598
 4863TIP3   OH236079   3.137   2.803   3.531  0.3008 -0.0127 -0.0012
 4863TIP3    H136080   3.105   2.746   3.462 -3.1225 -1.2777  2.4656
 4863TIP3    H236081   3.064   2.809   3.593  1.8917  4.0488  1.6964
 4864TIP3   OH236082   4.356   0.968   1.817 -0.1605  0.3545 -0.1530
 4864TIP3    H136083   4.408   1.030   1.765  0.0777  0.1722 -0.1295
 4864TIP3    H236084   4.306   0.919   1.752  0.6905 -0.3813 -0.2581
 4865TIP3   OH236085   6.029   3.669   3.412 -1.0125 -0.5619  0.5150
 4865TIP3    H136086   6.015   3.616   3.333  0.0365 -0.4543  0.2502
 4865TIP3    H236087   5.995   3.755   3.388 -0.4009 -0.4405  0.0546
 4866TIP3   OH236088   6.640   3.015  15.259  0.1970  0.2059 -0.2102
 4866TIP3    H136089   6.572   3.048  15.318 -1.0878  1.1472 -2.1799
 4866TIP3    H236090   6.714   3.073  15.274 -0.4713  1.0792 -0.2652
 4867TIP3   OH236091   0.586   5.589   3.116 -0.3390 -0.6036  0.1833
 4867TIP3    H136092   0.505   5.635   3.094  0.2577  0.2124 -0.3426
 4867TIP3    H236093   0.656   5.652   3.097  0.3916 -1.0900  1.1938
 4868TIP3   OH236094   1.494   2.051   4.049  0.2804  0.0289 -0.2375
 4868TIP3    H136095   1.525   2.007   3.969 -1.5287  0.9995 -1.5062
 4868TIP3    H236096   1.534   2.138   4.045 -1.8516  0.9879 -1.4466
 4869TIP3   OH236097   5.196   5.208  16.698  0.2005  0.2211 -0.3328
 4869TIP3    H136098   5.258   5.139  16.722  0.4623  0.1971 -1.0752
 4869TIP3    H236099   5.248   5.272  16.650 -0.1004  0.8073  0.1111
 4870TIP3   OH236100   0.644   4.431   1.887 -0.5974 -0.1891  0.0850
 4870TIP3    H136101   0.617   4.405   1.976 -1.9291  0.5899 -0.0740
 4870TIP3    H236102   0.570   4.483   1.854  0.5535  0.8536 -0.8925
 4871TIP3   OH236103   2.285   3.170   5.376 -0.2682  0.9091  0.1307
 4871TIP3    H136104   2.378   3.159   5.398 -0.7427 -1.1149  1.3208
 4871TIP3    H236105   2.239   3.144   5.456 -1.8777  1.4680 -0.5938
 4872TIP3   OH236106   2.539   4.239  13.112  0.2436 -0.7089  0.4582
 4872TIP3    H136107   2.454   4.235  13.156 -0.4050  1.3387 -0.5437
 4872TIP3    H236108   2.523   4.291  13.034  2.1976 -1.2282 -0.3132
 4873TIP3   OH236109   6.257   1.523  15.216 -1.0553  0.3013  0.1821
 4873TIP3    H136110   6.205   1.466  15.272  0.1983 -1.0869 -0.0249
 4873TIP3    H236111   6.221   1.510  15.128  0.6162 -1.9128 -0.2346
 4874TIP3   OH236112   1.796   1.933  11.430 -0.3225  0.1321  0.1018
 4874TIP3    H136113   1.862   1.966  11.492 -0.7872 -0.4070  0.9004
 4874TIP3    H236114   1.843   1.868  11.378 -0.3974 -0.8476  1.2137
 4875TIP3   OH236115   1.994   6.755  14.382  0.2511 -0.9192 -0.4655
 4875TIP3    H136116   2.033   6.764  14.296 -0.7558  0.6051 -0.7809
 4875TIP3    H236117   1.971   6.662  14.389  1.1064 -1.2122 -1.4896
 4876TIP3   OH236118   6.073   0.021   2.445  0.5603  0.6101 -0.4014
 4876TIP3    H136119   6.109   0.105   2.475  0.2742  0.4688  0.3361
 4876TIP3    H236120   6.135  -0.010   2.379  2.1443  0.0392  1.3292
 4877TIP3   OH236121   4.063   3.257  13.047  0.2127 -0.8536 -0.2033
 4877TIP3    H136122   4.042   3.190  12.982  0.3749 -1.5104  0.4266
 4877TIP3    H236123   3.985   3.264  13.101  0.0931 -0.3313 -0.4299
 4878TIP3   OH236124   0.071   1.847   3.742  0.3420 -0.3479 -0.0090
 4878TIP3    H136125   0.031   1.763   3.764  0.7693 -0.4135  0.5296
 4878TIP3    H236126   0.164   1.828   3.731  0.3262 -0.0818 -0.6252
 4879TIP3   OH236127   1.960   6.226   1.986 -0.4886  0.1027  0.0723
 4879TIP3    H136128   1.921   6.160   1.928  0.4589 -2.4398  2.1918
 4879TIP3    H236129   1.917   6.212   2.070  1.1032  0.8892  1.0434
 4880TIP3   OH236130   4.266   1.440  13.540  0.0420  0.6469 -0.4314
 4880TIP3    H136131   4.283   1.534  13.547 -0.4292  0.8545 -1.8188
 4880TIP3    H236132   4.170   1.434  13.534 -0.1703 -0.1529  2.5765
 4881TIP3   OH236133   0.742   5.911  15.791 -0.2943  0.2008  0.2168
 4881TIP3    H136134   0.830   5.938  15.763 -0.3171  0.2373  0.1797
 4881TIP3    H236135   0.721   5.837  15.734 -1.0294  1.3350 -0.9931
 4882TIP3   OH236136   6.289   5.350  16.526  0.3399  0.0072  0.3767
 4882TIP3    H136137   6.217   5.394  16.481  0.6228 -0.3570 -0.4561
 4882TIP3    H236138   6.341   5.422  16.563  0.9295  0.4077 -1.1808
 4883TIP3   OH236139   5.755   4.985  12.394 -0.1785 -0.0922  0.3213
 4883TIP3    H136140   5.797   4.912  12.350 -0.7313  0.4939 -1.1824
 4883TIP3    H236141   5.680   4.946  12.440 -0.8385 -0.3729 -0.9854
 4884TIP3   OH236142   3.964   0.791  14.541 -0.1978  0.0490 -0.1001
 4884TIP3    H136143   3.943   0.870  14.592 -0.3944 -0.1468  0.1223
 4884TIP3    H236144   4.058   0.798  14.525 -0.2476  0.4237 -0.2408
 4885TIP3   OH236145   1.289   4.692  13.599 -0.6757  0.1220 -1.2689
 4885TIP3    H136146   1.237   4.687  13.680 -0.2815 -1.1097 -1.0855
 4885TIP3    H236147   1.307   4.785  13.589 -1.6275  0.4100 -0.5082
 4886TIP3   OH236148   2.280   3.060  10.789 -0.0803 -0.2005 -0.1720
 4886TIP3    H136149   2.242   3.052  10.877 -2.5400  0.6283 -1.1088
 4886TIP3    H236150   2.289   3.154  10.776  1.2359 -0.3586 -0.4312
 4887TIP3   OH236151   4.757   5.281   1.340 -0.2819  0.9908 -0.1045
 4887TIP3    H136152   4.757   5.186   1.349 -1.1301  1.0048  0.1189
 4887TIP3    H236153   4.812   5.299   1.265  0.5685  0.3681  0.3689
 4888TIP3   OH236154   4.679   3.412   6.111  0.3406  0.6537  0.0954
 4888TIP3    H136155   4.625   3.358   6.168  0.2366  1.1026  0.4148
 4888TIP3    H236156   4.644   3.500   6.119 -0.0409  0.6210 -1.0983
 4889TIP3   OH236157   2.863   2.821  11.720  0.1605  0.0865 -0.2952
 4889TIP3    H136158   2.864   2.740  11.771  0.5111 -1.6592 -2.9151
 4889TIP3    H236159   2.771   2.833  11.696  0.4672 -1.1722 -2.2673
 4890TIP3   OH236160   3.167   5.382   3.163  0.1320  0.1692 -0.6407
 4890TIP3    H136161   3.230   5.372   3.092  0.8123 -0.1489 -0.0097
 4890TIP3    H236162   3.082   5.373   3.121  0.5464 -0.8359 -1.2868
 4891TIP3   OH236163   5.344   5.375  12.919  0.2524  0.0182  0.8530
 4891TIP3    H136164   5.392   5.304  12.876 -1.6799 -0.3989 -0.6654
 4891TIP3    H236165   5.282   5.330  12.976  0.3917  0.5283  1.4082
 4892TIP3   OH236166   4.186   2.444  12.992 -0.0158  0.0466 -0.3939
 4892TIP3    H136167   4.252   2.397  13.042 -0.9945  0.3078  1.1626
 4892TIP3    H236168   4.232   2.519  12.956  0.5238  0.2574  0.7272
 4893TIP3   OH236169   0.464   1.229   3.883  0.2609  0.4433  0.3153
 4893TIP3    H136170   0.433   1.232   3.974 -1.3809  1.5470 -0.2557
 4893TIP3    H236171   0.510   1.146   3.876 -0.7024 -0.2359  1.8245
 4894TIP3   OH236172   0.154   1.742   3.237 -0.3529  0.1663 -0.1611
 4894TIP3    H136173   0.219   1.787   3.291 -0.3763 -0.7866  0.6563
 4894TIP3    H236174   0.154   1.652   3.269 -0.3896 -0.3988 -1.7264
 4895TIP3   OH236175   0.673   6.410  15.475  0.6185  0.1071  0.0676
 4895TIP3    H136176   0.720   6.453  15.403  1.4861  0.5587  0.8926
 4895TIP3    H236177   0.736   6.347  15.510  0.8000  1.0252  1.4685
 4896TIP3   OH236178   4.301   5.483  11.894  0.1841 -0.2941 -0.0738
 4896TIP3    H136179   4.274   5.556  11.838  0.5631  0.0240  0.1616
 4896TIP3    H236180   4.382   5.451  11.853  0.1174 -0.4688 -0.0716
 4897TIP3   OH236181   1.145   5.949  13.010  0.0251 -0.3129 -0.3655
 4897TIP3    H136182   1.212   5.931  12.944 -0.5735  1.3666 -1.4617
 4897TIP3    H236183   1.185   6.017  13.065 -0.6372  0.4345 -0.8071
 4898TIP3   OH236184   1.288   1.854   5.474  0.2226  0.0367 -0.3539
 4898TIP3    H136185   1.263   1.769   5.436  0.5437 -1.0244  1.7219
 4898TIP3    H236186   1.262   1.847   5.566  1.6648  1.6018  0.1946
 4899TIP3   OH236187   2.664   6.252   6.432  0.2261  0.1425  0.0660
 4899TIP3    H136188   2.652   6.211   6.517  0.8919 -0.1018  0.0503
 4899TIP3    H236189   2.621   6.337   6.439 -2.2824 -1.0739 -0.3271
 4900TIP3   OH236190   5.830   1.758   0.411  0.0363  0.2744 -0.2670
 4900TIP3    H136191   5.770   1.691   0.443 -0.2092  1.3271  1.5239
 4900TIP3    H236192   5.775   1.821   0.365 -0.2253  1.1740  1.2660
 4901TIP3   OH236193   3.380   4.142   0.171  0.2516 -0.1597 -0.3193
 4901TIP3    H136194   3.473   4.129   0.152  0.4046 -1.6064  1.2696
 4901TIP3    H236195   3.376   4.229   0.212  1.0112 -0.3628  0.2032
 4902TIP3   OH236196   4.817   2.455   3.149  0.2544  0.5824  0.0243
 4902TIP3    H136197   4.778   2.426   3.067  0.5255  0.3766 -0.0324
 4902TIP3    H236198   4.766   2.410   3.217 -0.4471  1.3274 -0.0049
 4903TIP3   OH236199   4.370   6.145   3.303  0.7680  0.0060  0.1948
 4903TIP3    H136200   4.427   6.094   3.361  0.9915 -2.1643 -1.8668
 4903TIP3    H236201   4.293   6.090   3.292 -0.3869  1.5489  0.4631
 4904TIP3   OH236202   4.602   0.456   3.023  0.5645 -0.2103 -0.3886
 4904TIP3    H136203   4.619   0.408   2.942 -1.0227 -0.1234 -0.7930
 4904TIP3    H236204   4.529   0.408   3.064  0.5920  0.4236  0.4156
 4905TIP3   OH236205   6.272   6.820   6.815  0.0747  0.0692 -0.3774
 4905TIP3    H136206   6.198   6.880   6.805  1.1303  1.8307  1.8453
 4905TIP3    H236207   6.235   6.733   6.802 -2.2711  0.9595  0.1707
 4906TIP3   OH236208   4.528   1.601   3.233  0.0923 -0.4025 -0.4533
 4906TIP3    H136209   4.535   1.560   3.319 -2.1124  1.8287  0.8523
 4906TIP3    H236210   4.581   1.681   3.240 -1.4355  0.6467 -0.5825
 4907TIP3   OH236211   6.186   1.983  14.195  0.2011  0.6534  0.0470
 4907TIP3    H136212   6.120   2.046  14.166 -0.1901  0.9239  1.4521
 4907TIP3    H236213   6.235   1.961  14.116 -0.2861  1.9803 -0.6444
 4908TIP3   OH236214   0.810   0.229  15.031 -0.0866  0.4767  0.2132
 4908TIP3    H136215   0.797   0.306  14.974 -2.6707  0.6063  0.9332
 4908TIP3    H236216   0.835   0.266  15.116 -0.4146  0.4744  0.3108
 4909TIP3   OH236217   6.066   2.280   0.313  0.4252  0.1541 -0.0091
 4909TIP3    H136218   5.979   2.253   0.286  1.3791 -1.1285 -1.8460
 4909TIP3    H236219   6.077   2.368   0.276  0.0524  0.1849 -0.0447
 4910TIP3   OH236220   1.300   0.286  11.033  0.0356 -0.0319  0.4161
 4910TIP3    H136221   1.298   0.264  11.126 -1.8811 -0.2481  0.3378
 4910TIP3    H236222   1.315   0.203  10.989 -1.3828 -0.2865  0.4134
 4911TIP3   OH236223   0.525   5.532  15.480  0.0083 -0.0416  0.1496
 4911TIP3    H136224   0.531   5.474  15.405 -1.6024  0.3245 -0.2781
 4911TIP3    H236225   0.444   5.507  15.524 -0.2455  1.2829  0.4586
 4912TIP3   OH236226   3.784   2.442  16.231  0.4046  0.3671  0.3780
 4912TIP3    H136227   3.806   2.353  16.203  1.4219  0.4128  0.9882
 4912TIP3    H236228   3.857   2.496  16.200  0.8857  0.6237  1.8857
 4913TIP3   OH236229   5.854   5.973  10.777  0.1330  0.0014 -0.0767
 4913TIP3    H136230   5.932   5.976  10.832  0.2833 -1.5194 -0.1763
 4913TIP3    H236231   5.822   6.063  10.775  1.1845  0.4100  0.9694
 4914TIP3   OH236232   3.990   0.443  12.297 -0.7811 -0.5861 -0.1679
 4914TIP3    H136233   3.922   0.406  12.353 -0.9709  0.0734  0.0429
 4914TIP3    H236234   4.052   0.482  12.358 -0.3587 -0.9459 -0.3710
 4915TIP3   OH236235   0.712   0.479   3.014  0.6323 -0.6745  0.3623
 4915TIP3    H136236   0.754   0.564   2.999 -0.0241 -0.6067 -1.2208
 4915TIP3    H236237   0.785   0.416   3.011  1.0821 -0.2018  1.2492
 4916TIP3   OH236238   6.522   3.696  11.192  0.2946 -0.2848  0.4946
 4916TIP3    H136239   6.608   3.660  11.166 -0.3382 -0.4817 -1.4299
 4916TIP3    H236240   6.516   3.676  11.285  2.5507  0.1457  0.7785
 4917TIP3   OH236241   1.804   3.524   4.346  0.4589  0.8838  0.0581
 4917TIP3    H136242   1.792   3.612   4.310  3.0463  1.1849 -0.1186
 4917TIP3    H236243   1.828   3.470   4.271 -0.4483  0.1383  0.2855
 4918TIP3   OH236244   3.466   4.629   0.607  0.6772 -0.3961  0.4773
 4918TIP3    H136245   3.414   4.709   0.614  2.0009  0.2569  3.2004
 4918TIP3    H236246   3.403   4.562   0.581 -0.6720  1.2617 -0.6566
 4919TIP3   OH236247   3.175   5.692   3.989 -0.5419  0.3610 -0.2071
 4919TIP3    H136248   3.239   5.623   3.974  0.6628  2.0879 -3.5820
 4919TIP3    H236249   3.091   5.651   3.969 -0.0418 -0.6609 -0.2761
 4920TIP3   OH236250   0.133   2.789  11.623  0.6554  1.0673 -0.4353
 4920TIP3    H136251   0.099   2.781  11.712  0.9085  0.2481 -0.4094
 4920TIP3    H236252   0.056   2.775  11.567  0.9534 -0.8742 -0.3782
 4921TIP3   OH236253   0.152   1.455  14.154  0.0952 -0.5726 -0.7249
 4921TIP3    H136254   0.132   1.375  14.106  0.1255  0.1773 -2.0330
 4921TIP3    H236255   0.113   1.443  14.240  1.3227 -2.5684 -0.4214
 4922TIP3   OH236256   6.770   2.403   0.227 -0.1821  0.2638 -0.0821
 4922TIP3    H136257   6.839   2.428   0.166 -0.5790  0.4683 -0.4531
 4922TIP3    H236258   6.777   2.308   0.235 -2.0442 -0.1546 -2.8020
 4923TIP3   OH236259   4.100   5.536  15.683  0.0573 -0.1772  0.6584
 4923TIP3    H136260   4.063   5.468  15.738 -0.6030  0.8604  1.5109
 4923TIP3    H236261   4.162   5.490  15.627 -1.1293 -1.6425  0.5079
 4924TIP3   OH236262   4.338   1.200  15.055 -0.3978 -0.2287 -0.5787
 4924TIP3    H136263   4.258   1.253  15.063 -0.5956 -0.7048  0.8104
 4924TIP3    H236264   4.409   1.264  15.058 -0.6705  0.0558  0.1573
 4925TIP3   OH236265   5.689   0.369  11.629  0.2246 -0.0103 -0.4727
 4925TIP3    H136266   5.785   0.377  11.629  0.3322 -1.1054 -1.4247
 4925TIP3    H236267   5.672   0.295  11.688 -0.1345  1.0044  0.7286
 4926TIP3   OH236268   3.419   4.899   3.865  0.0194  0.1326  0.1090
 4926TIP3    H136269   3.388   4.826   3.812  0.8071 -1.3082  1.6069
 4926TIP3    H236270   3.499   4.929   3.822  0.7150 -1.1049  0.5090
 4927TIP3   OH236271   2.245   1.693  15.047  0.0410  0.1105 -0.0913
 4927TIP3    H136272   2.226   1.600  15.063 -1.3017  0.2067 -0.9883
 4927TIP3    H236273   2.332   1.707  15.085  0.4149 -1.6015 -0.2718
 4928TIP3   OH236274   4.713   0.349  11.471 -0.7000  0.0072  0.1896
 4928TIP3    H136275   4.716   0.432  11.423 -2.1260  0.5477  0.9905
 4928TIP3    H236276   4.725   0.374  11.563 -0.9158 -0.6869  0.4139
 4929TIP3   OH236277   2.170   3.673   5.718  0.0873 -0.0179 -0.4111
 4929TIP3    H136278   2.187   3.602   5.656 -0.4085 -0.2865 -0.2445
 4929TIP3    H236279   2.103   3.637   5.776  0.5036  0.2598  0.2361
 4930TIP3   OH236280   1.934   2.145  17.073 -0.1466 -0.3893 -0.1115
 4930TIP3    H136281   2.008   2.085  17.067 -1.4018 -1.9739 -0.3280
 4930TIP3    H236282   1.862   2.090  17.105 -1.2133  1.1108  0.0933
 4931TIP3   OH236283   2.652   6.449   4.486 -0.2745  0.0408  0.0752
 4931TIP3    H136284   2.732   6.452   4.540 -1.2959  0.1827  1.6100
 4931TIP3    H236285   2.617   6.361   4.499 -0.7338  0.2037 -0.0528
 4932TIP3   OH236286   5.813   4.687  16.224  0.1763 -0.6007  0.0252
 4932TIP3    H136287   5.784   4.639  16.146  1.9134  0.0265 -1.0339
 4932TIP3    H236288   5.909   4.686  16.219  0.3256 -0.7380  2.2833
 4933TIP3   OH236289   6.450   4.557   5.391 -0.4390 -0.2423 -0.2215
 4933TIP3    H136290   6.527   4.505   5.416 -0.9639 -1.6504 -1.4680
 4933TIP3    H236291   6.394   4.496   5.343 -1.7209  1.1283 -0.5116
 4934TIP3   OH236292   5.701   6.020  17.220 -0.4409  0.5964  0.3225
 4934TIP3    H136293   5.755   5.990  17.293  1.2944 -0.6622 -1.4155
 4934TIP3    H236294   5.763   6.036  17.149 -2.0321  2.3258 -0.7303
 4935TIP3   OH236295   4.576   0.449  12.990  0.1261 -0.3747 -0.3400
 4935TIP3    H136296   4.618   0.534  12.979  0.9601 -0.4707  1.8530
 4935TIP3    H236297   4.647   0.390  13.014 -0.6791 -1.3791 -0.3889
 4936TIP3   OH236298   0.243   2.861   0.076  0.2225 -0.0546 -0.4385
 4936TIP3    H136299   0.283   2.932   0.026  0.1465 -0.0486 -0.4912
 4936TIP3    H236300   0.173   2.903   0.126 -0.9990 -0.3821 -1.8300
 4937TIP3   OH236301   6.761   0.368  15.260 -0.5982  0.6866  0.4472
 4937TIP3    H136302   6.795   0.416  15.184  0.4590 -0.8151 -0.0719
 4937TIP3    H236303   6.667   0.364  15.246 -0.5740  1.7231 -0.0222
 4938TIP3   OH236304   0.670   2.252   2.377 -0.1865  0.6972  0.6251
 4938TIP3    H136305   0.748   2.270   2.430 -1.8671  1.0047  3.0944
 4938TIP3    H236306   0.668   2.324   2.313  2.7491 -0.5572 -0.9816
 4939TIP3   OH236307   2.844   1.037   2.060  0.5755 -0.2916 -0.2494
 4939TIP3    H136308   2.827   1.130   2.073 -3.2366 -1.0673  1.0540
 4939TIP3    H236309   2.883   1.008   2.143  0.7088 -0.0769 -0.2379
 4940TIP3   OH236310   6.168   1.518  14.361 -0.3126  0.0992  0.3567
 4940TIP3    H136311   6.262   1.509  14.379 -0.6329 -1.5976  1.2583
 4940TIP3    H236312   6.148   1.444  14.303 -0.6557  1.7113 -1.6071
 4941TIP3   OH236313   0.947   0.180  16.470  0.4396 -0.0427  0.1836
 4941TIP3    H136314   0.942   0.116  16.400 -0.7293 -0.3330  0.5230
 4941TIP3    H236315   0.871   0.237  16.456  1.4530  1.2610 -0.1060
 4942TIP3   OH236316   2.128   1.835   4.856  0.1450 -0.0809 -0.1095
 4942TIP3    H136317   2.167   1.814   4.940 -2.2843 -1.7359  0.6590
 4942TIP3    H236318   2.038   1.862   4.877 -0.4800 -0.4820 -2.1421
 4943TIP3   OH236319   2.370   6.507  12.240 -0.1872 -0.3295  0.1855
 4943TIP3    H136320   2.295   6.478  12.189 -0.2850 -1.5543  1.0090
 4943TIP3    H236321   2.446   6.475  12.192 -0.3140 -2.7042  1.5092
 4944TIP3   OH236322   5.671   5.961   5.052 -0.1306 -0.0347 -0.6236
 4944TIP3    H136323   5.633   6.048   5.047 -0.0363  0.1685  1.7032
 4944TIP3    H236324   5.633   5.914   4.978 -1.2804  1.5423 -1.0565
 4945TIP3   OH236325   4.305   2.139   2.159 -0.0797  0.0567 -0.2426
 4945TIP3    H136326   4.363   2.066   2.181 -0.8934 -0.1957  1.1211
 4945TIP3    H236327   4.227   2.124   2.211  0.4583  2.9061  1.5230
 4946TIP3   OH236328   5.060   1.695   4.458  0.9918  0.4089  0.4312
 4946TIP3    H136329   5.147   1.729   4.440  1.3739 -0.7811 -0.0374
 4946TIP3    H236330   5.075   1.603   4.479 -0.1283  0.2621  0.5941
 4947TIP3   OH236331   0.064   0.003   6.269 -0.2507  0.1205  0.1247
 4947TIP3    H136332   0.100   0.022   6.182 -2.1164  2.5975 -0.1523
 4947TIP3    H236333   0.092   0.076   6.323 -0.8894 -0.3283  1.0814
 4948TIP3   OH236334   0.134   4.415   5.362 -0.1027 -0.2860  0.6089
 4948TIP3    H136335   0.196   4.443   5.430  0.6418 -1.3845  0.3905
 4948TIP3    H236336   0.187   4.409   5.283 -0.4280 -1.4722  0.4671
 4949TIP3   OH236337   1.158   1.840  13.909 -0.1299  0.3915  0.4708
 4949TIP3    H136338   1.123   1.773  13.850 -0.1622  1.9751 -1.3861
 4949TIP3    H236339   1.236   1.801  13.948  1.3744  0.1757 -2.6002
 4950TIP3   OH236340   4.579   3.060   2.201 -0.3168  0.3400  0.2989
 4950TIP3    H136341   4.572   3.155   2.196  1.5953  0.4402 -1.0635
 4950TIP3    H236342   4.538   3.028   2.120  0.4709  0.1035 -0.0148
 4951TIP3   OH236343   5.145   4.990  12.251  0.1195 -0.0477 -0.1605
 4951TIP3    H136344   5.137   5.073  12.205 -1.1787 -0.3737 -0.5542
 4951TIP3    H236345   5.055   4.969  12.279  0.3081 -1.6718 -0.6957
 4952TIP3   OH236346   0.735   0.611   3.674  0.0537  0.1363 -0.3182
 4952TIP3    H136347   0.758   0.700   3.700 -1.2036  0.6237 -0.8419
 4952TIP3    H236348   0.656   0.591   3.723  0.4368 -0.7787 -0.0525
 4953TIP3   OH236349   3.839   6.423   0.329  0.4430  0.3152  0.0641
 4953TIP3    H136350   3.855   6.375   0.410  1.1395  1.3814  0.5710
 4953TIP3    H236351   3.911   6.485   0.323 -0.7655  1.7051 -0.2720
 4954TIP3   OH236352   3.651   4.644  13.454 -0.2134 -0.2683 -0.0438
 4954TIP3    H136353   3.681   4.589  13.382 -0.5308  0.0544 -0.4201
 4954TIP3    H236354   3.607   4.717  13.412  1.4355  1.0162  0.4057
 4955TIP3   OH236355   1.163   6.648  13.262 -0.0948 -0.0476  0.6619
 4955TIP3    H136356   1.154   6.583  13.193 -0.8129  2.2926 -1.4975
 4955TIP3    H236357   1.258   6.663  13.270 -0.0186 -0.2233  0.0813
 4956TIP3   OH236358   2.354   3.480  11.696 -0.0259 -0.3377  0.1613
 4956TIP3    H136359   2.333   3.526  11.615 -0.8908 -1.5967 -0.3423
 4956TIP3    H236360   2.290   3.513  11.759 -1.2414 -1.5222 -0.4389
 4957TIP3   OH236361   2.434   5.148   4.574  0.2832  0.0854  0.6142
 4957TIP3    H136362   2.388   5.113   4.650 -0.1632  0.7042  0.6240
 4957TIP3    H236363   2.413   5.086   4.503 -0.0982  0.0504  0.7566
 4958TIP3   OH236364   2.894   4.864  12.794  0.5683  0.0857  0.2018
 4958TIP3    H136365   2.819   4.805  12.785  1.2914 -1.2573  2.5523
 4958TIP3    H236366   2.875   4.916  12.872  1.6089  0.4269  0.2386
 4959TIP3   OH236367   6.598   0.093   6.003 -0.7954  0.0366  0.0575
 4959TIP3    H136368   6.620  -0.000   5.998  0.3829  0.4140 -2.4547
 4959TIP3    H236369   6.676   0.134   6.040 -1.2480  0.0689  0.9938
 4960TIP3   OH236370   6.345   6.583  12.907 -0.4529  0.0197  0.5626
 4960TIP3    H136371   6.374   6.660  12.956 -1.2816  1.5013 -1.2209
 4960TIP3    H236372   6.403   6.579  12.831 -0.8491 -0.7020  0.2900
 4961TIP3   OH236373   2.365   4.145   5.182  0.0842 -0.0504  0.1920
 4961TIP3    H136374   2.439   4.204   5.193  2.6511 -2.4314 -3.3037
 4961TIP3    H236375   2.395   4.061   5.218 -1.6587 -0.5346  0.5766
 4962TIP3   OH236376   1.088   5.368   4.980  0.2136 -0.4985 -0.4026
 4962TIP3    H136377   1.130   5.444   4.940 -1.3514  1.3700  1.3716
 4962TIP3    H236378   1.018   5.345   4.920 -0.7940  0.9718  0.1821
 4963TIP3   OH236379   5.418   3.512  12.124  0.4486  0.7003  0.4693
 4963TIP3    H136380   5.338   3.520  12.176  0.4954 -0.5152  0.7502
 4963TIP3    H236381   5.397   3.445  12.058  0.8430  1.2398 -0.2074
 4964TIP3   OH236382   3.119   4.809  16.486  0.0851  0.1866 -0.0841
 4964TIP3    H136383   3.038   4.823  16.437  0.4393 -0.4501 -0.8617
 4964TIP3    H236384   3.096   4.740  16.549  0.2699 -0.6516 -0.9213
 4965TIP3   OH236385   4.864   1.129  16.342  0.0892  0.3840  0.0937
 4965TIP3    H136386   4.809   1.188  16.392 -1.0667 -0.8119  0.2802
 4965TIP3    H236387   4.855   1.158  16.251  0.6203  1.3204  0.3345
 4966TIP3   OH236388   6.564   6.266   3.835  0.0936 -0.1761 -0.1521
 4966TIP3    H136389   6.516   6.323   3.776 -2.6823 -0.4833  1.7423
 4966TIP3    H236390   6.564   6.312   3.919  2.0525 -0.7640  0.2041
 4967TIP3   OH236391   3.765   3.798   2.994 -0.0033  0.2955 -0.1125
 4967TIP3    H136392   3.859   3.804   2.978 -0.2450  1.6072 -1.1947
 4967TIP3    H236393   3.725   3.827   2.912 -1.3370  1.5327  0.9456
 4968TIP3   OH236394   3.669   5.407  11.466 -0.2075  0.1361  0.1370
 4968TIP3    H136395   3.597   5.446  11.515 -1.7431 -2.0459 -0.2496
 4968TIP3    H236396   3.663   5.448  11.379 -0.2021  0.8697  0.4791
 4969TIP3   OH236397   5.959   5.407   3.581 -0.1763  0.2666 -0.1857
 4969TIP3    H136398   5.912   5.331   3.546  0.2904  0.7810 -1.9608
 4969TIP3    H236399   5.965   5.468   3.508  0.6407  1.4608  0.8542
 4970TIP3   OH236400   1.972   3.399  12.494 -0.0361  0.5803  0.1835
 4970TIP3    H136401   1.983   3.328  12.431  0.8197  1.3161 -0.4984
 4970TIP3    H236402   1.921   3.465  12.447 -2.1356 -0.1938  1.3061
 4971TIP3   OH236403   3.961   2.171   4.436  0.1553 -0.0675  0.0936
 4971TIP3    H136404   3.914   2.090   4.455  1.5184 -0.5437  1.4931
 4971TIP3    H236405   3.957   2.179   4.340  0.0234 -1.8006 -0.0528
 4972TIP3   OH236406   2.813   3.171   2.419 -0.0535 -0.4955  0.7309
 4972TIP3    H136407   2.837   3.166   2.512 -1.5411  1.3554  1.2553
 4972TIP3    H236408   2.721   3.200   2.420 -0.1633 -0.7228 -1.3177
 4973TIP3   OH236409   5.420   6.713   5.494 -0.1240  0.2596 -0.3321
 4973TIP3    H136410   5.426   6.761   5.577  0.5791  0.1724 -0.3362
 4973TIP3    H236411   5.446   6.624   5.516 -1.3463 -0.1063 -0.3472
 4974TIP3   OH236412   6.238   4.226   3.369 -0.9245 -0.1618 -0.4792
 4974TIP3    H136413   6.206   4.182   3.291  0.5641 -1.2008 -0.5289
 4974TIP3    H236414   6.307   4.285   3.337 -2.5091  1.8272 -0.3439
 4975TIP3   OH236415   5.297   0.101  11.845 -0.8969 -0.4002  0.2032
 4975TIP3    H136416   5.351   0.041  11.794  1.0483 -0.4989  2.3224
 4975TIP3    H236417   5.207   0.071  11.829 -0.2759 -0.9754 -2.3984
 4976TIP3   OH236418   2.767   2.308   6.723  0.0077  0.0773  0.2842
 4976TIP3    H136419   2.701   2.279   6.786  1.7173 -2.5034  0.9555
 4976TIP3    H236420   2.744   2.265   6.641  0.0931  0.2486  0.1680
 4977TIP3   OH236421   0.467   0.664  16.876  0.4407  0.0586 -0.0816
 4977TIP3    H136422   0.386   0.641  16.921  1.3099  0.2877  1.6525
 4977TIP3    H236423   0.525   0.590  16.893  1.2057  0.7398  0.2573
 4978TIP3   OH236424   1.771   3.698   3.505  0.3361 -0.1305  0.2165
 4978TIP3    H136425   1.733   3.779   3.541  0.7510  0.0534  0.2369
 4978TIP3    H236426   1.708   3.669   3.439 -0.3918 -0.4199  1.0223
 4979TIP3   OH236427   3.154   2.977  11.111  0.3507  0.1699  0.5782
 4979TIP3    H136428   3.238   2.932  11.100  1.1447  1.6012  0.7199
 4979TIP3    H236429   3.090   2.918  11.070  1.4780 -0.7148  0.0607
 4980TIP3   OH236430   5.227   5.096  12.681 -0.3547  0.1924  0.5851
 4980TIP3    H136431   5.259   5.088  12.591 -0.1925  0.5006  0.6144
 4980TIP3    H236432   5.160   5.164  12.677 -1.9104 -1.3371  0.2834
 4981TIP3   OH236433   1.459   4.839  15.737 -0.0354  0.4454 -0.4283
 4981TIP3    H136434   1.451   4.815  15.829  0.1921  1.2046 -0.1998
 4981TIP3    H236435   1.502   4.764  15.695 -0.2992  0.0314  0.0514
 4982TIP3   OH236436   0.611   3.857  13.064 -0.0869 -0.1830 -0.3451
 4982TIP3    H136437   0.594   3.765  13.041 -0.2396 -0.1017 -0.5623
 4982TIP3    H236438   0.684   3.883  13.008 -0.3804 -0.0205 -0.6539
 4983TIP3   OH236439   3.455   3.962  16.588 -0.0823 -0.3376 -0.0655
 4983TIP3    H136440   3.439   3.986  16.679  0.1999  0.4914 -0.2356
 4983TIP3    H236441   3.473   3.868  16.591 -1.0855 -0.5196  0.6044
 4984TIP3   OH236442   1.615   0.637  14.816 -0.1201  0.6271 -0.4461
 4984TIP3    H136443   1.611   0.544  14.839  2.6364  0.3114 -1.0290
 4984TIP3    H236444   1.600   0.683  14.899 -0.4249 -0.3389  0.0431
 4985TIP3   OH236445   4.762   3.368  15.808 -0.2372 -0.6045 -0.2346
 4985TIP3    H136446   4.783   3.335  15.895  1.4898  0.7397 -0.1064
 4985TIP3    H236447   4.829   3.329  15.751  1.3936  2.0030 -0.1949
 4986TIP3   OH236448   0.888   5.855   0.559  0.2415 -0.1887  0.3476
 4986TIP3    H136449   0.871   5.939   0.601  2.0542 -0.4365  1.6272
 4986TIP3    H236450   0.855   5.865   0.469 -1.1683  1.2687  1.0176
 4987TIP3   OH236451   0.614   0.396  11.334  0.1721  0.2637 -0.7596
 4987TIP3    H136452   0.690   0.361  11.379  0.3212  2.2848  0.6155
 4987TIP3    H236453   0.580   0.464  11.392 -1.8628  0.3637 -1.9840
 4988TIP3   OH236454   5.517   2.260  15.488 -0.2450 -0.2293  0.7182
 4988TIP3    H136455   5.577   2.280  15.416 -0.8483  0.1175  0.3096
 4988TIP3    H236456   5.447   2.325  15.480  0.2825  0.5673  2.3237
 4989TIP3   OH236457   3.996   4.119  13.930 -0.0055 -0.4723 -0.3897
 4989TIP3    H136458   4.087   4.097  13.912  0.4253  2.6344 -2.3134
 4989TIP3    H236459   3.988   4.111  14.025  2.7451  0.8170  0.0095
 4990TIP3   OH236460   1.372   3.394   6.552 -0.4817 -0.2694  0.1316
 4990TIP3    H136461   1.306   3.425   6.614  0.2570  0.2002  0.7005
 4990TIP3    H236462   1.452   3.442   6.576  0.6541 -2.4965  0.9209
 4991TIP3   OH236463   6.450   1.358  12.076 -0.5815 -0.2860 -0.2106
 4991TIP3    H136464   6.391   1.283  12.084 -1.1783  0.1972 -0.0787
 4991TIP3    H236465   6.498   1.360  12.159 -0.7889 -0.3407 -0.0873
 4992TIP3   OH236466   6.232   2.851   3.660  0.3488 -0.6032 -0.2498
 4992TIP3    H136467   6.327   2.863   3.662  0.7209 -3.4348  1.1526
 4992TIP3    H236468   6.198   2.928   3.706  2.1067 -0.6886  1.2859
 4993TIP3   OH236469   6.368   1.518   4.732  0.1349  0.0799 -0.4251
 4993TIP3    H136470   6.298   1.455   4.717  0.8949 -1.0781  0.8747
 4993TIP3    H236471   6.328   1.586   4.787  0.1063 -0.7273  0.5588
 4994TIP3   OH236472   0.235   0.860  15.507  0.6453 -0.1472 -0.2065
 4994TIP3    H136473   0.305   0.808  15.467  0.6541 -0.0088 -0.3709
 4994TIP3    H236474   0.196   0.908  15.434 -1.4477 -2.3425 -0.5675
 4995TIP3   OH236475   2.456   1.914  15.781  0.1088  0.6274 -0.0335
 4995TIP3    H136476   2.410   1.997  15.769  0.7925  0.8846 -0.9446
 4995TIP3    H236477   2.548   1.938  15.784  0.3338 -0.1294 -0.6648
 4996TIP3   OH236478   3.184   1.814   1.176  0.3142  0.5172  0.1693
 4996TIP3    H136479   3.132   1.744   1.137  1.4444 -0.0180 -0.4242
 4996TIP3    H236480   3.129   1.892   1.170 -1.4589 -0.5425  1.9351
 4997TIP3   OH236481   4.319   2.707  17.067 -0.0627  0.2142  0.3023
 4997TIP3    H136482   4.371   2.684  17.144 -1.4044 -0.9554  0.8683
 4997TIP3    H236483   4.273   2.786  17.094 -0.3318 -0.0449  0.6043
 4998TIP3   OH236484   2.670   4.206   1.733 -0.5575  0.3466 -0.3686
 4998TIP3    H136485   2.697   4.214   1.825 -3.5565 -0.7223  0.6733
 4998TIP3    H236486   2.697   4.288   1.693  4.3455 -0.7202  0.4553
 4999TIP3   OH236487   0.803   4.889   2.189  0.2322 -0.5858 -0.0880
 4999TIP3    H136488   0.877   4.842   2.228 -1.0695 -1.5967  1.2449
 4999TIP3    H236489   0.739   4.820   2.170 -1.1717  0.4972  0.6571
 5000TIP3   OH236490   0.894   6.162   4.869 -0.0175 -0.4129  0.4861
 5000TIP3    H136491   0.837   6.182   4.943  0.4000  0.7559  0.4902
 5000TIP3    H236492   0.945   6.086   4.899  1.0533  0.8159  1.9106
 5001TIP3   OH236493   3.083   3.459   4.390 -0.0474  0.2801 -0.8696
 5001TIP3    H136494   3.063   3.522   4.458  0.2755  0.2394 -0.7343
 5001TIP3    H236495   3.177   3.467   4.376  0.1009 -0.5883 -0.4268
 5002TIP3   OH236496   6.081   5.536  10.517  0.0211  0.1571  0.0420
 5002TIP3    H136497   6.030   5.577  10.448  0.4983  2.3557  0.9495
 5002TIP3    H236498   6.050   5.445  10.519  0.1833 -0.0341 -3.1918
 5003TIP3   OH236499   4.392   5.305   1.929 -0.3265  0.0255 -0.1102
 5003TIP3    H136500   4.308   5.346   1.909 -0.0091  0.2061 -1.0903
 5003TIP3    H236501   4.456   5.355   1.878  0.0992 -1.5769 -1.1847
 5004TIP3   OH236502   1.555   0.184   0.484 -0.0512 -0.6482 -0.3895
 5004TIP3    H136503   1.630   0.133   0.512 -0.4620 -0.2679  1.4740
 5004TIP3    H236504   1.580   0.217   0.397  2.0856 -0.2171  0.3479
 5005TIP3   OH236505   1.397   4.811   0.582  0.2653  0.3895  0.1202
 5005TIP3    H136506   1.372   4.726   0.547  0.3967  0.6936 -0.7300
 5005TIP3    H236507   1.364   4.874   0.518  1.5873  0.8880 -0.0863
 5006TIP3   OH236508   5.516   1.057   3.962  0.2727 -0.1715  0.4298
 5006TIP3    H136509   5.576   1.131   3.958  0.6023 -0.5104 -1.8602
 5006TIP3    H236510   5.573   0.980   3.968 -0.0113 -0.3263  1.1008
 5007TIP3   OH236511   4.484   6.006  16.917  0.1878  0.1874  0.0462
 5007TIP3    H136512   4.552   6.023  16.852  1.7169 -2.4234  0.9100
 5007TIP3    H236513   4.526   6.022  17.001 -0.7881  0.2849  0.5256
 5008TIP3   OH236514   1.408   1.297  14.059  0.3026 -0.2191  0.6773
 5008TIP3    H136515   1.321   1.332  14.078  0.2855 -0.0162  0.2423
 5008TIP3    H236516   1.450   1.288  14.145 -0.3805 -0.9470  0.9438
 5009TIP3   OH236517   5.356   4.829  11.164  0.0728  0.9734  0.1714
 5009TIP3    H136518   5.279   4.821  11.219  1.1196  0.0646  1.5347
 5009TIP3    H236519   5.426   4.855  11.224  0.9227  1.3633 -0.9698
 5010TIP3   OH236520   1.185   3.752  15.772  0.6666  0.0231 -0.7031
 5010TIP3    H136521   1.185   3.820  15.840 -2.6788 -1.1617  0.5856
 5010TIP3    H236522   1.186   3.800  15.689 -3.1635  1.7748  0.1749
 5011TIP3   OH236523   3.207   1.941   3.920  0.4096  0.3845  0.0866
 5011TIP3    H136524   3.299   1.943   3.946  0.3607 -0.2465  0.3095
 5011TIP3    H236525   3.178   2.032   3.928  1.0414  0.6107 -0.1018
 5012TIP3   OH236526   5.121   6.577  13.261  0.0538 -0.0244  0.4302
 5012TIP3    H136527   5.192   6.636  13.287  0.9399 -1.0393  0.3365
 5012TIP3    H236528   5.121   6.579  13.166  1.0692 -1.3278  0.3974
 5013TIP3   OH236529   0.858   1.753   0.892 -0.6106 -0.0400 -0.4681
 5013TIP3    H136530   0.895   1.774   0.807 -1.8463 -0.7308 -1.1916
 5013TIP3    H236531   0.801   1.678   0.876 -2.7391  1.3085  0.5040
 5014TIP3   OH236532   0.450   1.065  15.351  0.3696 -0.3411  0.4608
 5014TIP3    H136533   0.493   1.016  15.421  3.6031 -0.8740 -1.7978
 5014TIP3    H236534   0.420   1.146  15.393 -0.2043 -1.8509  3.0373
 5015TIP3   OH236535   0.734   4.961   6.488 -0.0391  0.3673  0.0052
 5015TIP3    H136536   0.677   4.887   6.506  3.4122 -1.9813  2.0143
 5015TIP3    H236537   0.697   5.034   6.538 -2.0615 -0.6938  0.0723
 5016TIP3   OH236538   5.305   4.424   0.529  0.3606 -0.2424  0.4283
 5016TIP3    H136539   5.365   4.355   0.501  0.8448 -0.3272  1.6268
 5016TIP3    H236540   5.362   4.497   0.552 -0.2170  1.1235 -2.2380
 5017TIP3   OH236541   1.819   5.889  15.147  0.0688  0.3418  0.3403
 5017TIP3    H136542   1.816   5.846  15.062 -0.4474 -2.3879  1.6748
 5017TIP3    H236543   1.734   5.933  15.156 -0.0594  0.2326 -0.3218
 5018TIP3   OH236544   3.616   2.302  15.971 -0.0577 -0.0892  0.0028
 5018TIP3    H136545   3.641   2.378  16.023 -2.0154  1.2944 -0.9901
 5018TIP3    H236546   3.566   2.247  16.031  0.4596 -0.0812  0.4454
 5019TIP3   OH236547   2.866   1.555  14.470 -0.2270  0.1653  0.1441
 5019TIP3    H136548   2.787   1.603  14.494  0.5849  1.5381  0.1473
 5019TIP3    H236549   2.920   1.557  14.548 -0.4272 -1.2815  0.3262
 5020TIP3   OH236550   0.357   4.342  13.893 -0.1352 -0.1674  0.0934
 5020TIP3    H136551   0.274   4.390  13.896  0.7791  1.6243 -2.1134
 5020TIP3    H236552   0.362   4.309  13.803  1.9223  0.4603 -0.0373
 5021TIP3   OH236553   5.931   2.247   3.354 -0.1110  0.0496  0.1336
 5021TIP3    H136554   5.990   2.176   3.378 -0.4416  0.0352  0.9357
 5021TIP3    H236555   5.924   2.300   3.434 -2.8196 -1.1262  0.7512
 5022TIP3   OH236556   1.085   6.334  15.692 -0.1641  0.2326 -0.5149
 5022TIP3    H136557   1.111   6.392  15.620 -3.6660  0.4168 -1.7676
 5022TIP3    H236558   1.001   6.370  15.722 -1.0649 -2.5865  0.5156
 5023TIP3   OH236559   5.490   5.426  15.605  0.0282  0.4147 -0.5708
 5023TIP3    H136560   5.413   5.478  15.629  0.4223  1.2338 -1.0667
 5023TIP3    H236561   5.479   5.409  15.512  0.0139 -0.2006 -0.4559
 5024TIP3   OH236562   6.819   2.065  13.389 -0.1272 -0.3949 -0.2857
 5024TIP3    H136563   6.801   2.091  13.299  2.6931  1.7592 -0.2878
 5024TIP3    H236564   6.860   1.979  13.382 -1.8537 -1.1912 -0.8757
 5025TIP3   OH236565   5.514   5.827  14.016 -0.5877  0.3241 -0.4391
 5025TIP3    H136566   5.582   5.759  14.020 -0.0300  0.8068 -1.5108
 5025TIP3    H236567   5.563   5.909  14.006 -1.3134  0.7217 -0.7334
 5026TIP3   OH236568   1.189   0.368  11.662 -0.3550  0.0548 -0.5534
 5026TIP3    H136569   1.225   0.282  11.642 -1.0638 -0.0557 -1.3586
 5026TIP3    H236570   1.109   0.374  11.610  0.1362  1.5339 -1.1765
 5027TIP3   OH236571   0.377   5.692  15.700 -0.5464  0.4599 -0.5451
 5027TIP3    H136572   0.399   5.604  15.729  0.1628  0.4242 -1.1687
 5027TIP3    H236573   0.458   5.725  15.660 -0.2808  2.0242  1.2033
 5028TIP3   OH236574   1.978   0.161   2.158 -0.5032  0.0948  0.7101
 5028TIP3    H136575   1.949   0.090   2.101  0.5391 -1.3881  1.9627
 5028TIP3    H236576   2.012   0.116   2.236  0.2907  1.9707  1.4754
 5029TIP3   OH236577   0.887   4.338   4.704 -0.2847  0.3137 -0.7893
 5029TIP3    H136578   0.861   4.272   4.640 -0.1972  0.0150 -0.5214
 5029TIP3    H236579   0.812   4.345   4.763 -0.6017  1.0239 -1.2711
 5030TIP3   OH236580   3.175   4.631  17.045 -0.3202  0.3990 -0.2491
 5030TIP3    H136581   3.228   4.699  17.086  0.7209  0.0599 -1.0189
 5030TIP3    H236582   3.139   4.672  16.966  0.4907 -0.0017 -0.8341
 5031TIP3   OH236583   4.450   1.160   3.864  0.1626  0.7504 -0.1967
 5031TIP3    H136584   4.408   1.246   3.866 -1.2079  0.0684  0.9095
 5031TIP3    H236585   4.540   1.177   3.893 -0.1958  1.7755  0.3321
 5032TIP3   OH236586   3.128   0.410   4.769 -0.3115 -0.5209  0.6170
 5032TIP3    H136587   3.186   0.457   4.708 -1.3877 -1.3195 -1.0497
 5032TIP3    H236588   3.056   0.471   4.784 -1.2299 -1.2525 -0.7900
 5033TIP3   OH236589   0.695   3.114   5.350  0.1608  0.6222  0.4308
 5033TIP3    H136590   0.725   3.203   5.370  2.3258 -0.3172  1.5876
 5033TIP3    H236591   0.759   3.081   5.287  1.9535 -1.5772  3.2497
 5034TIP3   OH236592   3.996   0.342  15.294  0.2662 -0.6257 -0.1312
 5034TIP3    H136593   4.076   0.394  15.299  0.4411 -0.9860  1.0665
 5034TIP3    H236594   3.933   0.390  15.348 -0.2296 -0.5093 -0.8105
 5035TIP3   OH236595   4.454   1.657   5.537 -0.5325  0.0603 -0.3520
 5035TIP3    H136596   4.523   1.598   5.506  0.4722  0.8081  0.4259
 5035TIP3    H236597   4.429   1.707   5.460  0.2315  0.2115 -0.5067
 5036TIP3   OH236598   1.996   5.709  15.255 -0.5023  0.3729 -0.1787
 5036TIP3    H136599   1.948   5.786  15.226 -0.3761  0.7473  0.5900
 5036TIP3    H236600   2.066   5.744  15.311 -0.8111 -0.3383  0.6638
 5037TIP3   OH236601   6.739   6.711   3.426 -0.0452 -0.9536  0.0546
 5037TIP3    H136602   6.681   6.693   3.352 -0.0649  0.1830 -0.2178
 5037TIP3    H236603   6.769   6.801   3.412 -0.0080 -0.7439  1.3923
 5038TIP3   OH236604   2.379   0.828  13.072  0.0841  0.6193  0.4712
 5038TIP3    H136605   2.423   0.792  13.149  1.3889  0.0281 -0.5164
 5038TIP3    H236606   2.451   0.850  13.012 -0.8748  1.7238 -0.2932
 5039TIP3   OH236607   3.604   0.059  11.312 -0.3081  0.3496 -0.4117
 5039TIP3    H136608   3.679   0.002  11.300  1.7241  2.8402 -0.0274
 5039TIP3    H236609   3.567   0.070  11.224  0.0596 -0.5093 -0.6700
 5040TIP3   OH236610   3.429   5.619   5.104 -0.1776  0.2100 -0.4310
 5040TIP3    H136611   3.458   5.559   5.035  0.0439 -0.2616  0.0753
 5040TIP3    H236612   3.381   5.563   5.166 -1.4230  0.8288 -0.8150
 5041TIP3   OH236613   3.634   5.053   1.596 -0.1344 -0.0307 -0.0396
 5041TIP3    H136614   3.539   5.060   1.603 -0.1915 -2.3591  2.8125
 5041TIP3    H236615   3.650   5.018   1.509 -2.0105 -0.9182 -0.0496
 5042TIP3   OH236616   0.595   2.370  16.556 -0.0170  0.5495  0.2205
 5042TIP3    H136617   0.620   2.460  16.539  0.2815  0.2938 -0.7331
 5042TIP3    H236618   0.641   2.346  16.636  2.4648  0.2249 -1.2642
 5043TIP3   OH236619   4.396   0.363   3.687  0.0599  0.2022 -0.3625
 5043TIP3    H136620   4.424   0.295   3.749  0.1052  0.0068 -0.5992
 5043TIP3    H236621   4.445   0.344   3.607 -0.9962 -0.3357 -0.8895
 5044TIP3   OH236622   0.215   5.783   1.520  0.4420 -0.4261  0.5118
 5044TIP3    H136623   0.290   5.842   1.511 -1.0432  1.3890 -0.2787
 5044TIP3    H236624   0.216   5.731   1.439 -0.2046  0.8671 -0.3440
 5045TIP3   OH236625   2.841   6.096   5.811  0.0912  0.5144  0.1867
 5045TIP3    H136626   2.778   6.024   5.813 -0.1918  0.7686  0.7089
 5045TIP3    H236627   2.926   6.053   5.818  0.0526  0.0901 -1.7997
 5046TIP3   OH236628   5.389   0.265   2.987 -0.6496  0.1962  0.1613
 5046TIP3    H136629   5.320   0.227   3.042  0.0467 -0.2044  0.7586
 5046TIP3    H236630   5.362   0.244   2.898  0.2462 -2.6441  0.5028
 5047TIP3   OH236631   3.546   5.879   4.762  0.2616 -0.0649 -0.2807
 5047TIP3    H136632   3.586   5.944   4.821 -0.6245 -0.1534  0.4236
 5047TIP3    H236633   3.540   5.799   4.815 -0.1129 -0.2796 -0.6441
 5048TIP3   OH236634   3.819   0.467   1.404 -0.0470 -0.3923  0.6781
 5048TIP3    H136635   3.769   0.425   1.334 -3.3199  1.1473  1.9759
 5048TIP3    H236636   3.778   0.553   1.414  1.5853  0.1512  3.1900
 5049TIP3   OH236637   5.869   6.401  17.007  0.4856  0.2057 -0.6066
 5049TIP3    H136638   5.860   6.431  17.098 -0.8166 -1.6755 -0.0803
 5049TIP3    H236639   5.791   6.434  16.963 -0.7205 -1.9081 -0.1350
 5050TIP3   OH236640   4.931   0.191   4.915 -0.0740 -0.4834  0.1186
 5050TIP3    H136641   5.017   0.187   4.958  0.5444  0.9969 -0.9239
 5050TIP3    H236642   4.868   0.194   4.987  0.8948  1.0170  0.9175
 5051TIP3   OH236643   2.268   1.408   5.782  0.9152  0.2600  0.0326
 5051TIP3    H136644   2.183   1.425   5.742  1.2468  1.4516 -0.1965
 5051TIP3    H236645   2.329   1.402   5.709  0.7283 -2.6211  0.0650
 5052TIP3   OH236646   0.503   1.543  11.672  0.4278 -0.3379 -0.4998
 5052TIP3    H136647   0.534   1.632  11.689  0.5688 -0.3407 -0.7472
 5052TIP3    H236648   0.536   1.491  11.745 -0.7406  0.0600  0.3318
 5053TIP3   OH236649   0.586   0.803  14.805  0.1105  0.3887 -0.5495
 5053TIP3    H136650   0.580   0.806  14.901 -2.4184  2.7471 -0.7357
 5053TIP3    H236651   0.606   0.893  14.779  0.6156 -0.2004 -2.2555
 5054TIP3   OH236652   6.327   1.805   2.741 -0.1521  0.5379  0.2132
 5054TIP3    H136653   6.389   1.755   2.688  0.6941  0.6851  1.0420
 5054TIP3    H236654   6.251   1.816   2.685 -0.8176 -2.6323  0.3874
 5055TIP3   OH236655   4.845   6.301  14.692  0.3289 -0.2962  0.6152
 5055TIP3    H136656   4.810   6.213  14.677  0.7701 -0.1697 -1.3749
 5055TIP3    H236657   4.897   6.293  14.771  0.0299 -1.7379  0.6783
 5056TIP3   OH236658   2.744   0.377  15.612  0.3686 -0.1505  0.5284
 5056TIP3    H136659   2.664   0.410  15.572 -0.1867 -1.0883  0.8608
 5056TIP3    H236660   2.795   0.344  15.538  0.5842  0.7119  0.2847
 5057TIP3   OH236661   0.188   5.346   1.693  0.0789  0.6487 -0.2253
 5057TIP3    H136662   0.280   5.327   1.678 -0.2351 -0.6101 -0.6431
 5057TIP3    H236663   0.146   5.329   1.608 -1.3746 -4.2993  1.2813
 5058TIP3   OH236664   4.850   4.161  16.622 -0.2204  0.0455 -0.3281
 5058TIP3    H136665   4.813   4.088  16.672 -0.9711  0.3296 -0.4590
 5058TIP3    H236666   4.917   4.122  16.567 -0.3226 -0.4763 -0.0811
 5059TIP3   OH236667   3.117   3.862  16.720 -0.3295 -0.2347  0.6157
 5059TIP3    H136668   3.188   3.902  16.771  1.1604 -2.2432  0.1636
 5059TIP3    H236669   3.040   3.869  16.776  0.5366  0.6799  1.7053
 5060TIP3   OH236670   1.908   3.289  14.410  0.5851 -0.3684  0.3204
 5060TIP3    H136671   1.991   3.248  14.434  0.3890 -1.3360 -0.6334
 5060TIP3    H236672   1.849   3.216  14.394 -0.5577  0.3114  1.3355
 5061TIP3   OH236673   0.785   0.915  12.854 -0.1389 -0.2650 -0.5280
 5061TIP3    H136674   0.823   0.848  12.911 -0.7356 -1.6121 -1.6721
 5061TIP3    H236675   0.860   0.962  12.818  0.2765 -0.1020  0.5426
 5062TIP3   OH236676   3.255   0.439  15.373  0.6940  0.1660 -0.1757
 5062TIP3    H136677   3.291   0.478  15.294  0.9120  0.2835 -0.0189
 5062TIP3    H236678   3.306   0.359  15.387 -1.5619 -1.6573 -2.0393
 5063TIP3   OH236679   3.628   1.645   1.901 -0.3330 -0.0971 -0.3207
 5063TIP3    H136680   3.640   1.584   1.828 -0.6859 -0.6482  0.0802
 5063TIP3    H236681   3.568   1.600   1.960  0.7857 -0.1099  0.8333
 5064TIP3   OH236682   0.717   2.600  13.440 -0.1342 -0.2242 -0.3728
 5064TIP3    H136683   0.757   2.515  13.420 -1.3454 -0.4589 -1.8889
 5064TIP3    H236684   0.765   2.663  13.386  0.5629  0.0102  0.5205
 5065TIP3   OH236685   1.337   0.375  16.574  0.1837 -0.2944 -0.3054
 5065TIP3    H136686   1.311   0.339  16.659  1.6135 -1.2911 -0.2775
 5065TIP3    H236687   1.432   0.384  16.580  0.1247  1.0404 -1.2684
 5066TIP3   OH236688   0.228   2.518   1.820 -0.2685  0.1439  0.1451
 5066TIP3    H136689   0.279   2.523   1.738 -1.0684 -0.2840 -0.3862
 5066TIP3    H236690   0.235   2.426   1.846 -1.6335 -0.1644 -0.5051
 5067TIP3   OH236691   5.808   3.343   5.137 -0.2072  0.2271  0.5129
 5067TIP3    H136692   5.733   3.362   5.080 -0.0311 -0.0870  0.1722
 5067TIP3    H236693   5.884   3.375   5.088 -0.0361 -0.2144  0.4885
 5068TIP3   OH236694   5.347   4.529  15.867 -0.1363 -0.0416 -0.5876
 5068TIP3    H136695   5.414   4.481  15.818  1.2531  2.6510 -1.4073
 5068TIP3    H236696   5.289   4.565  15.800 -0.3450  0.6107 -0.0624
 5069TIP3   OH236697   1.454   5.564  12.745 -0.1674 -0.0924 -0.0363
 5069TIP3    H136698   1.439   5.486  12.798 -1.0590  1.1271  1.5614
 5069TIP3    H236699   1.399   5.551  12.668  0.1095 -1.2819 -0.0420
 5070TIP3   OH236700   6.459   0.876  15.112 -0.3492 -0.1534  0.4916
 5070TIP3    H136701   6.495   0.808  15.056 -1.0644  0.5796 -0.8853
 5070TIP3    H236702   6.533   0.936  15.128  0.0647 -0.8004  1.0333
 5071TIP3   OH236703   1.661   3.221   0.870  0.1837  0.1517  0.0010
 5071TIP3    H136704   1.602   3.292   0.845 -0.1089 -0.1801 -0.2506
 5071TIP3    H236705   1.687   3.181   0.787  2.1803  1.4242 -0.0224
 5072TIP3   OH236706   4.100   4.219  16.214 -0.1576 -0.0012  0.1709
 5072TIP3    H136707   4.158   4.182  16.281  2.7178  1.8600 -1.1832
 5072TIP3    H236708   4.066   4.299  16.253  1.2553  0.9090 -0.4197
 5073TIP3   OH236709   2.954   3.130  14.945  0.7501  0.5281  0.3922
 5073TIP3    H136710   2.967   3.185  14.868  1.0954  0.5415  0.4572
 5073TIP3    H236711   2.912   3.187  15.009 -1.6644 -0.0954 -0.5630
 5074TIP3   OH236712   1.226   1.151  16.950 -0.1474 -0.0671 -0.0761
 5074TIP3    H136713   1.295   1.130  16.887  0.7326  0.9812  0.5005
 5074TIP3    H236714   1.231   1.246  16.958 -1.4100 -0.0345  0.2695
 5075TIP3   OH236715   6.496   1.715   1.174  0.6088  0.2314  0.2063
 5075TIP3    H136716   6.577   1.737   1.220  1.2441  1.4938 -1.4743
 5075TIP3    H236717   6.486   1.784   1.108 -1.0000 -0.7772 -0.6401
 5076TIP3   OH236718   3.618   1.497  17.064  0.1425  0.3904 -0.4576
 5076TIP3    H136719   3.621   1.407  17.032  1.3583  0.2511  0.0359
 5076TIP3    H236720   3.709   1.519  17.082 -0.2954  1.2588  0.7160
 5077TIP3   OH236721   2.393   4.754  15.866  0.2366 -0.4420  0.6061
 5077TIP3    H136722   2.363   4.756  15.956  2.6240 -0.9309  1.4489
 5077TIP3    H236723   2.422   4.664  15.852  0.2079 -0.2860 -0.5508
 5078TIP3   OH236724   3.478   5.721  13.934  0.0209  0.4829 -0.0840
 5078TIP3    H136725   3.566   5.698  13.965 -0.3809 -2.2231 -0.8000
 5078TIP3    H236726   3.463   5.809  13.967  2.3420  0.3394  1.4734
 5079TIP3   OH236727   4.440   2.480  15.984 -0.0676 -0.1249 -0.0101
 5079TIP3    H136728   4.466   2.506  15.896 -0.2853  0.3311  0.0587
 5079TIP3    H236729   4.438   2.384  15.982 -2.7320 -0.0616 -1.2475
 5080TIP3   OH236730   3.690   2.969   1.007 -0.2410 -0.0849 -0.1564
 5080TIP3    H136731   3.638   2.890   0.991  0.9903 -0.8336 -0.5447
 5080TIP3    H236732   3.689   3.015   0.923 -2.6205  1.3317  0.6229
 5081TIP3   OH236733   4.264   2.899  13.054  0.2741 -0.0670  0.5233
 5081TIP3    H136734   4.352   2.862  13.041 -0.4434 -1.7996  0.5257
 5081TIP3    H236735   4.215   2.871  12.977 -0.6057 -0.1139  1.0985
 5082TIP3   OH236736   4.933   3.460  13.300 -0.5379  0.6832  0.3530
 5082TIP3    H136737   4.920   3.470  13.394 -0.8355  1.1179  0.2666
 5082TIP3    H236738   4.860   3.507  13.260  0.3870  1.7454 -0.1116
 5083TIP3   OH236739   0.111   0.726   3.319  0.4634 -0.5109  0.6337
 5083TIP3    H136740   0.173   0.778   3.268 -0.9048  0.6553  0.1362
 5083TIP3    H236741   0.122   0.637   3.286 -0.1921  0.1735 -1.5346
 5084TIP3   OH236742   6.530   4.173  13.066  0.0959  0.3107 -0.3109
 5084TIP3    H136743   6.460   4.137  13.120 -0.6897 -0.4346 -1.7841
 5084TIP3    H236744   6.565   4.246  13.117  1.1309 -1.9476  2.3695
 5085TIP3   OH236745   2.646   4.332  15.514 -0.3607  0.5288 -0.2189
 5085TIP3    H136746   2.633   4.303  15.604 -0.4514 -0.3410 -0.5122
 5085TIP3    H236747   2.607   4.420  15.512 -1.5771  0.0096  0.2438
 5086TIP3   OH236748   1.731   6.135   0.296  0.0156 -0.4395 -0.1315
 5086TIP3    H136749   1.671   6.124   0.222  0.8875  1.1225 -1.0943
 5086TIP3    H236750   1.675   6.167   0.368 -0.5994 -0.6459 -0.5170
 5087TIP3   OH236751   0.634   5.190   0.773 -0.4846  0.1991 -0.4470
 5087TIP3    H136752   0.615   5.185   0.867 -0.1568 -0.9426 -0.4346
 5087TIP3    H236753   0.718   5.145   0.763  0.1567  1.5087 -1.1037
 5088TIP3   OH236754   3.282   4.598  14.737  0.1092 -0.0291  0.2898
 5088TIP3    H136755   3.368   4.632  14.713 -0.5880  1.8663  0.4140
 5088TIP3    H236756   3.222   4.637  14.674 -0.6577 -1.3708  0.1811
 5089TIP3   OH236757   3.495   0.252  14.375 -0.0214 -0.5287  0.4098
 5089TIP3    H136758   3.520   0.313  14.444  2.1146 -2.2774  1.2580
 5089TIP3    H236759   3.578   0.232  14.330 -1.1435 -0.5893 -1.6756
 5090TIP3   OH236760   6.196   4.106   1.921 -0.5941  0.3185  0.1618
 5090TIP3    H136761   6.205   4.014   1.899  1.0302  0.3277  0.7260
 5090TIP3    H236762   6.173   4.149   1.838  0.2185 -0.3779 -0.4297
 5091TIP3   OH236763   6.659   4.685  14.171  0.3938 -0.0814 -0.5681
 5091TIP3    H136764   6.712   4.707  14.094  1.3153  0.1676  0.1321
 5091TIP3    H236765   6.631   4.770  14.205  1.8169 -0.0759  0.6418
 5092TIP3   OH236766   4.325   1.372  17.053 -0.6965  0.3791 -0.4103
 5092TIP3    H136767   4.340   1.286  17.093 -1.5660  0.6433  0.4962
 5092TIP3    H236768   4.270   1.353  16.977 -1.4657  0.2149  0.1857
 5093TIP3   OH236769   0.826   5.855   6.150 -0.4043 -0.3156  0.6609
 5093TIP3    H136770   0.911   5.885   6.183  1.2258 -1.2669 -2.4126
 5093TIP3    H236771   0.766   5.927   6.169  1.5431  1.2661  1.0188
 5094TIP3   OH236772   3.716   2.410   5.863  0.5464 -0.0274  0.6036
 5094TIP3    H136773   3.639   2.418   5.807  1.7151 -1.1542 -1.2439
 5094TIP3    H236774   3.705   2.477   5.930 -1.3177  0.8014 -0.4948
 5095TIP3   OH236775   3.653   6.417   2.104  0.4356  0.0757 -0.2914
 5095TIP3    H136776   3.648   6.508   2.074 -0.4614  0.3852  0.7879
 5095TIP3    H236777   3.747   6.402   2.116  0.5002  1.2824  0.8159
 5096TIP3   OH236778   2.590   5.950  15.297  0.8066 -0.3272 -0.2525
 5096TIP3    H136779   2.628   5.983  15.216  1.2601  0.0009  0.0953
 5096TIP3    H236780   2.524   6.015  15.322  2.6556  1.0505  1.1753
 5097TIP3   OH236781   5.964   2.658  13.417 -0.4942  0.1544  0.0732
 5097TIP3    H136782   5.995   2.593  13.480 -1.6902  0.8108  1.3654
 5097TIP3    H236783   6.023   2.733  13.428  0.1893 -0.2779 -0.6190
 5098TIP3   OH236784   1.865   4.515   3.650 -0.4921  0.0530 -0.1639
 5098TIP3    H136785   1.799   4.517   3.719  0.9582  0.2377  1.2790
 5098TIP3    H236786   1.901   4.426   3.653  1.0656  0.6786  0.8350
 5099TIP3   OH236787   0.947   1.989  13.974 -0.1549 -0.1706  0.0308
 5099TIP3    H136788   0.958   2.011  14.066  1.9114  2.3663 -0.7668
 5099TIP3    H236789   1.025   1.938  13.952 -0.5726 -0.6510 -0.3638
 5100TIP3   OH236790   4.966   2.619   1.773 -0.2071  0.5076  0.5614
 5100TIP3    H136791   4.996   2.709   1.757  4.2529 -1.0192 -0.4166
 5100TIP3    H236792   4.912   2.598   1.696  1.5641  1.2271 -0.9161
 5101TIP3   OH236793   6.156   3.328  16.681 -0.8491 -0.5876  0.2233
 5101TIP3    H136794   6.236   3.303  16.725  0.5273  0.2405 -1.7344
 5101TIP3    H236795   6.092   3.338  16.752  2.1960  4.4068  2.5433
 5102TIP3   OH236796   5.135   2.363   2.318  0.3989  0.0960 -0.6751
 5102TIP3    H136797   5.119   2.299   2.248 -1.3073  0.4886 -0.6851
 5102TIP3    H236798   5.196   2.426   2.280  0.1989 -0.1994 -1.5028
 5103TIP3   OH236799   1.317   6.595   1.214 -0.7251  0.4629 -0.0886
 5103TIP3    H136800   1.364   6.619   1.294  0.0398 -1.0254 -0.0733
 5103TIP3    H236801   1.346   6.659   1.149  0.9453 -0.1221  0.0553
 5104TIP3   OH236802   0.990   2.995   1.647 -0.5438 -0.1653  0.5095
 5104TIP3    H136803   0.903   3.017   1.614 -0.9258 -1.3181  0.7329
 5104TIP3    H236804   0.976   2.976   1.740  0.0015 -0.0631  0.6145
 5105TIP3   OH236805   5.094   2.448  16.830 -0.1184 -0.0130  0.2236
 5105TIP3    H136806   5.013   2.498  16.827  0.1554  0.4522  0.5501
 5105TIP3    H236807   5.103   2.421  16.921  0.3503  0.3706  0.2963
 5106TIP3   OH236808   2.828   5.923   4.070  0.9241 -0.3968 -0.0803
 5106TIP3    H136809   2.874   5.930   4.153  0.3629 -1.2846  0.3092
 5106TIP3    H236810   2.786   6.009   4.059  1.0022 -0.2754  0.5481
 5107TIP3   OH236811   3.998   6.336   1.903  0.0808 -0.8490 -0.4437
 5107TIP3    H136812   3.989   6.415   1.849  0.2824 -0.8789 -0.5187
 5107TIP3    H236813   3.955   6.359   1.986  0.9636 -0.3383 -0.1285
 5108TIP3   OH236814   5.171   4.339  12.698  0.2582  0.1714  0.1196
 5108TIP3    H136815   5.211   4.260  12.663 -2.6090 -0.8239 -1.0726
 5108TIP3    H236816   5.204   4.346  12.787  0.4179 -2.4592  0.2836
 5109TIP3   OH236817   3.001   2.522   5.854 -0.1147  0.4438 -0.3608
 5109TIP3    H136818   3.029   2.449   5.909  0.0107  1.2189  0.6295
 5109TIP3    H236819   3.057   2.517   5.776  1.0225  0.4520  0.4438
 5110TIP3   OH236820   4.807   0.172  12.757  0.1677  0.1472  0.0170
 5110TIP3    H136821   4.867   0.118  12.704 -1.3329  1.0981 -2.7714
 5110TIP3    H236822   4.834   0.262  12.739 -1.3614  0.5335 -0.3898
 5111TIP3   OH236823   6.297   5.595  16.075  0.2028 -0.1821 -0.0120
 5111TIP3    H136824   6.357   5.521  16.081  1.1726  0.4462 -1.6480
 5111TIP3    H236825   6.210   5.557  16.090  0.7329 -1.5837 -0.3985
 5112TIP3   OH236826   0.747   2.755  11.241  0.6016 -0.2857 -0.5089
 5112TIP3    H136827   0.753   2.667  11.202  0.2314 -0.5825  0.0995
 5112TIP3    H236828   0.836   2.789  11.235  0.7545 -0.7128 -0.7252
 5113TIP3   OH236829   3.759   1.256   0.799 -0.3399 -0.2722  0.6293
 5113TIP3    H136830   3.829   1.285   0.739 -1.0056 -1.5270 -0.7895
 5113TIP3    H236831   3.804   1.208   0.867  0.2252 -0.8232 -0.1237
 5114TIP3   OH236832   2.681   6.186   4.306 -0.4305  0.0362  0.3158
 5114TIP3    H136833   2.744   6.253   4.330 -0.4025 -0.5576  1.9315
 5114TIP3    H236834   2.705   6.161   4.217  1.2391  0.2496  0.6999
 5115TIP3   OH236835   3.749   4.156   0.995  0.0115 -0.2446  0.1391
 5115TIP3    H136836   3.725   4.141   1.087  0.2554 -0.7709  0.1155
 5115TIP3    H236837   3.666   4.152   0.948  0.0733 -1.4607  0.1376
 5116TIP3   OH236838   0.817   1.668   4.237 -0.0588 -0.0296  0.2822
 5116TIP3    H136839   0.788   1.747   4.192 -0.0852 -0.4695 -0.4762
 5116TIP3    H236840   0.882   1.700   4.300 -0.9706  0.7407  0.8400
 5117TIP3   OH236841   0.976   3.378   3.366 -0.1955  0.4068 -0.3610
 5117TIP3    H136842   0.898   3.384   3.421  0.5421  0.4471  0.7007
 5117TIP3    H236843   0.953   3.315   3.298 -1.1858  0.4996 -0.1092
 5118TIP3   OH236844   5.378   5.714  15.366 -0.0702  0.0071 -0.2986
 5118TIP3    H136845   5.373   5.726  15.271 -2.9298 -1.9702 -0.4646
 5118TIP3    H236846   5.335   5.792  15.402  1.9264  1.2565 -0.5660
 5119TIP3   OH236847   5.279   2.117  14.109 -0.8911  0.4660  0.3965
 5119TIP3    H136848   5.223   2.041  14.120  0.4254 -0.5552  0.1700
 5119TIP3    H236849   5.226   2.179  14.059 -1.6791 -0.6396 -0.1682
 5120TIP3   OH236850   3.739   5.024   0.281 -0.2641 -0.1941  0.0438
 5120TIP3    H136851   3.724   5.106   0.233  0.6601 -1.0524 -1.7360
 5120TIP3    H236852   3.760   5.053   0.370  1.6127  1.6163 -0.9327
 5121TIP3   OH236853   5.592   2.321  10.947 -0.1637 -0.4894 -0.0481
 5121TIP3    H136854   5.583   2.226  10.954 -1.3674 -0.4713 -1.1209
 5121TIP3    H236855   5.530   2.346  10.878 -0.1067  1.1145  0.4581
 5122TIP3   OH236856   1.777   0.809   0.329  0.1981 -0.0106  0.0520
 5122TIP3    H136857   1.760   0.719   0.303  0.9241 -0.6177  1.5926
 5122TIP3    H236858   1.813   0.850   0.251  1.0621 -1.4091 -0.3105
 5123TIP3   OH236859   6.526   5.449  13.628  0.4032 -0.7195  0.2198
 5123TIP3    H136860   6.594   5.389  13.597 -0.9490 -2.0255 -0.2855
 5123TIP3    H236861   6.480   5.400  13.696 -0.0099  0.1610  0.5800
 5124TIP3   OH236862   3.883   1.146   5.797 -0.2510  0.3620 -0.1369
 5124TIP3    H136863   3.927   1.128   5.713 -1.7964 -0.2474 -0.8321
 5124TIP3    H236864   3.850   1.236   5.788 -1.5875 -0.1743 -0.7224
 5125TIP3   OH236865   5.649   4.185  11.953  0.4952  0.1085 -0.5816
 5125TIP3    H136866   5.555   4.200  11.948  0.1907 -0.4043  2.6340
 5125TIP3    H236867   5.664   4.106  11.901 -0.8842  0.0430 -0.8927
 5126TIP3   OH236868   5.533   0.583   3.914 -0.3318  0.0667  0.5992
 5126TIP3    H136869   5.473   0.512   3.888  1.6159 -1.8610  1.2100
 5126TIP3    H236870   5.485   0.631   3.981 -1.6096 -0.8265  0.3507
 5127TIP3   OH236871   5.921   2.967   3.471 -0.0261 -0.3575  0.0406
 5127TIP3    H136872   5.976   2.889   3.466  0.8813  0.3373 -1.0021
 5127TIP3    H236873   5.840   2.942   3.425  0.1572 -0.7636 -0.0666
 5128TIP3   OH236874   1.535   2.505   2.176  0.2791 -0.3046 -0.6565
 5128TIP3    H136875   1.486   2.523   2.256  0.1987 -0.9647 -0.5496
 5128TIP3    H236876   1.506   2.418   2.149 -0.4328  0.3414 -1.9729
 5129TIP3   OH236877   1.243   5.116  15.148  0.3221 -0.2682 -0.2313
 5129TIP3    H136878   1.248   5.155  15.235  0.7061  0.0079 -0.3748
 5129TIP3    H236879   1.255   5.190  15.088 -1.0937 -0.2708 -0.5371
 5130TIP3   OH236880   0.332   4.819   0.524  0.6396 -0.5799 -0.2632
 5130TIP3    H136881   0.338   4.855   0.436 -1.4852 -0.7194 -0.4711
 5130TIP3    H236882   0.424   4.810   0.552  1.3223 -0.4146 -2.3820
 5131TIP3   OH236883   4.321   2.536  15.691 -0.0951 -0.3661  0.3610
 5131TIP3    H136884   4.351   2.590  15.618  0.2567 -1.0578 -0.0068
 5131TIP3    H236885   4.400   2.518  15.742 -0.1593 -0.7892  0.3150
 5132TIP3   OH236886   4.908   5.183   2.475  0.4949 -0.0388  0.3678
 5132TIP3    H136887   4.822   5.145   2.459  0.4666  0.0924  0.1981
 5132TIP3    H236888   4.896   5.276   2.457  0.2046  0.2954  2.1516
 5133TIP3   OH236889   0.015   6.226  12.536 -0.6073 -0.4868  0.2502
 5133TIP3    H136890  -0.044   6.289  12.494  0.1410  0.0062 -0.0765
 5133TIP3    H236891  -0.012   6.141  12.502  0.3345 -0.0378 -1.6412
 5134TIP3   OH236892   3.882   2.389  14.549  0.2660 -0.4633  0.2965
 5134TIP3    H136893   3.799   2.420  14.510 -0.3819 -2.7559 -0.2049
 5134TIP3    H236894   3.932   2.355  14.475  1.4606  0.4024  0.6859
 5135TIP3   OH236895   2.268   3.730  14.313  0.3711  0.3156 -0.3585
 5135TIP3    H136896   2.247   3.788  14.240 -0.5922 -0.5090 -0.7520
 5135TIP3    H236897   2.183   3.711  14.353  0.5415 -1.8496 -1.0188
 5136TIP3   OH236898   0.500   1.035  16.229  0.7105 -0.1820 -0.6522
 5136TIP3    H136899   0.498   0.964  16.293  1.8423  0.3315 -0.0446
 5136TIP3    H236900   0.424   1.019  16.173  2.2581 -3.2564 -2.0019
 5137TIP3   OH236901   5.474   5.160   1.590  0.4210  0.1643 -0.2989
 5137TIP3    H136902   5.407   5.220   1.621 -1.1932 -2.0880  0.7531
 5137TIP3    H236903   5.540   5.159   1.659 -0.9957 -1.4564  1.0801
 5138TIP3   OH236904   5.183   2.116  15.540 -0.4016  0.4745 -0.6192
 5138TIP3    H136905   5.225   2.159  15.615 -0.7016 -0.0369 -0.1579
 5138TIP3    H236906   5.223   2.029  15.537 -1.8679 -0.2509  0.2196
 5139TIP3   OH236907   1.603   5.050  13.896  0.5955  0.5451  0.0490
 5139TIP3    H136908   1.553   5.014  13.970  0.6930 -1.5540 -0.8761
 5139TIP3    H236909   1.688   5.006  13.901 -0.2688 -1.5719 -2.7915
 5140TIP3   OH236910   0.816   5.219  15.009  0.3346 -0.5714  0.0319
 5140TIP3    H136911   0.804   5.284  15.078 -0.2723 -2.1522  1.4642
 5140TIP3    H236912   0.831   5.270  14.929 -0.2948  1.3027  1.0901
 5141TIP3   OH236913   0.127   0.242  13.527  0.7580  0.4220 -0.0677
 5141TIP3    H136914   0.067   0.173  13.497  0.1445  0.4401  1.1136
 5141TIP3    H236915   0.088   0.323  13.493 -0.6485  0.5792  1.8158
 5142TIP3   OH236916   6.633   3.246  13.309  0.1194 -0.2933  0.9254
 5142TIP3    H136917   6.666   3.301  13.380  0.0067 -0.0156  0.7643
 5142TIP3    H236918   6.622   3.306  13.235  0.1387 -0.5620  0.7033
 5143TIP3   OH236919   0.177   1.187  13.677 -0.2358  0.4770  0.6105
 5143TIP3    H136920   0.091   1.163  13.642  0.4922 -0.8295 -0.3120
 5143TIP3    H236921   0.163   1.273  13.717 -2.1628 -0.0895  1.2198
 5144TIP3   OH236922   4.391   5.791  13.086  0.0225 -0.0754 -0.3380
 5144TIP3    H136923   4.460   5.748  13.035 -0.0403 -2.9377  1.8929
 5144TIP3    H236924   4.438   5.833  13.159 -0.2625  0.9425 -0.7300
 5145TIP3   OH236925   0.725   0.856   0.239  0.3511 -0.2364 -0.3448
 5145TIP3    H136926   0.696   0.783   0.184  0.2443 -0.2299 -0.2966
 5145TIP3    H236927   0.707   0.827   0.328 -2.3644  0.9993 -0.4451
 5146TIP3   OH236928   5.486   3.341   3.141 -0.2256  0.2754 -0.1207
 5146TIP3    H136929   5.433   3.418   3.159 -0.4428  0.5071 -1.7321
 5146TIP3    H236930   5.499   3.300   3.227 -0.0569  2.1159  0.7388
 5147TIP3   OH236931   4.827   1.082  14.182 -0.6284  0.4815 -0.1284
 5147TIP3    H136932   4.869   1.012  14.232 -0.3398  0.3878 -0.4918
 5147TIP3    H236933   4.826   1.157  14.240  1.7990  1.0415 -0.7946
 5148TIP3   OH236934   5.818   4.718  13.352 -0.0809  0.1118  0.4412
 5148TIP3    H136935   5.773   4.636  13.373  1.7852 -1.6071 -2.0580
 5148TIP3    H236936   5.793   4.737  13.262  1.1531  1.1796  0.3070
 5149TIP3   OH236937   2.996   5.499   1.602 -1.0011 -0.1185  0.0153
 5149TIP3    H136938   3.090   5.483   1.605 -0.8409  0.9498  0.8998
 5149TIP3    H236939   2.962   5.432   1.542  0.0873 -1.5403  0.9637
 5150TIP3   OH236940   5.157   4.022   3.389 -0.9005 -0.0399 -0.2972
 5150TIP3    H136941   5.232   3.972   3.357 -0.9405 -0.8596  0.8525
 5150TIP3    H236942   5.081   3.968   3.368 -0.8591 -1.0252  1.9549
 5151TIP3   OH236943   5.886   2.611   2.492  0.6770  0.4087  0.5985
 5151TIP3    H136944   5.848   2.699   2.484 -0.1953  0.1602  1.9101
 5151TIP3    H236945   5.962   2.613   2.434 -0.0127  1.6527 -0.2907
 5152TIP3   OH236946   4.747   2.686   0.557 -0.2014  0.5000  0.0076
 5152TIP3    H136947   4.779   2.629   0.626 -0.6083 -1.9326 -1.7388
 5152TIP3    H236948   4.707   2.760   0.603  0.7526 -0.3794  2.3181
 5153TIP3   OH236949   3.719   5.310   0.839  0.3425  0.1175  0.0620
 5153TIP3    H136950   3.703   5.225   0.879 -2.5065  0.7967  0.4837
 5153TIP3    H236951   3.791   5.295   0.778 -1.1385 -2.9547 -1.0102
 5154TIP3   OH236952   2.819   3.741   3.755 -0.7751 -0.5609  0.4495
 5154TIP3    H136953   2.754   3.700   3.699  1.6846 -1.4575 -1.8481
 5154TIP3    H236954   2.896   3.685   3.748  0.6903  1.1682  2.0567
 5155TIP3   OH236955   5.296   2.185   1.559  0.4636 -0.1255 -0.5570
 5155TIP3    H136956   5.338   2.190   1.473  0.0067 -2.0504 -0.9033
 5155TIP3    H236957   5.360   2.140   1.615  0.7268  1.0420  0.1229
 5156TIP3   OH236958   0.448   5.780  17.047  0.0681  0.2268  0.5420
 5156TIP3    H136959   0.395   5.701  17.036  1.2526 -0.7154  1.4920
 5156TIP3    H236960   0.452   5.794  17.142  1.3065  0.4406  0.4631
 5157TIP3   OH236961   2.518   5.327   5.422  0.5511 -0.1940 -0.2206
 5157TIP3    H136962   2.561   5.295   5.502  1.0306  0.1427 -0.3376
 5157TIP3    H236963   2.425   5.331   5.444  0.7560  0.5653  0.5579
 5158TIP3   OH236964   4.174   6.391   5.066 -0.3836 -0.2775 -0.4526
 5158TIP3    H136965   4.144   6.349   4.986  2.5987 -0.5813 -1.4798
 5158TIP3    H236966   4.143   6.335   5.137 -1.7788 -0.8011 -1.4626
 5159TIP3   OH236967   0.100   2.175  12.237  0.1356 -0.0615  0.0808
 5159TIP3    H136968   0.024   2.230  12.219  0.2147 -0.1921 -0.6709
 5159TIP3    H236969   0.111   2.122  12.158  0.8105 -0.2720  0.3097
 5160TIP3   OH236970   0.778   1.937   4.111  0.0435 -0.8558  0.0323
 5160TIP3    H136971   0.744   1.976   4.031  1.1226  2.2300  0.9862
 5160TIP3    H236972   0.737   1.987   4.182  1.1606 -1.7388  1.3362
 5161TIP3   OH236973   0.254   1.368  12.570 -0.2251 -0.2273  0.3074
 5161TIP3    H136974   0.297   1.447  12.602  0.6059 -0.8914  0.8640
 5161TIP3    H236975   0.207   1.396  12.491  0.3877  0.7303  0.2758
 5162TIP3   OH236976   0.695   4.176   6.099  0.4419  0.2036 -0.5380
 5162TIP3    H136977   0.768   4.116   6.116  0.7449  0.4049 -1.1394
 5162TIP3    H236978   0.732   4.246   6.047 -0.3078  0.0247 -1.3282
 5163TIP3   OH236979   1.728   6.128   5.658  0.3581 -0.1999  0.3026
 5163TIP3    H136980   1.668   6.122   5.733 -2.0769  0.2884 -1.5533
 5163TIP3    H236981   1.753   6.220   5.655  3.2200 -0.8470  2.5578
 5164TIP3   OH236982   0.621   0.053   6.013  0.3434  0.3182 -0.0241
 5164TIP3    H136983   0.698   0.091   6.055  0.4885 -0.0938  0.0923
 5164TIP3    H236984   0.547   0.083   6.064  0.5305 -0.2992  0.6203
 5165TIP3   OH236985   4.443   1.711   4.502  0.1507  0.4259  0.5340
 5165TIP3    H136986   4.355   1.739   4.476  0.1525 -0.2321 -0.2130
 5165TIP3    H236987   4.436   1.693   4.595 -0.0912  1.9617  0.8291
 5166TIP3   OH236988   0.465   0.231  13.025  0.3614 -0.2400 -0.0441
 5166TIP3    H136989   0.495   0.286  12.953 -0.6774  0.9736  0.4316
 5166TIP3    H236990   0.456   0.291  13.099  1.4959 -1.4876  1.1382
 5167TIP3   OH236991   6.207   0.010  16.184 -0.0388 -0.1810  0.0815
 5167TIP3    H136992   6.301   0.002  16.171 -0.1534 -0.9809 -0.2913
 5167TIP3    H236993   6.168  -0.042  16.113 -0.7575  0.2564  0.1467
 5168TIP3   OH236994   0.009   2.036   1.590 -0.4531  0.1634 -0.2179
 5168TIP3    H136995   0.045   2.089   1.661  0.3283  1.9092 -1.8656
 5168TIP3    H236996   0.070   1.962   1.582 -0.6231 -0.1131  0.9992
 5169TIP3   OH236997   5.496   5.084  16.305  0.2593  0.0368 -0.8118
 5169TIP3    H136998   5.512   5.122  16.391 -0.7213  1.0141 -1.0459
 5169TIP3    H236999   5.564   5.018  16.294  0.8338  0.4272  0.4025
 5170TIP3   OH237000   2.301   5.838  15.155  0.1804  0.2075 -0.1546
 5170TIP3    H137001   2.221   5.890  15.167 -0.7780 -1.7222  2.2777
 5170TIP3    H237002   2.352   5.887  15.090 -3.2796  1.1310 -2.3372
 5171TIP3   OH237003   6.589   4.954  12.129 -0.5096  0.2901 -0.1845
 5171TIP3    H137004   6.632   5.038  12.144  0.9428 -0.5125  0.3426
 5171TIP3    H237005   6.625   4.923  12.046  0.1408 -0.4908  0.3689
 5172TIP3   OH237006   3.152   2.237  13.030  0.9540 -0.3322  0.5141
 5172TIP3    H137007   3.079   2.219  13.089  0.9874 -1.7273  0.1635
 5172TIP3    H237008   3.227   2.252  13.088  0.8856 -1.2435  0.8581
 5173TIP3   OH237009   5.384   0.702   1.530  0.0127 -0.3998  0.1777
 5173TIP3    H137010   5.448   0.648   1.576 -0.1450 -1.8560 -1.2929
 5173TIP3    H237011   5.312   0.712   1.593 -0.0171 -2.0105  0.4149
 5174TIP3   OH237012   6.691   4.481   5.047  0.3553 -0.4674 -0.0259
 5174TIP3    H137013   6.612   4.530   5.023 -1.0463 -2.4784  0.2561
 5174TIP3    H237014   6.725   4.526   5.124 -1.5988 -0.6091  0.9668
 5175TIP3   OH237015   1.919   4.810   4.838 -0.0474 -0.6542  0.3073
 5175TIP3    H137016   1.871   4.729   4.852 -0.7449  0.0174  1.8407
 5175TIP3    H237017   1.958   4.830   4.923  2.7577 -1.0478 -0.8169
 5176TIP3   OH237018   4.557   6.295   0.628  0.4639 -0.4087  0.0912
 5176TIP3    H137019   4.604   6.219   0.594  0.9656  1.4658 -3.6031
 5176TIP3    H237020   4.624   6.352   0.665  0.6791  0.4419 -1.5748
 5177TIP3   OH237021   4.191   4.717   0.467 -0.5955  0.1642  0.4458
 5177TIP3    H137022   4.151   4.654   0.407  1.1346  0.0569 -0.6233
 5177TIP3    H237023   4.188   4.674   0.553 -1.3948 -0.4670  0.0981
 5178TIP3   OH237024   1.492   4.137  13.746  0.8332  0.3083 -0.6324
 5178TIP3    H137025   1.525   4.227  13.748 -1.2360  1.0620  0.8092
 5178TIP3    H237026   1.570   4.083  13.761  2.1689  1.8127 -1.9440
 5179TIP3   OH237027   2.846   2.049   0.815 -0.1447 -0.0230 -0.2576
 5179TIP3    H137028   2.841   2.044   0.720 -0.8966  1.8421 -0.3424
 5179TIP3    H237029   2.881   2.136   0.833  0.6520 -0.6078  1.1630
 5180TIP3   OH237030   0.408   1.122   1.582  0.2532  0.4634  0.5209
 5180TIP3    H137031   0.413   1.153   1.491 -0.1693 -1.6863 -0.2634
 5180TIP3    H237032   0.499   1.123   1.612  0.5846 -0.2116 -0.4250
 5181TIP3   OH237033   0.567   2.106  15.500 -0.4881  0.0775  0.0530
 5181TIP3    H137034   0.547   2.026  15.452 -1.8256 -0.0232  0.7438
 5181TIP3    H237035   0.488   2.160  15.490 -0.2026  0.6591  0.8914
 5182TIP3   OH237036   3.604   2.584   2.745 -0.0371  0.3246 -0.0813
 5182TIP3    H137037   3.686   2.562   2.790 -0.3901  1.4535  1.1697
 5182TIP3    H237038   3.579   2.668   2.783 -2.2593 -0.4506  0.1984
 5183TIP3   OH237039   1.322   3.202   5.413  0.0791 -0.1737 -0.6400
 5183TIP3    H137040   1.290   3.279   5.459  0.3513 -0.8835  0.7743
 5183TIP3    H237041   1.246   3.143   5.409  0.4532 -0.7144  0.2130
 5184TIP3   OH237042   1.688   0.980   4.213  0.1787 -0.0038  0.2022
 5184TIP3    H137043   1.612   0.922   4.212  0.9009 -0.9567  0.3761
 5184TIP3    H237044   1.664   1.051   4.152 -0.5069 -0.7189 -0.3767
 5185TIP3   OH237045   0.930   3.829   4.081  0.1552  0.5778 -0.3673
 5185TIP3    H137046   0.957   3.820   3.990 -0.4338  2.3096 -0.7404
 5185TIP3    H237047   0.845   3.873   4.076  0.1124  0.6654  1.0166
 5186TIP3   OH237048   2.473   4.088   2.659  0.4535 -0.4434  0.4787
 5186TIP3    H137049   2.441   4.009   2.702 -0.3249 -1.3865 -1.7515
 5186TIP3    H237050   2.404   4.153   2.675  0.5161 -0.5587  1.2512
 5187TIP3   OH237051   3.918   5.115  13.941 -0.6227 -0.0178 -0.3345
 5187TIP3    H137052   3.895   5.125  14.033 -2.2502 -0.8214 -0.6236
 5187TIP3    H237053   3.835   5.124  13.894  0.6220  3.6089 -2.0339
 5188TIP3   OH237054   0.492   3.314  13.728 -0.2270  0.1077  0.2185
 5188TIP3    H137055   0.413   3.358  13.759 -0.6685 -0.8208  0.4110
 5188TIP3    H237056   0.557   3.330  13.797 -1.3791 -2.4684  1.9777
 5189TIP3   OH237057   0.872   2.045  16.176  0.2001 -0.4339  0.4728
 5189TIP3    H137058   0.814   2.016  16.105  1.2235  0.5512 -0.8025
 5189TIP3    H237059   0.814   2.082  16.242 -0.6488  0.3262 -0.6899
 5190TIP3   OH237060   5.209   1.092  12.072  0.0093  0.6434 -0.6263
 5190TIP3    H137061   5.175   1.095  12.161 -0.9413 -0.0242 -0.9573
 5190TIP3    H237062   5.248   1.178  12.058 -0.9778  1.1933 -0.0074
 5191TIP3   OH237063   2.734   3.883   2.092 -0.5234  0.2160  0.1375
 5191TIP3    H137064   2.768   3.799   2.061  0.3900  0.3369  0.7873
 5191TIP3    H237065   2.756   3.945   2.023  0.1008  0.1886  0.3064
 5192TIP3   OH237066   4.106   2.444   2.832 -0.3780 -0.1336 -0.2159
 5192TIP3    H137067   4.096   2.471   2.923 -1.2389 -3.0641  0.6392
 5192TIP3    H237068   4.183   2.387   2.832 -0.8006 -0.7219 -1.1564
 5193TIP3   OH237069   3.750   2.653   0.386 -0.2562 -0.0694 -0.5252
 5193TIP3    H137070   3.756   2.651   0.290 -0.7752  0.2023 -0.5683
 5193TIP3    H237071   3.841   2.657   0.416 -0.0890 -0.2727 -1.0039
 5194TIP3   OH237072   4.757   3.751   3.216 -0.0445  0.3325 -0.1760
 5194TIP3    H137073   4.684   3.745   3.277  0.2844  0.6929  0.2608
 5194TIP3    H237074   4.718   3.785   3.135 -0.6614 -1.1109 -0.4858
 5195TIP3   OH237075   5.805   1.049   2.233  0.0817  0.1588 -0.3187
 5195TIP3    H137076   5.892   1.068   2.197 -0.2644  2.7232  0.1281
 5195TIP3    H237077   5.750   1.119   2.198 -1.3744 -0.3154  1.0308
 5196TIP3   OH237078   3.198   2.495  16.712 -0.6866 -0.5718  0.0130
 5196TIP3    H137079   3.241   2.445  16.642 -1.3894  0.1546 -0.9565
 5196TIP3    H237080   3.106   2.469  16.707 -1.0614  0.7899 -0.5074
 5197TIP3   OH237081   4.692   3.311   0.179 -0.0229 -0.0771  0.4045
 5197TIP3    H137082   4.617   3.362   0.148  0.0210 -1.6239 -2.4534
 5197TIP3    H237083   4.656   3.223   0.192  1.2411 -0.8209 -0.9401
 5198TIP3   OH237084   2.589   0.248   5.628  0.3909  0.8019 -0.0197
 5198TIP3    H137085   2.583   0.329   5.678  2.0704  0.5620  0.6174
 5198TIP3    H237086   2.679   0.248   5.595  0.0225 -0.2075 -1.0332
 5199TIP3   OH237087   4.649   0.699  13.266 -0.2399  0.1599  0.3763
 5199TIP3    H137088   4.693   0.661  13.341  0.2059  0.0505  0.0612
 5199TIP3    H237089   4.715   0.699  13.196 -1.0581 -0.9862 -0.4126
 5200TIP3   OH237090   1.511   0.605   2.508  0.0326  0.0593 -0.2768
 5200TIP3    H137091   1.595   0.645   2.485  0.0976  0.7547  1.1355
 5200TIP3    H237092   1.530   0.511   2.511  0.4105  0.0923 -1.3833
 5201TIP3   OH237093   5.534   4.578   3.166 -0.3288 -0.0994 -0.4191
 5201TIP3    H137094   5.517   4.514   3.097  0.3047  1.4456 -2.0487
 5201TIP3    H237095   5.500   4.661   3.131  1.7348  1.0977  0.2948
 5202TIP3   OH237096   4.018   0.342   4.327 -0.0161 -0.0124  0.1823
 5202TIP3    H137097   4.064   0.413   4.281  1.9997 -1.4500 -0.0704
 5202TIP3    H237098   3.936   0.333   4.279  0.9192  0.2936 -1.5386
 5203TIP3   OH237099   2.668   2.804  16.752 -0.1914 -0.0371  0.3240
 5203TIP3    H137100   2.681   2.898  16.767 -2.2050  0.4520 -0.8863
 5203TIP3    H237101   2.575   2.789  16.768  0.0096 -1.7474  0.0043
 5204TIP3   OH237102   0.007   1.893   4.341 -0.3824 -0.8040 -0.5600
 5204TIP3    H137103  -0.024   1.919   4.254 -3.0895  0.4090  0.7046
 5204TIP3    H237104  -0.066   1.913   4.399  1.5218 -1.2368  2.0682
 5205TIP3   OH237105   3.754   3.556   6.645 -0.3432 -0.2397  0.2739
 5205TIP3    H137106   3.783   3.484   6.589 -1.2119  0.0575 -0.5642
 5205TIP3    H237107   3.825   3.619   6.643  0.1318 -0.7671  0.4609
 5206TIP3   OH237108   0.448   0.405  11.815 -0.1647  0.3708  0.0079
 5206TIP3    H137109   0.442   0.311  11.832 -2.8284  0.3631 -0.6855
 5206TIP3    H237110   0.510   0.413  11.742  0.4256 -0.7974  0.3691
 5207TIP3   OH237111   4.337   1.674   4.201  0.6560 -0.0745  0.5621
 5207TIP3    H137112   4.333   1.752   4.145  1.7252 -0.7183 -0.4455
 5207TIP3    H237113   4.246   1.657   4.225  0.4271  1.5678  0.9124
 5208TIP3   OH237114   1.700   2.008  15.716  0.0640 -0.1591  0.4809
 5208TIP3    H137115   1.653   1.954  15.780 -2.0033 -0.2154 -1.0086
 5208TIP3    H237116   1.666   2.096  15.729 -1.7218 -0.4602 -1.6187
 5209TIP3   OH237117   3.328   3.801   5.326 -0.1499  0.3283 -0.2550
 5209TIP3    H137118   3.289   3.832   5.408 -0.7322 -2.6958  0.6821
 5209TIP3    H237119   3.416   3.771   5.352 -0.4073 -0.8125 -0.6733
 5210TIP3   OH237120   5.126   3.665  11.910  0.6466 -0.1370 -0.8159
 5210TIP3    H137121   5.092   3.575  11.907 -0.1440  0.1325 -0.0469
 5210TIP3    H237122   5.070   3.714  11.850 -0.5168  0.3551  0.6220
 5211TIP3   OH237123   2.713   6.221   4.660  0.2496  0.3734  0.0444
 5211TIP3    H137124   2.623   6.243   4.683 -0.6165 -1.0790 -1.8051
 5211TIP3    H237125   2.728   6.136   4.701  0.2098 -0.1410 -0.9910
 5212TIP3   OH237126   4.352   0.848  15.099  0.1413  0.1259  0.1142
 5212TIP3    H137127   4.446   0.836  15.105  0.2433  1.4627  1.5894
 5212TIP3    H237128   4.325   0.796  15.023  2.2103  0.5760 -0.9476
 5213TIP3   OH237129   3.901   0.697   3.900  0.3646  0.1550  0.3426
 5213TIP3    H137130   3.965   0.722   3.966  0.5223 -0.1011  0.2845
 5213TIP3    H237131   3.831   0.762   3.909  1.6131  1.7369 -1.0346
 5214TIP3   OH237132   5.487   0.978   5.653  0.2910 -0.7600 -0.4786
 5214TIP3    H137133   5.566   1.029   5.670  0.1874 -0.4858 -0.8329
 5214TIP3    H237134   5.501   0.896   5.702  0.5735 -0.5099 -0.1358
 5215TIP3   OH237135   5.737   1.358   0.775  0.3331 -0.1735 -0.2036
 5215TIP3    H137136   5.805   1.380   0.711 -1.0975  0.9904 -1.3515
 5215TIP3    H237137   5.691   1.284   0.738 -0.7298  0.7301 -0.7211
 5216TIP3   OH237138   2.687   2.231  13.759 -0.6437  0.1682  0.2295
 5216TIP3    H137139   2.729   2.298  13.704  1.4632 -0.4705  1.0082
 5216TIP3    H237140   2.713   2.148  13.719 -0.0952 -0.2694  1.4842
 5217TIP3   OH237141   5.656   3.509  14.934 -0.4977  0.2808  0.0118
 5217TIP3    H137142   5.637   3.577  14.998 -0.9698 -0.0691  0.2412
 5217TIP3    H237143   5.675   3.557  14.853 -0.9516  0.6809  0.1411
 5218TIP3   OH237144   1.007   4.106   1.226 -0.1864 -0.3323 -0.6192
 5218TIP3    H137145   0.965   4.041   1.283 -0.4207 -0.6836 -1.1900
 5218TIP3    H237146   0.965   4.094   1.141  1.3314 -0.9370 -1.2924
 5219TIP3   OH237147   1.081   1.538   3.145  0.0023  0.2372  0.0349
 5219TIP3    H137148   1.172   1.508   3.152  0.0541  0.5499  0.8602
 5219TIP3    H237149   1.048   1.497   3.066  1.6306  2.1356 -1.6917
 5220TIP3   OH237150   1.552   1.777  13.568 -0.6458  0.3388 -0.1432
 5220TIP3    H137151   1.549   1.829  13.487 -0.9361 -0.3718 -0.5998
 5220TIP3    H237152   1.645   1.771  13.589 -0.6331  1.3574  0.1295
 5221TIP3   OH237153   3.441   1.413   3.362 -0.2785  0.6887 -0.0435
 5221TIP3    H137154   3.480   1.465   3.432 -1.0865  0.1658  0.8052
 5221TIP3    H237155   3.364   1.463   3.335  0.0306  0.8905 -0.5859
 5222TIP3   OH237156   4.817   1.267   2.672  0.3303 -0.1593  0.9826
 5222TIP3    H137157   4.746   1.317   2.712  1.2581  0.7995  1.4672
 5222TIP3    H237158   4.871   1.237   2.745  0.9060 -0.1209  0.5867
 5223TIP3   OH237159   3.315   0.350   2.073  0.1643 -0.1704 -0.1146
 5223TIP3    H137160   3.409   0.354   2.056  0.2100  0.0119  0.1838
 5223TIP3    H237161   3.298   0.257   2.086 -0.4983 -0.8179 -4.6914
 5224TIP3   OH237162   3.875   0.736   1.027 -0.6434 -0.1025 -0.2418
 5224TIP3    H137163   3.839   0.815   0.988  2.1702  1.2123 -0.2973
 5224TIP3    H237164   3.898   0.761   1.116  2.1797 -0.1889 -0.8789
 5225TIP3   OH237165   1.179   1.359   1.983 -0.3987  0.1232  0.1491
 5225TIP3    H137166   1.240   1.427   1.954 -0.7486  1.5122  2.6339
 5225TIP3    H237167   1.234   1.281   1.991  0.6536  0.8807  0.4523
 5226TIP3   OH237168   3.029   6.519   1.209  0.2261  0.3910  0.0848
 5226TIP3    H137169   3.063   6.460   1.141  0.1590  1.4581 -0.8891
 5226TIP3    H237170   3.036   6.469   1.290 -1.0850 -1.4624 -0.9113
 5227TIP3   OH237171   2.841   5.943  11.250  0.4578  0.4246 -0.3004
 5227TIP3    H137172   2.843   6.038  11.253  0.6727  0.3732  2.1665
 5227TIP3    H237173   2.931   5.917  11.272  0.1090 -0.3607  0.1998
 5228TIP3   OH237174   4.045   0.332  11.433  0.7694 -0.2793 -1.2913
 5228TIP3    H137175   4.014   0.415  11.398 -0.2872 -0.0049  0.1996
 5228TIP3    H237176   3.965   0.278  11.440  0.4780  0.5253  2.8947
 5229TIP3   OH237177   3.846   1.440   6.099 -0.0728  0.0670 -0.5936
 5229TIP3    H137178   3.927   1.479   6.066  0.6452  0.8073  1.9764
 5229TIP3    H237179   3.875   1.363   6.149 -0.9287  0.5311  0.6194
 5230TIP3   OH237180   5.463   6.431   2.603 -0.5591  0.2712  0.0840
 5230TIP3    H137181   5.387   6.462   2.651 -1.7311  0.2082 -1.6586
 5230TIP3    H237182   5.511   6.510   2.579 -0.9198  0.4293 -0.1292
 5231TIP3   OH237183   2.555   3.099  14.933  0.6351 -0.1868  0.3894
 5231TIP3    H137184   2.596   3.034  14.876  0.8298  0.5153 -0.2811
 5231TIP3    H237185   2.526   3.168  14.873  1.1059  0.6919  1.1694
 5232TIP3   OH237186   4.152   6.147   0.469  0.7165 -0.2260  0.5312
 5232TIP3    H137187   4.164   6.211   0.399 -0.3669  0.3220  0.8231
 5232TIP3    H237188   4.122   6.068   0.425  2.8598 -0.8145  0.0758
 5233TIP3   OH237189   1.470   5.763  11.521 -0.0003  0.0551  0.8783
 5233TIP3    H137190   1.381   5.758  11.485  0.2095 -2.1821  0.6231
 5233TIP3    H237191   1.466   5.837  11.582 -2.2713 -0.4906  1.4586
 5234TIP3   OH237192   5.601   6.409   0.603 -0.5263  0.1631 -0.1971
 5234TIP3    H137193   5.675   6.395   0.544 -2.3668  0.3646 -2.6103
 5234TIP3    H237194   5.550   6.329   0.597 -2.3222  1.3488 -1.2505
 5235TIP3   OH237195   2.781   6.684  14.901  0.1865  0.0194 -0.0318
 5235TIP3    H137196   2.869   6.719  14.882  0.0982  1.2203  1.6571
 5235TIP3    H237197   2.771   6.611  14.841  2.3702 -0.1369 -0.2433
 5236TIP3   OH237198   1.846   0.469  16.786  0.5262  0.3794 -0.1507
 5236TIP3    H137199   1.799   0.423  16.856  0.8223  0.8614  0.3710
 5236TIP3    H237200   1.922   0.508  16.830  0.9034  0.3925 -0.8120
 5237TIP3   OH237201   3.815   0.093  15.136 -0.1070 -0.2510 -0.3139
 5237TIP3    H137202   3.832  -0.001  15.127  1.2424 -0.1844  1.3023
 5237TIP3    H237203   3.729   0.106  15.097 -1.0476 -2.4392  0.9916
 5238TIP3   OH237204   6.150   5.690  14.094 -0.0349 -0.4744 -0.1823
 5238TIP3    H137205   6.088   5.712  14.164  1.7374  1.5221  0.7953
 5238TIP3    H237206   6.181   5.774  14.062  1.6872 -1.4332 -1.1007
 5239TIP3   OH237207   1.925   2.922  16.722 -0.0325  0.1791 -0.1483
 5239TIP3    H137208   1.836   2.907  16.755  0.4848  0.1633  1.3064
 5239TIP3    H237209   1.923   3.011  16.687 -0.6106  0.2085 -0.0458
 5240TIP3   OH237210   3.186   1.694   2.460 -0.1965  0.0491 -0.6281
 5240TIP3    H137211   3.276   1.687   2.427 -0.2871  0.3561 -0.9377
 5240TIP3    H237212   3.147   1.764   2.409 -0.9663 -0.8616 -1.2993
 5241TIP3   OH237213   3.332   6.546   3.629 -0.5683  0.2295  0.1801
 5241TIP3    H137214   3.325   6.481   3.558 -0.5091 -0.3702  0.7180
 5241TIP3    H237215   3.266   6.612   3.607 -1.7523 -0.8355  0.4803
 5242TIP3   OH237216   4.080   5.865   1.814  0.1608  0.2022  0.3705
 5242TIP3    H137217   4.007   5.807   1.795 -0.6101  1.1359  0.4756
 5242TIP3    H237218   4.099   5.850   1.907 -1.9863  2.3009  1.1703
 5243TIP3   OH237219   1.696   1.561  11.020 -0.3459 -0.1667 -0.0079
 5243TIP3    H137220   1.714   1.468  11.008  2.5690  0.1236  1.5944
 5243TIP3    H237221   1.782   1.602  11.024 -1.5659  2.8107 -1.8839
 5244TIP3   OH237222   1.019   6.073   2.421 -0.7534 -0.3582  0.4109
 5244TIP3    H137223   1.020   6.123   2.503  3.0398 -0.8791  0.7923
 5244TIP3    H237224   1.022   5.981   2.449  3.1736 -0.5075 -0.1774
 5245TIP3   OH237225   3.712   4.482   3.002  0.1002 -0.3888 -0.5675
 5245TIP3    H137226   3.805   4.462   3.011  0.4074 -0.3470 -3.0937
 5245TIP3    H237227   3.708   4.577   3.005  0.1800 -0.3812 -0.6729
 5246TIP3   OH237228   5.409   0.883   2.822  0.2389  0.1664 -0.0903
 5246TIP3    H137229   5.490   0.884   2.873  0.2529  2.3262 -0.1236
 5246TIP3    H237230   5.438   0.872   2.731  0.3765 -0.7341  0.0523
 5247TIP3   OH237231   3.455   3.378  15.530 -0.5849 -0.1590 -0.3317
 5247TIP3    H137232   3.521   3.335  15.584  0.1478  1.4841  0.1012
 5247TIP3    H237233   3.497   3.389  15.445 -0.2675  0.9240 -0.0437
 5248TIP3   OH237234   4.672   5.076   2.341  0.1766 -0.2745  0.0698
 5248TIP3    H137235   4.640   5.133   2.271  0.1784  0.1756  0.4291
 5248TIP3    H237236   4.739   5.022   2.300  0.7499  0.5480 -0.0910
 5249TIP3   OH237237   4.170   3.970   0.557 -0.3910  0.3923 -0.2633
 5249TIP3    H137238   4.168   3.997   0.649  2.1929 -1.4733  0.3764
 5249TIP3    H237239   4.134   3.881   0.557 -0.1197  0.2827 -1.0401
 5250TIP3   OH237240   2.895   0.639   0.040  1.0668  0.1950  0.5876
 5250TIP3    H137241   2.879   0.728   0.011  0.3592  1.1327  3.6286
 5250TIP3    H237242   2.973   0.611  -0.008  0.4258  1.8850 -1.5014
 5251TIP3   OH237243   4.179   0.117   3.548  0.7290  0.0631 -0.0219
 5251TIP3    H137244   4.221   0.180   3.490  0.5056 -0.4885 -0.7900
 5251TIP3    H237245   4.126   0.062   3.490 -1.5563  1.1521  0.9927
 5252TIP3   OH237246   0.925   4.742  13.581 -0.2327  0.2302 -0.0592
 5252TIP3    H137247   0.943   4.799  13.656  0.3589 -0.1266  0.0751
 5252TIP3    H237248   0.887   4.663  13.620 -0.8531  0.4486 -0.2254
 5253TIP3   OH237249   6.697   6.572   0.909  0.0216 -0.0201 -0.0954
 5253TIP3    H137250   6.617   6.529   0.878  0.2425 -0.8809  0.4863
 5253TIP3    H237251   6.766   6.509   0.888  0.3976  0.2209  0.4368
 5254TIP3   OH237252   3.234   0.929  14.604  0.4759  0.9394 -0.1903
 5254TIP3    H137253   3.295   0.871  14.559 -0.6260  0.0791 -0.5850
 5254TIP3    H237254   3.154   0.877  14.614 -1.0512  2.8641 -1.8919
 5255TIP3   OH237255   5.461   0.694  11.590 -0.2851  0.5139  0.1611
 5255TIP3    H137256   5.404   0.662  11.660 -0.2617  1.2248  0.5074
 5255TIP3    H237257   5.405   0.694  11.512 -0.5425  0.4838  0.3437
 5256TIP3   OH237258   1.741   3.394   4.574  0.2744 -0.1134 -0.3735
 5256TIP3    H137259   1.752   3.466   4.635 -2.5980 -1.2102  1.4974
 5256TIP3    H237260   1.752   3.434   4.487  0.3621  2.2307  0.6983
 5257TIP3   OH237261   4.071   2.508   2.195 -0.2882 -0.2780 -0.7021
 5257TIP3    H137262   4.013   2.570   2.238  0.4868 -0.8149  1.1725
 5257TIP3    H237263   4.128   2.476   2.265  0.7010 -1.5254 -2.0453
 5258TIP3   OH237264   2.240   3.527  13.643  0.3125  0.1796 -0.1337
 5258TIP3    H137265   2.232   3.438  13.611 -1.2082 -0.3682  1.6187
 5258TIP3    H237266   2.230   3.519  13.738 -1.5406  2.3653 -0.0854
 5259TIP3   OH237267   1.147   2.591   1.416  0.1657 -0.3064  0.3415
 5259TIP3    H137268   1.227   2.607   1.467  0.4438 -0.4506 -0.0530
 5259TIP3    H237269   1.082   2.563   1.481  0.8086 -1.5015  0.4770
 5260TIP3   OH237270   1.652   3.927   4.070  0.2554  0.1422  0.5527
 5260TIP3    H137271   1.724   3.864   4.075  0.0085 -0.0717  1.3911
 5260TIP3    H237272   1.629   3.945   4.161  0.5926  1.7588  0.3250
 5261TIP3   OH237273   5.234   1.091  13.013 -0.4668  0.2733  0.1183
 5261TIP3    H137274   5.247   1.098  13.107  0.8596  1.6114 -0.1529
 5261TIP3    H237275   5.149   1.132  12.997 -0.5951  0.2341  0.6957
 5262TIP3   OH237276   4.880   1.894  15.265 -0.0769 -0.0750 -0.1349
 5262TIP3    H137277   4.924   1.975  15.290  1.0747 -0.5238 -0.6386
 5262TIP3    H237278   4.867   1.903  15.170 -1.0733  0.0460  0.0066
 5263TIP3   OH237279   1.066   6.016  15.346 -0.0713 -0.1144 -0.1585
 5263TIP3    H137280   1.103   5.930  15.326  0.2452  0.1894 -0.9019
 5263TIP3    H237281   1.014   6.002  15.425 -0.3965 -1.0837 -0.5343
 5264TIP3   OH237282   6.138   5.065   4.247 -0.0687  0.3368 -0.3486
 5264TIP3    H137283   6.076   5.032   4.312  1.0350 -0.6097  0.2462
 5264TIP3    H237284   6.223   5.060   4.290  0.2225  3.5739 -0.4119
 5265TIP3   OH237285   5.188   2.709  11.496  0.3457 -0.4290  0.0457
 5265TIP3    H137286   5.160   2.623  11.527  1.5012 -0.9305 -0.2977
 5265TIP3    H237287   5.116   2.767  11.520 -0.3971 -1.4687  0.3739
 5266TIP3   OH237288   1.393   2.354  11.201 -0.0097 -0.1608 -0.4829
 5266TIP3    H137289   1.450   2.411  11.150 -0.4511 -1.0904 -2.0613
 5266TIP3    H237290   1.320   2.410  11.227  1.2395  0.8522  0.9552
 5267TIP3   OH237291   4.762   1.045   0.027  0.0975 -0.0948  0.2087
 5267TIP3    H137292   4.698   0.998   0.081  0.7469  0.8170  1.8000
 5267TIP3    H237293   4.844   1.037   0.075  0.1439  2.9259  0.6910
 5268TIP3   OH237294   4.864   1.384   1.739  0.6809 -0.3271 -0.1872
 5268TIP3    H137295   4.798   1.326   1.702  1.7358 -1.4659 -0.3241
 5268TIP3    H237296   4.880   1.349   1.827  0.3826  0.5467  0.2187
 5269TIP3   OH237297   3.808   2.499   4.384 -0.3203  0.0076 -0.0405
 5269TIP3    H137298   3.904   2.499   4.380 -0.3324  0.1435 -0.3739
 5269TIP3    H237299   3.788   2.499   4.478  0.0051  1.6770  0.0534
 5270TIP3   OH237300   4.556   6.581   0.924  0.2984 -0.0634  0.1436
 5270TIP3    H137301   4.606   6.546   0.850 -0.7737 -0.4144 -0.4393
 5270TIP3    H237302   4.598   6.665   0.944  1.5152 -0.6595  0.1070
 5271TIP3   OH237303   4.050   6.392  16.826  0.0632  0.1273  0.1215
 5271TIP3    H137304   4.066   6.397  16.732 -2.1456  2.5997 -0.1668
 5271TIP3    H237305   4.136   6.376  16.865  1.3654  1.4843 -2.1345
 5272TIP3   OH237306   2.966   0.499  11.794  0.2962  0.1096 -0.3573
 5272TIP3    H137307   2.979   0.547  11.876  2.2468  1.5023 -1.4239
 5272TIP3    H237308   2.891   0.543  11.753 -1.4827 -1.3946  1.2140
 5273TIP3   OH237309   2.639   1.610   4.581 -0.0511 -0.5632 -0.7117
 5273TIP3    H137310   2.615   1.580   4.668  0.6400 -1.2397 -0.7545
 5273TIP3    H237311   2.577   1.567   4.522 -0.3586 -0.3018 -0.5779
 5274TIP3   OH237312   5.377   3.930   2.122  0.1063  0.1653  0.4966
 5274TIP3    H137313   5.429   3.884   2.056 -0.9929 -0.8816  0.3365
 5274TIP3    H237314   5.295   3.880   2.126 -1.9667  3.3053 -1.1962
 5275TIP3   OH237315   0.374   5.109   6.497 -0.3114 -0.5324 -0.2070
 5275TIP3    H137316   0.296   5.140   6.451  0.1007  0.6894 -0.0863
 5275TIP3    H237317   0.358   5.015   6.509 -1.6435 -0.3462 -0.4183
 5276TIP3   OH237318   0.989   0.604   1.452 -0.3065  0.0179  0.1583
 5276TIP3    H137319   1.033   0.597   1.367 -1.0169  0.1157 -0.2211
 5276TIP3    H237320   0.896   0.595   1.431 -0.7085  2.9259  0.5740
 5277TIP3   OH237321   5.077   2.120   5.715 -0.5306  0.4243  0.7560
 5277TIP3    H137322   4.994   2.151   5.679  0.0516  0.0554 -0.9531
 5277TIP3    H237323   5.143   2.172   5.670  0.2837 -0.9463  0.3435
 5278TIP3   OH237324   3.087   3.172  11.990 -0.5645 -0.2666 -0.0462
 5278TIP3    H137325   3.008   3.129  11.957 -0.8810 -0.3804  0.8369
 5278TIP3    H237326   3.091   3.146  12.082 -1.0888  2.0506  0.6793
 5279TIP3   OH237327   3.566   6.580  13.597 -0.1932 -0.5473 -0.3735
 5279TIP3    H137328   3.488   6.543  13.556 -0.2472 -1.5623  0.6260
 5279TIP3    H237329   3.639   6.529  13.562 -0.0531 -0.1857 -0.6208
 5280TIP3   OH237330   4.138   1.970  13.161 -0.1767 -0.0275  0.9136
 5280TIP3    H137331   4.058   1.919  13.149 -0.0197 -0.2300  0.7106
 5280TIP3    H237332   4.208   1.913  13.129 -0.3415  1.5227 -2.4657
 5281TIP3   OH237333   4.514   2.333  16.776  0.0137  0.2943 -0.0630
 5281TIP3    H137334   4.549   2.366  16.692  1.5908 -0.5887  0.2298
 5281TIP3    H237335   4.519   2.409  16.835 -0.1096  0.6229 -0.4686
 5282TIP3   OH237336   1.678   5.397   2.393 -0.2893  0.6634 -0.4281
 5282TIP3    H137337   1.764   5.425   2.363  0.4500 -3.1391 -2.1612
 5282TIP3    H237338   1.696   5.335   2.464 -1.6911  1.2061  0.4219
 5283TIP3   OH237339   4.119   4.870  16.278  0.3815 -0.1891 -0.4657
 5283TIP3    H137340   4.086   4.814  16.207  0.8103  1.5758 -2.1065
 5283TIP3    H237341   4.051   4.868  16.345 -0.3248 -1.3717 -1.2067
 5284TIP3   OH237342   4.335   2.633   0.486  0.1739 -0.5290 -0.0380
 5284TIP3    H137343   4.260   2.587   0.524 -0.6428  0.8029  0.0119
 5284TIP3    H237344   4.411   2.580   0.510 -0.6797 -1.4971  0.5539
 5285TIP3   OH237345   5.211   3.484  14.124 -0.0233  0.2433 -0.2446
 5285TIP3    H137346   5.134   3.517  14.170 -1.2290 -1.2200 -1.1740
 5285TIP3    H237347   5.215   3.391  14.146  2.2592  0.5537  0.8471
 5286TIP3   OH237348   0.530   5.863  11.270 -0.0129  0.0757 -0.1060
 5286TIP3    H137349   0.436   5.844  11.264 -0.0256 -0.4683  1.5188
 5286TIP3    H237350   0.561   5.807  11.341  1.8066 -0.7197 -1.4959
 5287TIP3   OH237351   2.773   5.181   1.481  0.1821  0.0180 -0.1650
 5287TIP3    H137352   2.736   5.189   1.569 -1.7119  1.2746 -1.0406
 5287TIP3    H237353   2.709   5.130   1.432  0.4828  0.6348 -1.2218
 5288TIP3   OH237354   4.774   5.317  15.651 -0.1553  0.1216 -0.5116
 5288TIP3    H137355   4.824   5.392  15.619 -1.7253  0.9425 -1.0774
 5288TIP3    H237356   4.826   5.284  15.725  0.8522  1.3914 -0.6317
 5289TIP3   OH237357   0.715   3.078  13.838 -0.5559  0.0157 -0.2014
 5289TIP3    H137358   0.727   3.150  13.900 -1.4510 -0.9465  1.1150
 5289TIP3    H237359   0.770   3.008  13.872 -0.2380 -0.1624 -1.0797
 5290TIP3   OH237360   2.090   2.264   3.331 -0.0633 -0.0722 -0.4018
 5290TIP3    H137361   2.052   2.256   3.243 -0.4626  0.9044 -0.3260
 5290TIP3    H237362   2.184   2.266   3.317 -0.1003 -0.6418 -0.7479
 5291TIP3   OH237363   5.590   3.870  10.957  0.0042  0.0741 -0.3661
 5291TIP3    H137364   5.502   3.836  10.973  0.0647  1.3414  3.1085
 5291TIP3    H237365   5.649   3.799  10.986  0.1237  0.2471 -0.1848
 5292TIP3   OH237366   0.639   2.751   0.171 -0.2587  0.0155  0.0924
 5292TIP3    H137367   0.625   2.802   0.091  1.5570  2.2777  1.1700
 5292TIP3    H237368   0.689   2.808   0.228  0.8580 -2.5759  1.8209
 5293TIP3   OH237369   1.893   2.603  17.135 -0.3961 -0.4013 -0.0027
 5293TIP3    H137370   1.875   2.600  17.041 -0.3079 -0.3213 -0.0232
 5293TIP3    H237371   1.989   2.603  17.140 -0.3683 -2.4398  0.1349
 5294TIP3   OH237372   0.916   1.112   3.648 -0.2683  0.3940  0.5299
 5294TIP3    H137373   0.845   1.175   3.636  0.5420  1.3263  0.5591
 5294TIP3    H237374   0.943   1.089   3.559 -0.3259  0.3597  0.5212
 5295TIP3   OH237375   6.701   5.252   1.126  0.1895  0.0249 -0.3097
 5295TIP3    H137376   6.610   5.282   1.121 -0.3461 -1.4837  0.2285
 5295TIP3    H237377   6.752   5.326   1.092 -1.1636  1.2092  0.1835
 5296TIP3   OH237378   1.855   1.631   2.519 -0.2229 -0.5396 -0.9534
 5296TIP3    H137379   1.824   1.610   2.607 -2.9218  1.1264 -1.4651
 5296TIP3    H237380   1.938   1.676   2.533 -1.7967  1.9057  0.9118
 5297TIP3   OH237381   1.671   2.861  16.826  0.4551 -0.1704  0.3709
 5297TIP3    H137382   1.630   2.777  16.804  0.4707  0.1674 -0.9821
 5297TIP3    H237383   1.599   2.913  16.862 -0.5075  0.6551 -2.6144
 5298TIP3   OH237384   3.405   5.773   2.329 -0.4702  0.0720  1.0271
 5298TIP3    H137385   3.480   5.759   2.271 -0.7224  0.8672  0.4906
 5298TIP3    H237386   3.348   5.831   2.279 -1.1881 -0.0967  1.6560
 5299TIP3   OH237387   0.582   4.308  14.049  0.1836  0.1316 -0.0329
 5299TIP3    H137388   0.493   4.326  14.021  0.0110  0.2370  0.5796
 5299TIP3    H237389   0.620   4.256  13.978 -0.3699  0.0711 -0.2828
 5300TIP3   OH237390   6.453   5.330   3.036 -0.0150 -0.3535  0.0805
 5300TIP3    H137391   6.465   5.259   3.099  3.2529  0.8033  0.8448
 5300TIP3    H237392   6.474   5.291   2.952 -0.0342 -0.7382  0.2519
 5301TIP3   OH237393   0.343   3.429  16.050 -0.0433  0.0531 -0.5243
 5301TIP3    H137394   0.334   3.414  15.955  0.0248  2.7520 -0.9991
 5301TIP3    H237395   0.433   3.403  16.070 -0.0754 -0.5936 -1.1695
 5302TIP3   OH237396   2.008   2.589  11.832 -0.3754  0.2073  0.5476
 5302TIP3    H137397   2.018   2.515  11.892 -0.2398  0.4637  0.8453
 5302TIP3    H237398   2.086   2.643  11.849  0.8028 -0.8299 -1.4335
 5303TIP3   OH237399   5.292   0.328   6.226  0.3379  0.1553 -0.2707
 5303TIP3    H137400   5.329   0.379   6.153 -0.9352  0.9837 -0.3480
 5303TIP3    H237401   5.266   0.245   6.187  0.0822  0.4177 -0.6580
 5304TIP3   OH237402   6.752   1.212   4.562 -0.1725 -0.2782 -0.1791
 5304TIP3    H137403   6.828   1.215   4.619 -0.3118 -0.2365  0.0060
 5304TIP3    H237404   6.731   1.304   4.545 -1.6775 -0.2273  1.7796
 5305TIP3   OH237405   5.844   2.254  13.362 -0.1077  0.1386 -0.0956
 5305TIP3    H137406   5.914   2.248  13.297  0.0608 -1.9767  0.2472
 5305TIP3    H237407   5.863   2.334  13.410  1.0255  0.5622 -1.2096
 5306TIP3   OH237408   3.221   3.371   3.224 -0.0834  0.3186  0.0648
 5306TIP3    H137409   3.266   3.298   3.181 -1.0626  0.4179 -1.1832
 5306TIP3    H237410   3.128   3.354   3.207 -0.4847  0.4075  2.1075
 5307TIP3   OH237411   5.525   1.769   4.052 -0.1331  0.3931  0.1610
 5307TIP3    H137412   5.476   1.732   4.126 -2.1462  0.7007 -0.9960
 5307TIP3    H237413   5.569   1.695   4.012 -1.2603 -0.1958  0.0104
 5308TIP3   OH237414   3.218   6.713  15.699  0.0448  0.1108  0.3163
 5308TIP3    H137415   3.266   6.656  15.639 -0.8520  2.3323 -2.6153
 5308TIP3    H237416   3.127   6.688  15.690 -0.3394  1.8545 -0.8802
 5309TIP3   OH237417   3.506   2.263   4.555  0.2431  0.4015  0.2467
 5309TIP3    H137418   3.538   2.280   4.644 -1.7402  0.9971  0.8658
 5309TIP3    H237419   3.415   2.293   4.556 -0.3242 -1.1867 -1.4882
 5310TIP3   OH237420   4.478   3.968   2.701  0.3794  1.0023  0.2972
 5310TIP3    H137421   4.416   3.968   2.774  1.5951  2.6252  1.3497
 5310TIP3    H237422   4.535   3.892   2.719 -0.6969  0.0624 -0.1825
 5311TIP3   OH237423   3.240   3.177  11.724  0.7272  1.0499 -0.5679
 5311TIP3    H137424   3.193   3.153  11.804 -0.4007  0.8012 -1.2947
 5311TIP3    H237425   3.282   3.096  11.695  0.8856  1.0700 -0.3965
 5312TIP3   OH237426   1.490   4.929  11.884  0.6137 -0.2123  0.5117
 5312TIP3    H137427   1.521   4.941  11.795 -0.0982 -0.1872  0.2668
 5312TIP3    H237428   1.422   4.996  11.895  2.2843  1.3177  1.8253
 5313TIP3   OH237429   6.058   4.464  14.071 -1.0552 -0.3207  0.0825
 5313TIP3    H137430   6.064   4.553  14.106 -0.4326 -0.4233  0.2532
 5313TIP3    H237431   6.064   4.475  13.976  0.2029 -0.2560  0.1517
 5314TIP3   OH237432   0.140   1.762   1.167 -0.8166 -0.8371 -0.1989
 5314TIP3    H137433   0.169   1.819   1.239 -0.1387 -1.8373  0.3297
 5314TIP3    H237434   0.190   1.682   1.178 -1.6139 -1.4670 -1.0687
 5315TIP3   OH237435   0.369   2.750  12.267 -0.3471 -0.4294  0.5519
 5315TIP3    H137436   0.399   2.819  12.209 -0.9020 -1.0041 -0.4433
 5315TIP3    H237437   0.334   2.795  12.343 -1.6904  0.4342 -0.5596
 5316TIP3   OH237438   0.798   5.658   0.309  0.0235 -0.0250 -0.2432
 5316TIP3    H137439   0.769   5.745   0.284  0.6889  0.3208  0.1664
 5316TIP3    H237440   0.821   5.666   0.401 -1.8782 -1.1462  0.3535
 5317TIP3   OH237441   3.078   6.477  16.271 -0.1256  0.8693  0.1791
 5317TIP3    H137442   2.983   6.470  16.277  0.0470 -0.2531  1.9955
 5317TIP3    H237443   3.103   6.412  16.205 -0.5672  0.7083  0.1669
 5318TIP3   OH237444   5.964   3.356   2.145  0.7340 -0.2118  0.3943
 5318TIP3    H137445   5.993   3.438   2.104  0.8066 -0.5011 -0.1349
 5318TIP3    H237446   5.901   3.384   2.212  0.4085  0.2492 -0.0960
 5319TIP3   OH237447   2.697   5.153   3.895 -0.0776  0.2917 -0.3753
 5319TIP3    H137448   2.783   5.188   3.919 -0.6692  0.9325  0.8679
 5319TIP3    H237449   2.716   5.080   3.836  1.2701  1.2954 -1.2151
 5320TIP3   OH237450   5.977   4.576   5.219 -0.3088 -1.0377 -0.3089
 5320TIP3    H137451   5.926   4.521   5.279 -0.4161  0.2926  0.8562
 5320TIP3    H237452   6.054   4.602   5.270 -0.8677  0.8812 -0.4041
 5321TIP3   OH237453   4.370   4.569  13.165  0.5895  1.1595  0.2999
 5321TIP3    H137454   4.368   4.509  13.090  0.9276  0.4490  0.8515
 5321TIP3    H237455   4.423   4.523  13.231  1.4752  2.3808  0.4643
 5322TIP3   OH237456   2.403   5.546  11.688 -0.1738  0.5696 -0.4415
 5322TIP3    H137457   2.355   5.625  11.662 -3.6768 -1.4392 -0.3853
 5322TIP3    H237458   2.469   5.536  11.620  0.6908  3.7813 -0.1913
 5323TIP3   OH237459   6.438   6.770  17.098  0.8780 -0.5501  0.6061
 5323TIP3    H137460   6.471   6.820  17.173  0.7340  1.8604 -0.8698
 5323TIP3    H237461   6.510   6.773  17.034  0.1749 -0.6984 -0.1955
 5324TIP3   OH237462   6.448   5.350   4.930  0.5705 -0.2345 -0.3142
 5324TIP3    H137463   6.452   5.298   5.010  1.7842 -0.4186 -0.4880
 5324TIP3    H237464   6.422   5.287   4.862  0.3303 -0.2407 -0.2189
 5325TIP3   OH237465   5.853   4.310   1.483  0.3483 -0.2806 -0.5918
 5325TIP3    H137466   5.926   4.356   1.442 -0.5747 -0.1692 -2.1571
 5325TIP3    H237467   5.781   4.318   1.420 -0.9163 -0.6847  0.7604
 5326TIP3   OH237468   5.586   2.760  11.029 -0.3965  0.2772 -0.0034
 5326TIP3    H137469   5.590   2.727  11.118  0.5387 -1.6443 -0.7359
 5326TIP3    H237470   5.495   2.745  11.002 -1.2429  2.7910  1.3066
 5327TIP3   OH237471   1.558   3.412   6.304 -0.1380  0.1152  0.1748
 5327TIP3    H137472   1.628   3.448   6.249 -0.5326 -1.2403 -1.2359
 5327TIP3    H237473   1.602   3.387   6.385  0.8781 -0.0460 -0.4184
 5328TIP3   OH237474   1.648   1.888   0.682 -0.2610  0.2539  0.2657
 5328TIP3    H137475   1.680   1.843   0.761  1.7635  3.5923  1.4434
 5328TIP3    H237476   1.580   1.947   0.714  1.1942  2.2835 -0.3164
 5329TIP3   OH237477   2.704   0.137  10.637  0.1660 -0.0689  0.3138
 5329TIP3    H137478   2.625   0.142  10.583  0.8148  0.1959 -0.6252
 5329TIP3    H237479   2.681   0.182  10.718 -1.4610 -2.1992  1.0767
 5330TIP3   OH237480   6.341   1.058   3.291  0.3101  0.7410 -0.2831
 5330TIP3    H137481   6.430   1.086   3.315  0.1821  1.9262 -1.1138
 5330TIP3    H237482   6.286   1.132   3.315 -0.6821 -0.5610  1.5771
 5331TIP3   OH237483   4.983   4.813   4.984 -0.1679  0.3007 -0.1190
 5331TIP3    H137484   4.911   4.769   4.939 -1.2860  1.5424  0.4124
 5331TIP3    H237485   4.942   4.856   5.060  1.0615  1.3255 -0.0079
 5332TIP3   OH237486   1.574   1.510   4.222  0.1805  0.1800 -0.5331
 5332TIP3    H137487   1.537   1.453   4.290 -2.0350  0.3195 -1.5891
 5332TIP3    H237488   1.589   1.593   4.266 -1.1476  0.2359 -0.1525
 5333TIP3   OH237489   6.219   4.728   5.325  0.1962 -0.1559 -0.2727
 5333TIP3    H137490   6.197   4.790   5.395  4.1484  0.7282  0.3119
 5333TIP3    H237491   6.274   4.662   5.368  0.7888 -0.8673 -2.0728
 5334TIP3   OH237492   6.773   3.953   5.217  0.0806 -0.1780 -0.4059
 5334TIP3    H137493   6.774   3.918   5.306 -2.1299  1.6921  0.4157
 5334TIP3    H237494   6.701   3.907   5.174 -0.2979  0.5351 -0.5325
 5335TIP3   OH237495   0.798   1.477   1.761  0.4328  1.0327  0.4639
 5335TIP3    H137496   0.817   1.396   1.807 -0.3601  1.2165  1.1265
 5335TIP3    H237497   0.781   1.541   1.830  0.4460  1.6097 -0.0592
 5336TIP3   OH237498   4.210   4.299  13.220 -0.1258  0.1041 -0.1175
 5336TIP3    H137499   4.287   4.316  13.165  0.8162 -1.6767  0.5982
 5336TIP3    H237500   4.242   4.239  13.288 -1.8581  0.3217  0.9214
 5337TIP3   OH237501   6.540   5.920   3.843 -0.4743 -0.0589 -0.3844
 5337TIP3    H137502   6.488   5.974   3.903 -1.7116  1.9681 -3.1210
 5337TIP3    H237503   6.474   5.869   3.795  0.4743 -1.5161 -0.1575
 5338TIP3   OH237504   3.493   4.626   1.496 -0.1193  0.3821  0.1709
 5338TIP3    H137505   3.534   4.583   1.421 -0.6619  0.9046 -0.4333
 5338TIP3    H237506   3.429   4.563   1.528 -0.1711  0.3237 -0.0494
 5339TIP3   OH237507   5.710   3.725   3.362 -0.0645 -0.1932 -0.2702
 5339TIP3    H137508   5.626   3.765   3.343 -0.3693 -1.3361 -1.4133
 5339TIP3    H237509   5.689   3.646   3.411  0.4164  0.0794  0.3909
 5340TIP3   OH237510   1.556   5.284  11.708 -0.7113  0.1910 -0.4093
 5340TIP3    H137511   1.556   5.332  11.626 -0.7852  0.2256 -0.3893
 5340TIP3    H237512   1.586   5.196  11.685  1.5821  0.8400 -0.1047
 5341TIP3   OH237513   6.305   2.491   3.467  0.1571 -0.1593 -0.6955
 5341TIP3    H137514   6.247   2.559   3.501  1.5285  1.1980 -1.0564
 5341TIP3    H237515   6.377   2.538   3.427  1.1034 -1.8274 -1.0034
 5342TIP3   OH237516   3.163   1.854  15.021  0.0363 -0.1882  0.7721
 5342TIP3    H137517   3.165   1.906  14.940  0.6287 -2.4848 -0.7509
 5342TIP3    H237518   3.096   1.895  15.075  2.3615  3.8328  0.8273
 5343TIP3   OH237519   5.476   6.362  15.075  0.0730  0.4293  0.5781
 5343TIP3    H137520   5.465   6.457  15.083 -2.7185  0.0809  1.1971
 5343TIP3    H237521   5.570   6.348  15.089  0.2878  2.9459  1.9966
 5344TIP3   OH237522   2.177   5.111   4.141  0.6675  0.4324  0.4715
 5344TIP3    H137523   2.240   5.128   4.071 -2.3616  0.8658 -2.2501
 5344TIP3    H237524   2.197   5.022   4.171  1.2239 -0.2374 -1.8076
 5345TIP3   OH237525   5.582   6.170  14.627 -0.4670 -0.6727  0.0744
 5345TIP3    H137526   5.588   6.082  14.665  0.0885 -0.7825 -0.2591
 5345TIP3    H237527   5.488   6.189  14.626 -0.8128 -2.2590 -2.0361
 5346TIP3   OH237528   1.654   4.014   2.293 -0.2744 -0.0267 -0.2189
 5346TIP3    H137529   1.636   3.920   2.295  1.8510 -0.4618  0.6954
 5346TIP3    H237530   1.677   4.036   2.383  0.5586  1.0810 -0.6864
 5347TIP3   OH237531   1.130   5.738  12.740 -0.7519  0.1075 -0.1863
 5347TIP3    H137532   1.116   5.644  12.750 -1.0758  0.0952 -0.7125
 5347TIP3    H237533   1.135   5.751  12.645  0.2486  0.4857 -0.0897
 5348TIP3   OH237534   0.187   5.075   1.895  0.3295  0.6913 -0.1131
 5348TIP3    H137535   0.167   5.147   1.835 -0.2259  0.9900  0.4252
 5348TIP3    H237536   0.241   5.115   1.963 -0.6265  0.7833  0.6063
 5349TIP3   OH237537   0.005   6.309  14.247 -0.4759  0.2014  0.0897
 5349TIP3    H137538  -0.059   6.313  14.318 -0.9111  0.7876 -0.3341
 5349TIP3    H237539  -0.032   6.363  14.178  0.4559  0.5140 -0.1755
 5350TIP3   OH237540   5.172   2.551  14.753 -0.3315  0.8102  0.3001
 5350TIP3    H137541   5.096   2.588  14.708 -0.1535  0.9135  0.0813
 5350TIP3    H237542   5.218   2.627  14.788 -0.7517  0.7007  1.1210
 5351TIP3   OH237543   6.728   5.510   2.790  0.0260 -0.3384  0.1139
 5351TIP3    H137544   6.672   5.570   2.741  0.1973 -0.6900 -0.5130
 5351TIP3    H237545   6.726   5.429   2.740 -0.7408 -1.0783  1.2931
 5352TIP3   OH237546   4.860   3.425   2.665 -0.0199 -0.2385 -0.3935
 5352TIP3    H137547   4.765   3.439   2.669  0.0106 -0.0625 -0.2726
 5352TIP3    H237548   4.876   3.352   2.724 -0.3614 -1.7286 -2.1057
 5353TIP3   OH237549   6.253   0.826   4.377 -0.1842 -0.0776 -0.6212
 5353TIP3    H137550   6.301   0.817   4.459 -0.1224 -2.4455 -0.8811
 5353TIP3    H237551   6.285   0.754   4.322 -3.4797 -1.2866 -1.0731
 5354TIP3   OH237552   2.865   1.691  14.842 -0.0163 -0.6080 -0.5652
 5354TIP3    H137553   2.933   1.665  14.780  1.3853  1.6739 -0.0784
 5354TIP3    H237554   2.896   1.659  14.926  1.1560  1.5023 -0.1425
 5355TIP3   OH237555   3.742   3.442  16.740  0.3324 -0.1717 -0.5580
 5355TIP3    H137556   3.750   3.440  16.645  0.1131 -1.3274 -0.5503
 5355TIP3    H237557   3.748   3.351  16.767  2.4436  0.3060  0.7146
 5356TIP3   OH237558   3.844   4.919   0.620  0.6802 -0.3440 -0.1606
 5356TIP3    H137559   3.827   4.825   0.622 -0.5664 -0.1293  0.2232
 5356TIP3    H237560   3.860   4.943   0.712 -0.5507  0.0680 -0.0426
 5357TIP3   OH237561   3.578   0.252  16.794  0.4061 -0.8589  0.0974
 5357TIP3    H137562   3.536   0.261  16.880 -2.0900  3.6345 -1.4565
 5357TIP3    H237563   3.667   0.284  16.809 -0.3764  1.0759  0.7801
 5358TIP3   OH237564   2.681   5.172  11.311 -0.0657 -0.3267  0.4638
 5358TIP3    H137565   2.765   5.184  11.266 -0.5088  0.3393 -0.1808
 5358TIP3    H237566   2.705   5.130  11.394  0.8770 -0.4256  0.1534
 5359TIP3   OH237567   2.259   0.869  13.432 -0.3332 -0.0020 -0.6774
 5359TIP3    H137568   2.316   0.798  13.464  0.4380  1.1202  0.4617
 5359TIP3    H237569   2.171   0.831  13.433 -0.3209 -0.0942  2.6219
 5360TIP3   OH237570   6.314   2.020  15.176  0.5728 -0.0950 -0.4928
 5360TIP3    H137571   6.226   2.047  15.151  0.6656  0.1526 -0.5610
 5360TIP3    H237572   6.328   2.062  15.261  0.4878 -0.4318 -0.3121
 5361TIP3   OH237573   4.829   5.378   3.188 -0.0155 -0.1149  0.0155
 5361TIP3    H137574   4.908   5.326   3.173  0.3490  0.7764 -1.2775
 5361TIP3    H237575   4.860   5.457   3.233 -0.1161  0.3986 -0.8108
 5362TIP3   OH237576   1.068   3.681  13.074 -0.5419  0.2816 -0.4209
 5362TIP3    H137577   1.007   3.621  13.115 -1.4496  0.0761 -2.0324
 5362TIP3    H237578   1.078   3.752  13.137  0.3372 -1.4056  1.3755
 5363TIP3   OH237579   4.499   1.186   5.963 -0.3203  0.3838 -0.0024
 5363TIP3    H137580   4.417   1.167   5.918  0.3100 -1.3930 -0.4225
 5363TIP3    H237581   4.567   1.169   5.899  0.5475 -1.4867  1.3629
 5364TIP3   OH237582   0.588   0.172   0.990 -0.2487 -0.2042 -0.0978
 5364TIP3    H137583   0.602   0.084   0.955 -0.3009  0.4404 -1.7781
 5364TIP3    H237584   0.495   0.173   1.014 -0.0424 -0.8892  0.7839
 5365TIP3   OH237585   2.881   5.705  15.815 -0.2576  0.1040  0.1254
 5365TIP3    H137586   2.917   5.745  15.735 -1.1643 -0.1006 -0.3888
 5365TIP3    H237587   2.858   5.616  15.788  0.0511 -0.1828  0.7974
 5366TIP3   OH237588   2.546   0.223   6.172  0.0387 -0.6120  0.0801
 5366TIP3    H137589   2.523   0.278   6.097  0.0206 -1.7125 -0.7354
 5366TIP3    H237590   2.638   0.244   6.189 -0.8364  2.0340  1.8410
 5367TIP3   OH237591   2.082   4.311  10.956  0.1628  0.2199 -0.1665
 5367TIP3    H137592   2.089   4.403  10.982 -0.1151  0.2150 -0.0706
 5367TIP3    H237593   2.085   4.313  10.861 -1.5124  0.4810 -0.2247
 5368TIP3   OH237594   2.858   3.699   1.240  0.4777 -0.4695 -0.2026
 5368TIP3    H137595   2.780   3.670   1.194  2.1091 -2.0697 -2.0332
 5368TIP3    H237596   2.910   3.744   1.174  0.4365  2.0315  1.3669
 5369TIP3   OH237597   2.632   5.145  12.773 -0.2631 -0.3115 -0.1538
 5369TIP3    H137598   2.644   5.050  12.773  1.1582 -0.1464  0.6128
 5369TIP3    H237599   2.543   5.157  12.805 -1.4714 -1.4728 -2.9234
 5370TIP3   OH237600   1.927   1.513  13.836 -0.0651 -0.4587 -0.2954
 5370TIP3    H137601   1.856   1.484  13.778  1.6847 -0.5250 -2.5092
 5370TIP3    H237602   1.968   1.432  13.865  1.2424 -0.3967 -1.8572
 5371TIP3   OH237603   5.238   3.606  10.768 -0.5937 -0.1851  0.5850
 5371TIP3    H137604   5.169   3.670  10.783  0.3508  1.4568 -1.6985
 5371TIP3    H237605   5.198   3.539  10.713 -0.2858  1.0599 -1.2233
 5372TIP3   OH237606   2.129   2.860  13.166 -0.0929  0.0055  0.3086
 5372TIP3    H137607   2.223   2.864  13.184  0.2242 -1.7332 -0.8229
 5372TIP3    H237608   2.098   2.949  13.181  1.9249  0.8381 -0.2702
 5373TIP3   OH237609   2.115   4.556  11.666  0.2934 -0.2117  0.4908
 5373TIP3    H137610   2.062   4.485  11.629  1.2365 -0.8140  0.2858
 5373TIP3    H237611   2.083   4.635  11.622  1.4932 -0.9353 -1.7457
 5374TIP3   OH237612   2.042   0.789   3.427  0.1232 -0.3275  0.4591
 5374TIP3    H137613   2.036   0.714   3.486  1.4033  0.0608  1.1218
 5374TIP3    H237614   2.111   0.766   3.365 -0.8759 -0.5256 -0.5911
 5375TIP3   OH237615   0.631   1.342  11.496  0.1031 -0.0128 -0.2754
 5375TIP3    H137616   0.561   1.338  11.431  1.1503 -0.4000 -1.4068
 5375TIP3    H237617   0.604   1.410  11.557 -0.3562  1.1713 -1.7713
 5376TIP3   OH237618   0.551   3.245   3.277 -0.1820  1.2455 -0.2239
 5376TIP3    H137619   0.619   3.189   3.314 -1.7263 -0.2346  0.5038
 5376TIP3    H237620   0.493   3.184   3.230  0.3408  2.7785 -2.9423
 5377TIP3   OH237621   1.647   5.798   3.809 -0.2449 -0.2422  0.0623
 5377TIP3    H137622   1.634   5.834   3.721 -2.7681  2.0002  1.2779
 5377TIP3    H237623   1.742   5.796   3.821  0.1659 -1.3290 -2.9799
 5378TIP3   OH237624   4.490   2.536   5.157  0.4097 -0.0149  0.4601
 5378TIP3    H137625   4.418   2.555   5.218 -0.1365 -1.3979  0.2646
 5378TIP3    H237626   4.450   2.540   5.070 -0.0289 -3.1253  0.4493
 5379TIP3   OH237627   1.652   1.439   2.315  0.1850  0.1464 -0.2909
 5379TIP3    H137628   1.675   1.462   2.224  0.9780 -0.8682 -0.3529
 5379TIP3    H237629   1.598   1.361   2.307 -1.0712  0.9744  0.0261
 5380TIP3   OH237630   1.293   6.475  12.053  1.0342  0.4197 -0.4698
 5380TIP3    H137631   1.263   6.420  11.981  1.1404 -0.3168  0.0515
 5380TIP3    H237632   1.370   6.520  12.018  1.2965 -0.2061 -0.6950
 5381TIP3   OH237633   5.473   6.702   3.486  0.3927  0.3325 -0.6798
 5381TIP3    H137634   5.427   6.726   3.405  0.5731 -0.2231 -0.9486
 5381TIP3    H237635   5.563   6.688   3.459  0.1826 -1.2296 -0.6491
 5382TIP3   OH237636   2.662   1.488   2.329  0.3857 -0.0264 -0.7503
 5382TIP3    H137637   2.711   1.461   2.251 -0.8839 -2.0171 -0.8946
 5382TIP3    H237638   2.608   1.562   2.300  0.1249 -0.5864 -1.6984
 5383TIP3   OH237639   4.620   4.823   4.443  0.1065  0.2071 -0.1303
 5383TIP3    H137640   4.622   4.853   4.352 -0.0569  0.8995  0.0890
 5383TIP3    H237641   4.651   4.898   4.494  1.7394 -0.7272  0.2553
 5384TIP3   OH237642   0.253   4.390  13.432 -0.2536  0.3740  0.1299
 5384TIP3    H137643   0.189   4.445  13.478  1.1601  0.8517  1.5630
 5384TIP3    H237644   0.299   4.344  13.502  1.5485  0.6816 -0.8298
 5385TIP3   OH237645   2.658   2.619   2.816  0.3595 -0.0236 -0.0245
 5385TIP3    H137646   2.664   2.607   2.721  1.1054 -0.6992  0.1056
 5385TIP3    H237647   2.574   2.663   2.829  0.0075 -0.4159 -0.9494
 5386TIP3   OH237648   0.087   4.589   0.921  0.1257  0.3508  0.2611
 5386TIP3    H137649   0.021   4.644   0.879 -0.2361  1.1764  1.9005
 5386TIP3    H237650   0.054   4.499   0.909 -1.0206  0.7196  0.5707
 5387TIP3   OH237651   0.007   4.347   0.490  0.0142 -0.2315  0.5942
 5387TIP3    H137652   0.071   4.418   0.493  0.3415 -0.5841  2.9395
 5387TIP3    H237653   0.056   4.272   0.458 -0.0235  0.2796 -0.6789
 5388TIP3   OH237654   1.752   0.902  12.599 -0.2057  0.7166  0.3269
 5388TIP3    H137655   1.739   0.996  12.586 -1.4707  0.6030  0.6665
 5388TIP3    H237656   1.675   0.874  12.649  0.7556 -0.2772  1.2740
 5389TIP3   OH237657   4.875   2.157   6.283  0.2665  0.0907  0.1591
 5389TIP3    H137658   4.922   2.223   6.233  0.1627 -0.2414 -0.3786
 5389TIP3    H237659   4.785   2.188   6.286  0.1917 -0.0883 -0.2030
 5390TIP3   OH237660   4.255   2.941  14.943 -0.1197  0.2600 -0.6272
 5390TIP3    H137661   4.161   2.956  14.932 -0.5626 -0.6495  1.7488
 5390TIP3    H237662   4.263   2.847  14.961  0.9843  0.7388  1.6124
 5391TIP3   OH237663   0.992   5.029  15.745  0.5911  0.4781 -0.4513
 5391TIP3    H137664   1.073   5.040  15.696  1.0057 -1.1469 -0.1630
 5391TIP3    H237665   0.945   4.960  15.698  0.1087  0.2856  0.3119
 5392TIP3   OH237666   6.249   1.171   0.263  0.0409 -0.1037 -0.4126
 5392TIP3    H137667   6.317   1.229   0.297  1.4843 -2.3075  0.5561
 5392TIP3    H237668   6.297   1.098   0.224 -1.7467 -2.2438  1.2410
 5393TIP3   OH237669   6.316   3.329   5.812  0.5770 -0.6022 -0.1155
 5393TIP3    H137670   6.228   3.366   5.803  1.0205  0.1366 -1.5550
 5393TIP3    H237671   6.340   3.301   5.723  1.7374 -0.9272  0.2860
 5394TIP3   OH237672   6.287   3.384   0.531 -0.2003  0.4143 -0.0236
 5394TIP3    H137673   6.318   3.437   0.457 -0.1314  0.0431 -0.2606
 5394TIP3    H237674   6.360   3.386   0.593  0.2090 -0.2648 -0.4808
 5395TIP3   OH237675   1.867   0.789   2.837 -0.2966 -0.3273  0.7770
 5395TIP3    H137676   1.892   0.698   2.821  0.4230  0.1664 -1.1573
 5395TIP3    H237677   1.864   0.798   2.932  0.8727 -2.0350  0.9881
 5396TIP3   OH237678   1.712   1.162   2.231 -0.3688 -0.1417  0.2047
 5396TIP3    H137679   1.792   1.211   2.213  0.0209 -0.7840  0.1711
 5396TIP3    H237680   1.733   1.109   2.307 -0.1869 -1.6187 -0.8523
 5397TIP3   OH237681   5.819   0.047  12.920  0.2285 -0.6320  0.1481
 5397TIP3    H137682   5.746   0.108  12.930  0.9486  0.7123 -2.3782
 5397TIP3    H237683   5.878   0.067  12.992 -0.8147 -0.1755  0.8812
 5398TIP3   OH237684   4.506   4.881   6.292 -0.4656 -0.5637  0.1138
 5398TIP3    H137685   4.448   4.808   6.272 -0.2395 -0.4831 -0.8330
 5398TIP3    H237686   4.594   4.844   6.287 -0.4243 -0.7214  1.6980
 5399TIP3   OH237687   1.831   5.789  12.986  0.1098  0.3628 -0.0708
 5399TIP3    H137688   1.812   5.768  12.895  0.6632  0.1332 -0.1376
 5399TIP3    H237689   1.796   5.877  12.998  2.8608  1.7234 -1.4210
 5400TIP3   OH237690   1.343   0.568   2.284 -0.3001 -0.3656 -0.5099
 5400TIP3    H137691   1.386   0.581   2.369 -0.0602 -0.9345 -0.5453
 5400TIP3    H237692   1.288   0.646   2.273  0.4485  0.1950 -0.3048
 5401TIP3   OH237693   1.273   2.426   3.781  0.5102 -0.3165 -0.3793
 5401TIP3    H137694   1.365   2.406   3.765  0.6095 -0.6718  0.6395
 5401TIP3    H237695   1.255   2.391   3.868 -0.3620  0.5211 -0.2163
 5402TIP3   OH237696   6.709   3.952  14.108 -0.4003 -0.2535  0.3573
 5402TIP3    H137697   6.754   3.873  14.078 -1.8016 -0.8145 -0.2883
 5402TIP3    H237698   6.748   3.971  14.193  1.6070 -0.2790 -0.5169
 5403TIP3   OH237699   5.897   6.387  14.148  0.6570 -0.0222  0.1097
 5403TIP3    H137700   5.935   6.474  14.146  3.8653 -1.3780 -1.7343
 5403TIP3    H237701   5.864   6.373  14.059  0.6287 -0.8947  0.2501
 5404TIP3   OH237702   4.767   0.864   5.724 -0.0766 -0.2882 -0.3320
 5404TIP3    H137703   4.853   0.824   5.712 -0.1129 -0.3076 -0.5420
 5404TIP3    H237704   4.775   0.916   5.804 -0.0004 -0.6424 -0.1092
 5405TIP3   OH237705   4.282   4.056  12.027 -0.3761 -0.3813 -0.2482
 5405TIP3    H137706   4.275   4.098  12.112 -0.4760  1.1685 -0.9911
 5405TIP3    H237707   4.199   4.077  11.984  0.9839  1.7113 -1.9584
 5406TIP3   OH237708   2.728   2.117   5.016 -0.2572 -0.2094  0.0208
 5406TIP3    H137709   2.672   2.077   4.949 -1.0239  0.3423  0.3367
 5406TIP3    H237710   2.720   2.059   5.091 -1.0530  0.3203  0.3434
 5407TIP3   OH237711   0.456   4.238  11.047  0.3760 -0.0263 -0.2163
 5407TIP3    H137712   0.395   4.181  11.001 -0.6278  2.1898 -1.6961
 5407TIP3    H237713   0.401   4.290  11.105  1.2714 -0.4113  1.0040
 5408TIP3   OH237714   1.188   6.090  16.520 -0.4721  0.0554  0.2950
 5408TIP3    H137715   1.221   6.178  16.536 -0.2384  0.2222 -0.9905
 5408TIP3    H237716   1.266   6.038  16.502 -0.6971 -0.1530 -0.0915
 5409TIP3   OH237717   4.309   5.207   3.396 -0.0425  0.0106 -0.1903
 5409TIP3    H137718   4.356   5.125   3.410  0.5345  0.1554 -1.2153
 5409TIP3    H237719   4.294   5.241   3.484  0.6170 -0.6955  0.2029
 5410TIP3   OH237720   2.865   6.394   5.202  0.2207 -0.4554 -0.0429
 5410TIP3    H137721   2.800   6.368   5.137  1.6965  0.5795 -1.9578
 5410TIP3    H237722   2.939   6.427   5.151  1.8976 -0.7507  2.1170
 5411TIP3   OH237723   1.879   3.348  14.673  0.3115  0.0092 -0.7145
 5411TIP3    H137724   1.901   3.287  14.602 -0.1366 -0.5542 -0.3784
 5411TIP3    H237725   1.825   3.296  14.732 -0.6087  0.9175 -0.7465
 5412TIP3   OH237726   4.261   4.716  11.270 -0.0697 -0.2600 -0.2403
 5412TIP3    H137727   4.331   4.655  11.247  0.7059  0.7569 -0.5796
 5412TIP3    H237728   4.185   4.684  11.222  0.2680 -1.1128 -0.2172
 5413TIP3   OH237729   1.777   5.805   5.333  0.2603 -0.0306 -0.0760
 5413TIP3    H137730   1.705   5.845   5.283  0.4042  1.0790  0.5893
 5413TIP3    H237731   1.767   5.711   5.319 -0.6356  0.1847 -0.9217
 5414TIP3   OH237732   2.380   5.752   3.372  0.2629 -0.0860 -0.2517
 5414TIP3    H137733   2.474   5.761   3.387  0.1176  1.3258 -0.1807
 5414TIP3    H237734   2.348   5.709   3.451  0.8871 -0.8580 -0.4062
 5415TIP3   OH237735   5.465   3.322   2.882 -0.1357  0.0536 -0.8526
 5415TIP3    H137736   5.487   3.285   2.967  0.3484  2.8944  0.3297
 5415TIP3    H237737   5.381   3.365   2.896 -1.4287 -1.8138 -2.5853
 5416TIP3   OH237738   1.308   3.130   2.009 -0.6486 -0.5916  0.3689
 5416TIP3    H137739   1.274   3.166   2.091 -0.4724 -0.6173  0.4530
 5416TIP3    H237740   1.278   3.192   1.942  1.7849  1.1351  0.7966
 5417TIP3   OH237741   2.108   2.386  14.882 -0.3876 -0.3166  0.3065
 5417TIP3    H137742   2.094   2.299  14.921 -1.4944 -0.1297  0.3385
 5417TIP3    H237743   2.120   2.368  14.788 -2.7668 -0.3562 -0.0440
 5418TIP3   OH237744   1.880   3.260   5.324 -0.4207 -0.3992 -0.0882
 5418TIP3    H137745   1.905   3.277   5.415 -1.8510 -0.4062  0.3077
 5418TIP3    H237746   1.963   3.265   5.275 -0.1622  3.4634  0.6291
 5419TIP3   OH237747   2.952   6.106   3.594 -0.5149  0.1119  0.0556
 5419TIP3    H137748   2.941   6.200   3.579  2.5162  0.5333  0.2798
 5419TIP3    H237749   2.950   6.096   3.689  0.9695  0.1868  0.0936
 5420TIP3   OH237750   4.519   1.143   3.399 -0.2181 -0.2200  0.3805
 5420TIP3    H137751   4.512   1.185   3.313 -0.0579  1.1819  1.0342
 5420TIP3    H237752   4.611   1.119   3.407  0.3107  1.9753  1.2066
 5421TIP3   OH237753   2.583   1.335   0.763 -0.1724 -0.1211  0.3341
 5421TIP3    H137754   2.546   1.395   0.699 -0.6886  0.7938  1.4745
 5421TIP3    H237755   2.619   1.263   0.711 -0.3023  0.7625 -0.9875
 5422TIP3   OH237756   0.914   4.600   3.795 -0.1187  0.1293  0.4513
 5422TIP3    H137757   0.984   4.550   3.753  1.7463  1.4591  1.8987
 5422TIP3    H237758   0.950   4.627   3.879 -2.4724  0.6629  1.3414
 5423TIP3   OH237759   0.588   0.837  17.209  0.7464 -0.0483  0.3140
 5423TIP3    H137760   0.514   0.809  17.262  0.6572  0.6723  0.5785
 5423TIP3    H237761   0.646   0.761  17.205 -0.1582 -0.7254 -0.1729
 5424TIP3   OH237762   5.991   3.079   4.164 -0.0859 -0.2611 -0.0902
 5424TIP3    H137763   5.943   3.133   4.100  1.6749 -1.9588 -2.9673
 5424TIP3    H237764   6.082   3.082   4.134  0.6094 -1.9697  1.7496
 5425TIP3   OH237765   4.283   1.803  16.958 -0.4018 -0.6247 -0.1859
 5425TIP3    H137766   4.245   1.739  17.018 -2.2063 -0.1108 -0.7696
 5425TIP3    H237767   4.262   1.888  16.996  0.8939 -0.3410 -0.0797
 5426TIP3   OH237768   2.707   0.120  15.089 -0.4035  0.1900  0.4056
 5426TIP3    H137769   2.628   0.067  15.077 -0.4888  0.6741 -1.1733
 5426TIP3    H237770   2.774   0.056  15.114 -1.2347 -0.2437  1.6104
 5427TIP3   OH237771   4.220   2.584  15.327  0.5179  0.1575  0.0900
 5427TIP3    H137772   4.298   2.640  15.326  0.5044  0.2137  1.8637
 5427TIP3    H237773   4.248   2.504  15.371  0.2064 -0.7746 -1.3720
 5428TIP3   OH237774   3.014   6.532   4.481 -0.3584  0.6800  0.0055
 5428TIP3    H137775   3.090   6.488   4.519 -1.5166  1.7276  3.6702
 5428TIP3    H237776   2.968   6.570   4.555 -3.2473  2.0431 -2.3777
 5429TIP3   OH237777   2.752   5.799  16.251 -0.0624 -0.2759 -0.2096
 5429TIP3    H137778   2.698   5.864  16.295 -1.3502 -1.6288  0.2434
 5429TIP3    H237779   2.732   5.809  16.158 -0.6163 -0.3411 -0.0972
 5430TIP3   OH237780   3.731   0.580   5.379 -0.0960 -0.0887 -0.3786
 5430TIP3    H137781   3.669   0.551   5.312  0.5363 -0.4785 -0.7990
 5430TIP3    H237782   3.712   0.525   5.455 -0.4997  0.0358 -0.3869
 5431TIP3   OH237783   3.608   5.565   3.509 -0.0089  0.4012 -0.6253
 5431TIP3    H137784   3.516   5.549   3.491  0.0443 -0.6183 -0.0382
 5431TIP3    H237785   3.643   5.600   3.427 -0.6360 -0.4501 -1.2614
 5432TIP3   OH237786   6.165   5.772   4.565 -0.1789  0.3292 -0.2908
 5432TIP3    H137787   6.210   5.833   4.623 -0.0923 -0.0847  0.0848
 5432TIP3    H237788   6.074   5.774   4.594 -0.1265  0.0859 -0.1093
 5433TIP3   OH237789   3.865   6.693  11.594  0.2560  0.3626 -0.7964
 5433TIP3    H137790   3.836   6.756  11.660  1.7531  1.0695 -0.7955
 5433TIP3    H237791   3.939   6.648  11.634  1.0902  0.6960 -1.9143
 5434TIP3   OH237792   3.700   2.654  17.148 -0.3694 -0.5186  0.3684
 5434TIP3    H137793   3.710   2.604  17.067 -1.6547 -0.2677  0.0437
 5434TIP3    H237794   3.789   2.684  17.169 -0.2670  0.8386 -1.8635
 5435TIP3   OH237795   0.606   4.983  15.697  0.5819 -0.1417  0.0905
 5435TIP3    H137796   0.600   5.076  15.673  1.3022  0.6048  2.7127
 5435TIP3    H237797   0.627   4.939  15.614  0.5866  2.0652 -1.1209
 5436TIP3   OH237798   1.130   2.280  15.800 -0.8360 -0.1975 -0.2073
 5436TIP3    H137799   1.175   2.196  15.809 -2.0779 -0.9319 -0.7434
 5436TIP3    H237800   1.091   2.295  15.886 -0.2704  0.0286  0.0084
 5437TIP3   OH237801   3.263   4.438  12.342  0.2294  0.0541 -0.0328
 5437TIP3    H137802   3.279   4.512  12.401  0.5058  0.6073 -0.7849
 5437TIP3    H237803   3.197   4.385  12.386  0.6781  0.2850  0.9216
 5438TIP3   OH237804   6.159   2.759   3.954  0.6025 -0.1956 -0.4107
 5438TIP3    H137805   6.137   2.843   3.914  1.3111  0.0690 -0.2557
 5438TIP3    H237806   6.077   2.730   3.995  0.5982  0.9123  0.4076
 5439TIP3   OH237807   0.339   0.399   0.621  0.0683  0.1629 -0.0920
 5439TIP3    H137808   0.311   0.314   0.588  2.1746 -0.5532 -0.0964
 5439TIP3    H237809   0.429   0.409   0.589  0.6396  1.3672  1.8179
 5440TIP3   OH237810   5.362   3.658  15.949 -0.5688  0.3367  0.9516
 5440TIP3    H137811   5.278   3.622  15.920  0.8314 -3.8333  1.7896
 5440TIP3    H237812   5.417   3.656  15.871 -0.4167  0.4226  1.0575
 5441TIP3   OH237813   1.247   3.970  11.506 -0.2656 -0.3598  0.1902
 5441TIP3    H137814   1.248   3.888  11.556  0.1279 -0.5485 -0.1213
 5441TIP3    H237815   1.155   3.988  11.490 -0.3320 -1.0162 -0.1813
 5442TIP3   OH237816   5.434   1.645   2.233  0.6588  0.6504 -0.6594
 5442TIP3    H137817   5.363   1.590   2.267  1.0137 -0.0797 -1.0828
 5442TIP3    H237818   5.423   1.729   2.278  1.4987 -0.4771  1.7542
 5443TIP3   OH237819   5.281   5.942  14.941  0.3179 -0.0824 -0.8324
 5443TIP3    H137820   5.363   5.970  14.901  0.1908  0.6768 -0.5744
 5443TIP3    H237821   5.298   5.852  14.970  1.2592  0.2786 -0.2360
 5444TIP3   OH237822   5.682   4.731  14.589  0.5705  0.8362  0.0286
 5444TIP3    H137823   5.775   4.738  14.610  1.0217  0.4692 -1.7625
 5444TIP3    H237824   5.674   4.766  14.500 -0.4891 -1.8529 -0.9926
 5445TIP3   OH237825   0.415   3.622   4.908 -0.2609  0.6569 -0.7256
 5445TIP3    H137826   0.392   3.698   4.854  1.2239  1.1658 -0.6702
 5445TIP3    H237827   0.337   3.567   4.907 -1.3385  2.1550 -0.8257
 5446TIP3   OH237828   0.754   5.202   1.639  0.1167 -0.7410  0.1127
 5446TIP3    H137829   0.738   5.236   1.551 -2.1343  2.1210  1.5229
 5446TIP3    H237830   0.714   5.115   1.639 -2.9330  0.5821 -0.7570
 5447TIP3   OH237831   3.918   4.053   4.170  0.5629 -0.0460 -0.2234
 5447TIP3    H137832   3.835   4.007   4.185  0.3303  0.0146 -1.2917
 5447TIP3    H237833   3.918   4.073   4.076  0.6806  2.1139  0.2130
 5448TIP3   OH237834   2.930   2.612  11.873 -0.0066 -0.0519 -0.2515
 5448TIP3    H137835   2.886   2.539  11.828  1.1465  0.8814 -3.0003
 5448TIP3    H237836   3.022   2.585  11.879  0.0791  0.3780  0.4769
 5449TIP3   OH237837   5.787   0.406  14.924  0.2922  0.1858  0.6017
 5449TIP3    H137838   5.871   0.418  14.968 -0.9623  0.2858  3.0816
 5449TIP3    H237839   5.730   0.472  14.963 -0.9338  0.1130 -1.0457
 5450TIP3   OH237840   0.427   5.272   2.547  0.0252  0.0247  0.2233
 5450TIP3    H137841   0.485   5.332   2.500  0.8158 -0.6592  0.3022
 5450TIP3    H237842   0.487   5.213   2.593 -0.7365 -0.8287  0.1291
 5451TIP3   OH237843   3.942   3.308   4.171 -0.3236  0.4128 -0.2088
 5451TIP3    H137844   3.865   3.264   4.206  0.4682  0.0232  1.0834
 5451TIP3    H237845   4.007   3.238   4.161 -0.0956  0.7516 -1.1990
 5452TIP3   OH237846   5.415   4.571   2.337 -0.2632  0.1887  0.2779
 5452TIP3    H137847   5.319   4.569   2.336 -0.3325  1.8954  1.3565
 5452TIP3    H237848   5.440   4.562   2.245 -1.5195  1.7591 -0.2279
 5453TIP3   OH237849   4.283   2.254  15.504 -0.1269 -0.2591  0.4692
 5453TIP3    H137850   4.223   2.244  15.578 -0.0180  3.8402  1.2346
 5453TIP3    H237851   4.363   2.209  15.532 -0.1410  1.1004  2.8758
 5454TIP3   OH237852   0.962   4.781   1.744 -0.0066  0.2561  0.5981
 5454TIP3    H137853   0.906   4.744   1.675 -0.6156 -1.0037  1.7408
 5454TIP3    H237854   0.979   4.871   1.715  0.7567 -0.6172 -1.7865
 5455TIP3   OH237855   0.869   3.344  15.167  0.6188 -0.3253 -0.1260
 5455TIP3    H137856   0.782   3.344  15.127  0.0738 -0.2675  1.0358
 5455TIP3    H237857   0.919   3.279  15.117  0.1116  0.1080 -1.2167
 5456TIP3   OH237858   4.946   0.345  13.680  0.6296 -0.2416 -0.1410
 5456TIP3    H137859   4.970   0.356  13.771 -0.2031  0.5689 -0.0066
 5456TIP3    H237860   5.028   0.358  13.631  0.6356  1.6716  0.3469
 5457TIP3   OH237861   0.097   0.307   5.729 -0.4004  0.8428  0.9491
 5457TIP3    H137862   0.008   0.299   5.695 -0.0996 -0.9257  0.5701
 5457TIP3    H237863   0.113   0.225   5.775  1.3492  0.7918  0.2820
 5458TIP3   OH237864   3.491   2.614  13.781  0.6356  0.4001 -0.5026
 5458TIP3    H137865   3.550   2.648  13.848  1.8446 -1.4688 -0.6067
 5458TIP3    H237866   3.547   2.564  13.722 -0.7429  0.2640 -1.7164
 5459TIP3   OH237867   6.555   0.060   0.034 -0.3227  0.4782  0.8227
 5459TIP3    H137868   6.642   0.092   0.058  1.6233 -2.6967 -1.5130
 5459TIP3    H237869   6.543  -0.019   0.088 -2.3182  1.5588  2.0098
 5460TIP3   OH237870   6.711   6.512   3.633 -0.6492 -0.2832 -0.0786
 5460TIP3    H137871   6.621   6.493   3.609 -0.3169 -1.5818 -0.3600
 5460TIP3    H237872   6.732   6.593   3.587 -2.7989  2.0206  2.8414
 5461TIP3   OH237873   6.423   2.291   2.734 -0.0812  0.2498  0.4760
 5461TIP3    H137874   6.426   2.383   2.760 -1.8608  0.6586 -0.6477
 5461TIP3    H237875   6.329   2.271   2.728  0.2074 -0.4033 -3.4014
 5462TIP3   OH237876   5.516   5.991  17.010  0.5820 -0.1558  0.6164
 5462TIP3    H137877   5.591   5.990  17.070  0.5554  0.3654  0.6611
 5462TIP3    H237878   5.551   5.954  16.929  0.8445 -0.0635  0.6854
 5463TIP3   OH237879   1.394   6.400   4.683 -0.2804 -0.0238  0.1866
 5463TIP3    H137880   1.486   6.424   4.699  0.5126 -0.6682 -3.1516
 5463TIP3    H237881   1.351   6.484   4.665 -0.3348  0.2523  1.5143
 5464TIP3   OH237882   1.122   3.331   3.602  0.3947 -0.6012 -0.0016
 5464TIP3    H137883   1.085   3.341   3.514  0.6533 -0.8972 -0.1436
 5464TIP3    H237884   1.134   3.421   3.633 -0.4125 -0.4971  0.0355
 5465TIP3   OH237885   6.222   3.838   3.172 -0.2003 -0.1448 -0.1877
 5465TIP3    H137886   6.248   3.930   3.164  0.4028 -0.3813 -1.1205
 5465TIP3    H237887   6.147   3.839   3.232 -0.6973  1.0390 -0.8077
 5466TIP3   OH237888   6.796   5.973   3.553 -0.0832  0.4422 -0.6185
 5466TIP3    H137889   6.751   5.927   3.482 -0.8869  0.2627  0.0026
 5466TIP3    H237890   6.869   6.017   3.510 -1.0753  1.0636 -1.7134
 5467TIP3   OH237891   4.578   3.938  10.406  0.6316 -0.4480 -0.1171
 5467TIP3    H137892   4.625   3.992  10.343 -0.9272  0.0581 -0.8584
 5467TIP3    H237893   4.545   3.864  10.354 -0.4116 -0.1761  0.1412
 5468TIP3   OH237894   0.202   3.750   3.737  0.2920  0.0432  0.0879
 5468TIP3    H137895   0.126   3.807   3.745 -0.2347 -0.8318  1.4429
 5468TIP3    H237896   0.165   3.661   3.735  1.2957 -0.3970  0.9345
 5469TIP3   OH237897   0.921   0.978  16.725 -0.6116 -0.0938  0.2322
 5469TIP3    H137898   0.945   0.949  16.813 -0.1601 -0.6007 -0.0512
 5469TIP3    H237899   0.826   0.968  16.721 -0.7534  0.8949  1.0013
 5470TIP3   OH237900   6.184   3.450  13.444  0.4678 -0.0347  0.4279
 5470TIP3    H137901   6.181   3.521  13.380  0.6703 -0.4301 -0.0156
 5470TIP3    H237902   6.195   3.495  13.528  1.3363  0.4266  0.0743
 5471TIP3   OH237903   1.013   2.063   1.144 -0.1807  0.6687  0.7966
 5471TIP3    H137904   1.073   2.075   1.217  0.3388 -0.3991  0.5507
 5471TIP3    H237905   1.044   1.985   1.099 -1.4206  0.4191  0.3417
 5472TIP3   OH237906   0.758   3.091  17.028  0.0764  0.0107  0.5141
 5472TIP3    H137907   0.800   3.139  16.957  0.6948  0.3945  1.1355
 5472TIP3    H237908   0.712   3.019  16.984  3.0640 -1.6643  0.0006
 5473TIP3   OH237909   2.745   6.676  12.260 -0.1757 -0.2872 -0.1428
 5473TIP3    H137910   2.766   6.752  12.314 -0.4575  0.4004 -0.9953
 5473TIP3    H237911   2.829   6.634  12.242 -0.0445 -0.3141  0.5288
 5474TIP3   OH237912   1.195   3.368   5.017  0.0120  0.1692  0.2255
 5474TIP3    H137913   1.268   3.310   5.038  0.4492 -0.0452 -1.7527
 5474TIP3    H237914   1.158   3.332   4.936 -1.2362  1.2330  0.3063
 5475TIP3   OH237915   2.507   2.591   2.591 -0.4341  0.1129  0.0509
 5475TIP3    H137916   2.490   2.623   2.503 -0.1789  0.9295  0.2935
 5475TIP3    H237917   2.420   2.572   2.627 -0.5164 -0.5912 -0.5027
 5476TIP3   OH237918   1.006   0.896   5.268  0.2235  0.3142 -0.9767
 5476TIP3    H137919   1.033   0.808   5.242  2.7747  0.4265  1.1467
 5476TIP3    H237920   0.919   0.883   5.307  0.1198 -1.0776 -1.6167
 5477TIP3   OH237921   1.820   5.053   1.905  0.0154 -0.1319 -0.2279
 5477TIP3    H137922   1.807   4.991   1.833 -0.6614 -0.1170 -0.1218
 5477TIP3    H237923   1.879   5.007   1.965  0.0884 -0.3910 -0.4932
 5478TIP3   OH237924   5.082   3.635   0.159  0.3681  0.2975  0.2147
 5478TIP3    H137925   5.052   3.560   0.211 -2.5344  0.3190 -1.3565
 5478TIP3    H237926   5.088   3.706   0.223  1.2431 -0.7698  1.3551
 5479TIP3   OH237927   5.702   1.998   3.606 -0.2257 -0.1108 -0.1094
 5479TIP3    H137928   5.752   2.001   3.687 -0.7820 -0.6514  0.2625
 5479TIP3    H237929   5.731   1.918   3.563  1.8869  1.4183 -1.6574
 5480TIP3   OH237930   5.397   1.574  11.088  0.3718  0.3031  0.4222
 5480TIP3    H137931   5.322   1.516  11.077  0.2786  0.3558  0.7600
 5480TIP3    H237932   5.373   1.630  11.162  0.0127  1.4675 -0.5450
 5481TIP3   OH237933   4.619   2.810   3.257 -0.3893 -0.0920  0.1249
 5481TIP3    H137934   4.555   2.765   3.202 -0.5741  1.7029 -1.1590
 5481TIP3    H237935   4.703   2.772   3.233 -0.6946 -0.7993  0.1406
 5482TIP3   OH237936   0.008   3.317   5.630  0.1866 -0.4108  0.0098
 5482TIP3    H137937   0.025   3.399   5.677  0.4796 -0.9629  0.8998
 5482TIP3    H237938   0.095   3.277   5.621 -0.1775 -1.5212  1.3012
 5483TIP3   OH237939   3.713   5.397  16.724 -0.5778  0.2086 -0.2096
 5483TIP3    H137940   3.727   5.379  16.631 -0.8308  1.8896 -0.5904
 5483TIP3    H237941   3.699   5.492  16.728 -1.1629  0.0608  1.4729
 5484TIP3   OH237942   5.124   2.417   0.784  0.4297 -0.0531  0.2968
 5484TIP3    H137943   5.174   2.393   0.862  1.9688  2.2401  0.0367
 5484TIP3    H237944   5.041   2.450   0.818  1.2334  1.2737  0.9909
 5485TIP3   OH237945   0.930   2.957   2.735 -0.2462 -0.4274  0.3781
 5485TIP3    H137946   0.864   2.889   2.722 -1.1286  0.6495 -0.9250
 5485TIP3    H237947   1.005   2.928   2.684 -0.5134 -0.5844  0.0702
 5486TIP3   OH237948   3.737   6.446   3.684 -0.0481  0.1614  0.0086
 5486TIP3    H137949   3.742   6.380   3.754 -0.1902 -0.2827 -0.3957
 5486TIP3    H237950   3.702   6.398   3.609  0.3630  0.5709 -0.4464
 5487TIP3   OH237951   5.028   0.913   2.606 -0.4098  0.2554 -0.9073
 5487TIP3    H137952   5.086   0.840   2.582 -0.1903  0.0661  0.1604
 5487TIP3    H237953   4.974   0.927   2.528 -1.1328 -1.7061 -0.7866
 5488TIP3   OH237954   4.414   6.754   3.639  0.2178  0.6161  0.4070
 5488TIP3    H137955   4.341   6.804   3.602  0.0683 -0.0426 -0.1948
 5488TIP3    H237956   4.408   6.770   3.734 -0.8782  0.3534  0.3954
 5489TIP3   OH237957   0.595   5.070  14.904  0.2076 -0.0686  0.0387
 5489TIP3    H137958   0.682   5.105  14.924  0.4584  1.0871 -2.8111
 5489TIP3    H237959   0.603   5.035  14.816 -1.9314 -1.0155  0.1915
 5490TIP3   OH237960   5.927   4.724   4.682 -0.0426 -0.4083 -0.2879
 5490TIP3    H137961   5.980   4.651   4.649 -0.1340 -1.0790  1.0039
 5490TIP3    H237962   5.936   4.719   4.777  2.5332  3.2483 -0.2730
 5491TIP3   OH237963   2.237   0.613   3.952  0.4290 -0.2487  0.5024
 5491TIP3    H137964   2.262   0.588   3.863 -1.0573 -0.6384  0.1805
 5491TIP3    H237965   2.175   0.685   3.939  1.0244  0.4076  1.2642
 5492TIP3   OH237966   3.344   0.064   5.022  0.7082  0.3574  0.3778
 5492TIP3    H137967   3.299   0.149   5.032 -0.2068 -0.2163  1.2659
 5492TIP3    H237968   3.387   0.050   5.106  0.1013 -0.4811  0.5566
 5493TIP3   OH237969   4.078   5.947  14.953 -0.6177  0.2542 -0.1226
 5493TIP3    H137970   4.096   5.856  14.979 -1.9247  0.0083  0.0116
 5493TIP3    H237971   4.080   5.946  14.858 -2.0080 -0.2517 -0.1699
 5494TIP3   OH237972   5.216   2.510  15.816 -0.9173  0.1895  0.7486
 5494TIP3    H137973   5.271   2.588  15.804 -1.5462  0.2485 -2.0564
 5494TIP3    H237974   5.133   2.544  15.850 -0.2024  0.4035  2.3164
 5495TIP3   OH237975   1.285   1.116  15.840  0.2081  0.9022  0.2450
 5495TIP3    H137976   1.191   1.097  15.835  0.6157 -2.3510  2.9928
 5495TIP3    H237977   1.291   1.187  15.904 -0.3700  0.9775  0.2172
 5496TIP3   OH237978   4.096   0.299   0.717 -0.1392 -0.2894 -0.1196
 5496TIP3    H137979   4.131   0.386   0.737  1.4255 -0.5504 -1.6464
 5496TIP3    H237980   4.130   0.279   0.630 -1.7588 -1.7910 -0.4320
 5497TIP3   OH237981   0.260   2.639  10.976 -0.0678 -0.4354  0.3031
 5497TIP3    H137982   0.349   2.605  10.975  0.4104  0.7975 -1.7744
 5497TIP3    H237983   0.266   2.723  11.021 -0.2348 -0.4330  0.3239
 5498TIP3   OH237984   5.802   3.188   3.928 -0.6233 -0.0645 -0.1247
 5498TIP3    H137985   5.811   3.177   3.833  1.4874 -1.6652  0.2138
 5498TIP3    H237986   5.733   3.128   3.954 -2.3786  1.5931 -0.8401
 5499TIP3   OH237987   4.607   3.477  12.946 -0.0866 -0.3608  0.7856
 5499TIP3    H137988   4.646   3.441  13.026  1.1869 -3.1512 -1.0086
 5499TIP3    H237989   4.567   3.402  12.903  0.6234  0.7636 -1.9541
 5500TIP3   OH237990   2.860   5.641  16.469 -0.1010 -0.1990  0.2940
 5500TIP3    H137991   2.820   5.660  16.384 -0.4872  0.6947  0.6711
 5500TIP3    H237992   2.888   5.550  16.462 -1.1559 -0.4873 -0.3907
 5501TIP3   OH237993   1.121   2.219  12.204 -0.1484 -0.1835  0.0760
 5501TIP3    H137994   1.116   2.287  12.136  0.1293  0.1443  0.3827
 5501TIP3    H237995   1.125   2.137  12.155  0.7338  0.0905 -0.3278
 5502TIP3   OH237996   5.559   2.037   5.425  0.8281 -0.5809 -0.2134
 5502TIP3    H137997   5.532   1.955   5.383  0.7623 -0.5323 -0.2662
 5502TIP3    H237998   5.608   2.084   5.357 -0.6309  0.2027 -0.7486
 5503TIP3   OH237999   0.269   6.218  13.089  0.2968 -0.2473  0.0410
 5503TIP3    H138000   0.340   6.159  13.115 -0.2946 -1.2311 -0.5585
 5503TIP3    H238001   0.199   6.160  13.061  0.5064  0.7509 -2.7028
 5504TIP3   OH238002   5.232   4.018  12.621 -0.2743 -0.0335 -0.5911
 5504TIP3    H138003   5.311   3.976  12.586 -0.3234 -0.9589  0.3825
 5504TIP3    H238004   5.161   3.958  12.598 -0.2521 -0.8583  1.4320
 5505TIP3   OH238005   6.241   2.477  14.663  0.1709 -0.1925 -0.1588
 5505TIP3    H138006   6.248   2.569  14.638  2.2857 -0.0272  0.9572
 5505TIP3    H238007   6.257   2.429  14.582  3.0433  0.4000 -0.0070
 5506TIP3   OH238008   4.028   3.837  11.575 -0.6261  0.4807 -0.0003
 5506TIP3    H138009   4.050   3.773  11.507 -2.5013  4.7683 -4.9253
 5506TIP3    H238010   3.942   3.809  11.607 -1.0894  0.1254 -1.5546
 5507TIP3   OH238011   4.661   3.071  11.216 -0.0981  0.2650  0.3886
 5507TIP3    H138012   4.602   3.089  11.143  0.3320  1.0285  0.2236
 5507TIP3    H238013   4.604   3.051  11.290 -0.5443  0.1219  0.0028
 5508TIP3   OH238014   6.789   5.862  15.388  0.1431  0.7688 -0.1154
 5508TIP3    H138015   6.812   5.945  15.347 -1.0336  0.8537 -0.6152
 5508TIP3    H238016   6.825   5.795  15.330  0.0150  0.9112 -0.3579
 5509TIP3   OH238017   6.314   1.474  16.455  0.1347  0.4590 -0.5964
 5509TIP3    H138018   6.302   1.391  16.501 -0.7394  0.5947 -0.5807
 5509TIP3    H238019   6.373   1.453  16.382 -2.0945 -0.7075 -2.1034
 5510TIP3   OH238020   1.535   5.214  16.557 -0.5749  0.0693 -0.5500
 5510TIP3    H138021   1.562   5.150  16.492 -0.9283 -0.3978 -0.2350
 5510TIP3    H238022   1.609   5.220  16.617 -0.8575 -0.6132 -0.1406
 5511TIP3   OH238023   6.297   3.579  10.528  0.0463  0.5451 -0.1017
 5511TIP3    H138024   6.353   3.529  10.587 -1.2289 -0.6772  0.1153
 5511TIP3    H238025   6.243   3.513  10.484 -1.2367  1.6687 -0.2867
 5512TIP3   OH238026   5.990   4.090   0.147  0.5562 -0.7288  0.1705
 5512TIP3    H138027   6.013   4.149   0.075 -0.9995  0.6359  0.7759
 5512TIP3    H238028   6.071   4.043   0.166  1.4820  0.2897 -1.1786
 5513TIP3   OH238029   5.431   3.751  12.932  0.5474 -0.1291 -0.4230
 5513TIP3    H138030   5.380   3.809  12.875 -1.1386 -1.1005  0.0497
 5513TIP3    H238031   5.446   3.804  13.011  2.0384  0.8679 -1.3557
 5514TIP3   OH238032   4.914   5.682  12.248 -0.0855  0.3561  0.7849
 5514TIP3    H138033   4.840   5.639  12.204 -0.4485  0.9532  0.8097
 5514TIP3    H238034   4.893   5.775  12.246  0.6661  0.5302  0.8035
 5515TIP3   OH238035   2.679   3.666   3.527  0.5107 -0.8697  0.0670
 5515TIP3    H138036   2.731   3.600   3.481 -0.8733 -2.2745  0.4746
 5515TIP3    H238037   2.594   3.664   3.483  0.3192  0.3256  0.3763
 5516TIP3   OH238038   0.333   2.657  10.200 -0.2359  0.8613  0.2883
 5516TIP3    H138039   0.356   2.746  10.225 -2.1231  1.6680 -0.7582
 5516TIP3    H238040   0.245   2.644  10.237 -1.2848  0.5749 -2.2220
 5517TIP3   OH238041   5.517   1.353   4.102  0.0198  0.1790 -0.1104
 5517TIP3    H138042   5.576   1.294   4.149 -0.6774  0.1376  0.7225
 5517TIP3    H238043   5.429   1.322   4.125 -0.3370  0.7541 -0.6845
 5518TIP3   OH238044   6.261   6.460  13.327 -0.5577  0.7136  0.0797
 5518TIP3    H138045   6.353   6.459  13.302 -0.6782  1.6121 -0.4182
 5518TIP3    H238046   6.248   6.376  13.372  0.8054  1.1094  1.2672
 5519TIP3   OH238047   3.935   3.050  12.897  0.3655 -0.0888  0.3833
 5519TIP3    H138048   3.963   2.966  12.933  2.2116  0.1591 -0.4386
 5519TIP3    H238049   3.863   3.028  12.837  0.1403 -0.9528  0.9717
 5520TIP3   OH238050   0.018   4.560   6.005 -0.2909 -0.0281 -0.0462
 5520TIP3    H138051   0.081   4.630   6.025 -1.4357  0.9461  0.2128
 5520TIP3    H238052   0.020   4.504   6.083 -0.1526  0.3146  0.2005
 5521TIP3   OH238053   5.687   0.257   3.867  0.6364 -1.3318  0.0435
 5521TIP3    H138054   5.598   0.290   3.855  1.2807 -0.5249 -2.8545
 5521TIP3    H238055   5.740   0.336   3.878  1.0106 -1.8186  1.8963
 5522TIP3   OH238056   4.255   1.124  10.745  0.9610  0.3555 -0.5053
 5522TIP3    H138057   4.226   1.047  10.698 -3.3874  2.3693 -1.3835
 5522TIP3    H238058   4.294   1.181  10.678  4.3698 -1.0466  0.1753
 5523TIP3   OH238059   1.835   3.123  12.908  0.1058 -0.5049  0.4948
 5523TIP3    H138060   1.918   3.097  12.946  0.2196 -1.0070 -0.1022
 5523TIP3    H238061   1.852   3.209  12.870  0.8059 -1.3413 -1.1224
 5524TIP3   OH238062   4.590   3.492   3.838 -0.0111  0.0269 -0.3000
 5524TIP3    H138063   4.567   3.501   3.930  1.7072 -0.1687  0.1616
 5524TIP3    H238064   4.520   3.437   3.801 -0.1244 -0.7944  1.1110
 5525TIP3   OH238065   5.944   6.191  12.495 -0.3667 -0.5298 -0.0333
 5525TIP3    H138066   5.940   6.125  12.564  1.2571 -0.6889 -0.0726
 5525TIP3    H238067   5.978   6.269  12.538 -1.1952 -0.0548 -0.2356
 5526TIP3   OH238068   4.608   0.555  17.256 -0.0033 -0.2127 -0.0767
 5526TIP3    H138069   4.598   0.490  17.326 -0.4614  2.5869  2.5388
 5526TIP3    H238070   4.700   0.582  17.261 -0.5522  1.4936  0.7957
 5527TIP3   OH238071   4.141   2.436  14.297  0.4104 -0.4745  0.5619
 5527TIP3    H138072   4.084   2.441  14.220  2.5954  1.3688 -1.0087
 5527TIP3    H238073   4.190   2.355  14.285  0.4669 -0.3894  0.2245
 5528TIP3   OH238074   1.980   6.744   0.968  0.3382 -0.3334  0.5822
 5528TIP3    H138075   1.986   6.736   0.873  0.8260 -0.4983  0.6227
 5528TIP3    H238076   1.934   6.826   0.983 -0.4730 -0.7169  0.1923
 5529TIP3   OH238077   6.251   5.671  16.687 -0.2006  0.1459 -0.2802
 5529TIP3    H138078   6.227   5.645  16.598 -0.5430 -0.6550  0.0453
 5529TIP3    H238079   6.335   5.627  16.703 -0.5382 -0.3695  0.0881
 5530TIP3   OH238080   4.417   3.954  11.086  0.3416  0.1074  0.0520
 5530TIP3    H138081   4.507   3.960  11.055 -0.1478  0.7085 -1.3353
 5530TIP3    H238082   4.382   3.876  11.043  0.3830 -0.4980  1.0984
 5531TIP3   OH238083   0.832   2.210  12.919 -0.0806 -0.0636 -0.5444
 5531TIP3    H138084   0.915   2.184  12.881 -1.1726 -1.8948 -1.8052
 5531TIP3    H238085   0.784   2.251  12.847 -1.0983 -1.0431 -0.4425
 5532TIP3   OH238086   5.294   6.083  12.080 -0.2842  0.0020 -0.5443
 5532TIP3    H138087   5.220   6.050  12.131 -0.2584  1.2241  0.3036
 5532TIP3    H238088   5.294   6.178  12.096  0.6484  0.1857 -1.6044
 5533TIP3   OH238089   6.327   3.755   4.884 -0.0518  0.1835 -0.6638
 5533TIP3    H138090   6.306   3.723   4.971 -1.0966  0.8587 -0.6626
 5533TIP3    H238091   6.257   3.817   4.863 -0.0716 -0.3326 -2.1792
 5534TIP3   OH238092   2.465   3.807   4.726 -0.0164 -0.1797 -0.2347
 5534TIP3    H138093   2.473   3.769   4.638 -0.5251  0.6198 -0.6330
 5534TIP3    H238094   2.522   3.884   4.723 -0.0820 -0.1207  0.1192
 5535TIP3   OH238095   0.551   1.385  15.258 -0.2512 -0.1517  0.4274
 5535TIP3    H138096   0.566   1.329  15.182 -2.1938 -1.5713  1.0414
 5535TIP3    H238097   0.636   1.387  15.303 -0.0454 -2.3967  0.2194
 5536TIP3   OH238098   0.320   0.525   3.249  0.4186 -0.2451 -0.0278
 5536TIP3    H138099   0.345   0.558   3.162 -0.7068 -0.1146 -0.3002
 5536TIP3    H238100   0.397   0.542   3.303  0.9285  0.1758 -0.8615
 5537TIP3   OH238101   6.673   6.214   5.957  0.3748  0.1028 -0.2934
 5537TIP3    H138102   6.711   6.127   5.946 -2.0978 -0.9268 -1.2875
 5537TIP3    H238103   6.693   6.239   6.047 -1.4504 -2.8551  1.0145
 5538TIP3   OH238104   1.875   2.405   5.076  0.0421 -0.0119  0.8213
 5538TIP3    H138105   1.948   2.374   5.023  0.0856  0.8749  0.3496
 5538TIP3    H238106   1.914   2.432   5.159  0.5472  2.2456 -0.1085
 5539TIP3   OH238107   6.543   3.918   0.483 -0.7551  0.0815  0.5778
 5539TIP3    H138108   6.459   3.944   0.520  0.5629  2.3801  1.9926
 5539TIP3    H238109   6.591   3.879   0.556  0.0034  0.1817  0.1384
 5540TIP3   OH238110   0.263   4.742  10.737 -0.3600  0.1096 -0.3940
 5540TIP3    H138111   0.331   4.792  10.691 -1.9202  2.3509 -0.3317
 5540TIP3    H238112   0.183   4.792  10.723 -1.6139 -1.3681  1.3119
 5541TIP3   OH238113   6.234   1.190   1.727  0.3178  0.2165 -0.2820
 5541TIP3    H138114   6.329   1.187   1.734  0.2489  0.9016  1.2506
 5541TIP3    H238115   6.207   1.099   1.725  0.8551 -0.0493  2.1717
 5542TIP3   OH238116   1.032   5.693  15.604  0.4593 -0.0560  0.3901
 5542TIP3    H138117   1.064   5.605  15.582  0.5445 -0.0476  0.4830
 5542TIP3    H238118   1.095   5.727  15.666  0.4900  0.1185  0.2628
 5543TIP3   OH238119   3.667   3.535  11.247  0.0342 -0.1345 -0.0630
 5543TIP3    H138120   3.738   3.599  11.252  1.9464 -2.1916  0.3258
 5543TIP3    H238121   3.657   3.518  11.153 -1.3547  1.6391 -0.2495
 5544TIP3   OH238122   4.738   1.788   2.251  0.0527 -0.4256 -0.0840
 5544TIP3    H138123   4.700   1.845   2.184 -1.0581  2.6268  2.9542
 5544TIP3    H238124   4.825   1.824   2.267  0.9931 -2.2091 -1.0607
 5545TIP3   OH238125   4.786   6.638   1.944  0.1715  0.0687 -0.0642
 5545TIP3    H138126   4.861   6.680   1.902 -0.1932 -0.7418 -1.5331
 5545TIP3    H238127   4.713   6.698   1.926 -0.0620 -0.4700 -0.9287
 5546TIP3   OH238128   1.980   3.925  16.844  0.0192 -0.0705 -0.2726
 5546TIP3    H138129   1.925   3.849  16.864 -0.2587  0.4279  0.9302
 5546TIP3    H238130   2.063   3.888  16.815 -0.5127 -0.8365 -0.8400
 5547TIP3   OH238131   1.992   6.771  11.507  0.0621  0.0899  0.0084
 5547TIP3    H138132   2.076   6.730  11.529 -0.7602 -0.8594  1.4809
 5547TIP3    H238133   2.012   6.864  11.499  1.0693  0.0021  1.3377
 5548TIP3   OH238134   4.575   0.034  11.385  0.0141  0.1262 -0.3647
 5548TIP3    H138135   4.536   0.121  11.384 -0.5699 -0.1282 -0.7312
 5548TIP3    H238136   4.659   0.044  11.342  1.0096  0.9716  1.7238
 5549TIP3   OH238137   0.970   6.411   5.709  0.4127 -0.5485  0.2674
 5549TIP3    H138138   0.941   6.489   5.662 -0.7343 -0.3665  1.2442
 5549TIP3    H238139   0.914   6.408   5.787  2.4357 -0.7042  1.7546
 5550TIP3   OH238140   5.570   1.067   3.321 -0.0845  0.3210 -0.0598
 5550TIP3    H138141   5.535   1.081   3.233 -1.4657 -0.2527  0.3892
 5550TIP3    H238142   5.629   1.141   3.335  2.4037 -1.0913 -2.5651
 5551TIP3   OH238143   4.891   4.930   2.243 -0.0122  0.2088  0.3413
 5551TIP3    H138144   4.935   4.858   2.288  1.9906  0.0157 -1.8407
 5551TIP3    H238145   4.946   5.007   2.262 -0.6968  0.6640  0.5035
 5552TIP3   OH238146   5.900   3.147  11.140  0.1798  0.0456  0.1483
 5552TIP3    H138147   5.886   3.173  11.049 -0.5844 -1.3009 -0.1440
 5552TIP3    H238148   5.989   3.174  11.160  0.5414 -0.1370 -1.1921
 5553TIP3   OH238149   5.185   2.281  14.729  0.1204  0.1607 -0.2039
 5553TIP3    H138150   5.278   2.260  14.732  0.2428  0.8591  1.8688
 5553TIP3    H238151   5.182   2.375  14.711 -0.2137  0.0429 -0.7862
 5554TIP3   OH238152   0.600   3.663  10.953 -0.3382  0.0150 -0.3783
 5554TIP3    H138153   0.650   3.656  11.034 -1.5141  1.9320  0.5455
 5554TIP3    H238154   0.659   3.627  10.885  1.4869  0.3824  0.9744
 5555TIP3   OH238155   0.442   0.061   5.808  0.3885 -0.0928 -0.4000
 5555TIP3    H138156   0.528   0.095   5.832 -0.4859  1.3951  0.6501
 5555TIP3    H238157   0.424  -0.006   5.874  0.4611  0.0160 -0.2712
 5556TIP3   OH238158   5.092   2.030  11.509  0.5147  1.0473  0.0677
 5556TIP3    H138159   5.114   1.951  11.559  0.2816  1.4942  0.8738
 5556TIP3    H238160   5.175   2.055  11.467  0.3082 -0.3611 -1.2547
 5557TIP3   OH238161   5.506   0.348  12.757  0.0089 -0.4275 -0.4021
 5557TIP3    H138162   5.517   0.402  12.835 -1.5330 -0.8838  0.1473
 5557TIP3    H238163   5.475   0.408  12.690  0.5020 -0.2027 -0.4316
 5558TIP3   OH238164   6.262   3.579  14.425  0.1029  0.4793 -0.3221
 5558TIP3    H138165   6.208   3.554  14.350 -0.4521  1.2738 -0.1926
 5558TIP3    H238166   6.251   3.506  14.487 -1.3438  0.9111 -0.0346
 5559TIP3   OH238167   5.150   0.047   2.668  0.1434  0.1763 -0.2116
 5559TIP3    H138168   5.148   0.135   2.631 -1.0126  0.0327 -0.5189
 5559TIP3    H238169   5.175   0.060   2.760 -1.0448  0.9273  0.0157
 5560TIP3   OH238170   3.992   1.799   5.564 -0.0374  0.0041  0.1759
 5560TIP3    H138171   3.953   1.870   5.514 -2.8210 -0.2201  1.9148
 5560TIP3    H238172   4.046   1.842   5.630 -0.7042  0.4886  0.4121
 5561TIP3   OH238173   2.400   4.082  12.197  0.5713  0.0732 -0.1336
 5561TIP3    H138174   2.374   3.990  12.189 -0.5177  0.5262 -2.0849
 5561TIP3    H238175   2.488   4.078  12.234 -0.6721 -1.6344  2.8146
 5562TIP3   OH238176   5.089   3.545  14.631 -0.2014 -0.6775  0.2606
 5562TIP3    H138177   5.025   3.503  14.688  1.0293 -1.4845  1.0723
 5562TIP3    H238178   5.128   3.473  14.582  0.1379 -0.1991 -0.1778
 5563TIP3   OH238179   1.323   2.505   3.351  0.3334 -0.4479  0.9734
 5563TIP3    H138180   1.249   2.525   3.294  0.4440 -1.8503  0.3056
 5563TIP3    H238181   1.288   2.515   3.440 -0.0411  1.0283  0.6751
 5564TIP3   OH238182   6.299   3.357   2.795 -0.0370  0.1030  0.5511
 5564TIP3    H138183   6.379   3.356   2.741 -0.0801  2.3281  0.4008
 5564TIP3    H238184   6.292   3.268   2.828  1.4767 -0.6222 -0.9692
 5565TIP3   OH238185   2.295   3.149   0.523  0.2100 -0.3688  0.1401
 5565TIP3    H138186   2.232   3.200   0.471  1.0538  1.7946  1.2071
 5565TIP3    H238187   2.261   3.059   0.518 -1.9519  0.4454 -0.8178
 5566TIP3   OH238188   1.378   0.357   5.521  1.2444  0.6303 -0.2917
 5566TIP3    H138189   1.434   0.302   5.576  2.1582 -0.0455 -1.8542
 5566TIP3    H238190   1.382   0.444   5.561  2.6104  0.3408  0.2073
 5567TIP3   OH238191   4.286   4.711   1.588  0.6977 -0.1445 -0.1338
 5567TIP3    H138192   4.200   4.699   1.547 -0.0498  0.1635  1.3343
 5567TIP3    H238193   4.328   4.625   1.581 -0.2585 -0.6525  0.3518
 5568TIP3   OH238194   2.449   5.185   1.551 -0.1113 -0.6879  0.1381
 5568TIP3    H138195   2.460   5.093   1.527 -0.3022 -0.9244  0.9130
 5568TIP3    H238196   2.364   5.210   1.515 -0.8544 -1.3296  1.4233
 5569TIP3   OH238197   3.096   2.203  11.831  0.5428 -0.0775 -0.0558
 5569TIP3    H138198   3.060   2.134  11.886  1.3057 -0.5677 -0.1682
 5569TIP3    H238199   3.178   2.167  11.798  0.8782  0.8288 -0.2224
 5570TIP3   OH238200   6.456   4.506  11.578 -1.0650 -0.4069  0.2298
 5570TIP3    H138201   6.518   4.533  11.509 -0.1084  2.0951  2.0021
 5570TIP3    H238202   6.490   4.421  11.607 -0.3115 -0.5538 -1.0157
 5571TIP3   OH238203   5.183   5.725   0.805 -0.3243  0.4544  0.1017
 5571TIP3    H138204   5.224   5.641   0.822  1.4845  1.3704  0.4571
 5571TIP3    H238205   5.218   5.753   0.720 -1.3345  0.6035 -0.2765
 5572TIP3   OH238206   5.246   4.882  14.500 -0.0883  0.1252 -0.0620
 5572TIP3    H138207   5.153   4.868  14.516 -0.2167 -0.4165 -1.2392
 5572TIP3    H238208   5.249   4.949  14.432  0.4006  0.6580  0.4758
 5573TIP3   OH238209   3.206   2.664   4.659  0.5136  0.5823  0.2020
 5573TIP3    H138210   3.228   2.752   4.689  0.5857  0.6887 -0.1644
 5573TIP3    H238211   3.179   2.675   4.569  0.6543  0.2106  0.1120
 5574TIP3   OH238212   5.120   4.536   3.326 -0.2199 -0.5232 -0.1551
 5574TIP3    H138213   5.123   4.446   3.358 -0.4214 -0.6242 -0.4188
 5574TIP3    H238214   5.159   4.531   3.238  0.6741 -0.1849  0.2161
 5575TIP3   OH238215   0.537   4.049   4.649 -0.4771 -0.5157  1.0418
 5575TIP3    H138216   0.524   3.954   4.645 -1.6429 -0.3060 -0.8836
 5575TIP3    H238217   0.466   4.085   4.595 -0.2469  1.4656  2.0421
 5576TIP3   OH238218   0.024   3.940   2.735  0.1696  0.0783  0.3998
 5576TIP3    H138219   0.066   3.983   2.662  1.1412 -2.5407 -0.6524
 5576TIP3    H238220   0.012   4.009   2.801 -0.5659  2.4330 -2.1097
 5577TIP3   OH238221   0.546   1.966  16.897  0.0980 -0.6203  0.0499
 5577TIP3    H138222   0.594   2.015  16.831 -2.0916 -0.1363 -1.2535
 5577TIP3    H238223   0.479   1.918  16.847 -0.9193 -1.0789  1.7986
 5578TIP3   OH238224   2.044   3.218  11.034  0.0703 -0.6114 -0.3245
 5578TIP3    H138225   2.074   3.127  11.029 -0.4990 -0.7345 -1.6782
 5578TIP3    H238226   1.958   3.217  10.992  0.1630  0.5949 -0.5527
 5579TIP3   OH238227   5.247   0.778   3.042 -0.5819  0.1469 -0.0406
 5579TIP3    H138228   5.298   0.799   2.963  0.5607  1.7055  1.0795
 5579TIP3    H238229   5.257   0.684   3.052  1.2733  0.2759 -0.4060
 5580TIP3   OH238230   5.766   0.088  15.610 -0.1274 -0.7778  0.2346
 5580TIP3    H138231   5.802   0.012  15.565  1.1338 -0.8817  1.3995
 5580TIP3    H238232   5.819   0.097  15.689 -0.4271  1.1612  0.2380
 5581TIP3   OH238233   1.826   0.383   5.085 -0.5032 -0.7113 -0.1484
 5581TIP3    H138234   1.765   0.413   5.017  0.9997  0.8278 -0.8519
 5581TIP3    H238235   1.813   0.445   5.158 -1.7667 -2.0683  0.7994
 5582TIP3   OH238236   1.923   6.595   4.240 -0.3565  0.6272 -0.1712
 5582TIP3    H138237   1.962   6.637   4.163  0.1024  1.5025  0.5401
 5582TIP3    H238238   1.990   6.533   4.270  1.1214  3.1544  1.9116
 5583TIP3   OH238239   4.892   1.240  12.212  0.6248  0.4172  0.2027
 5583TIP3    H138240   4.913   1.277  12.126  1.6569 -0.2567  0.1548
 5583TIP3    H238241   4.863   1.151  12.193 -2.2116  1.2687  0.2850
 5584TIP3   OH238242   5.337   2.453   0.224 -0.1346  0.3265  0.3039
 5584TIP3    H138243   5.372   2.520   0.165  0.4101 -2.1768 -2.3300
 5584TIP3    H238244   5.415   2.410   0.260 -0.4756 -0.7148 -0.1922
 5585TIP3   OH238245   3.161   4.555   5.560 -0.2959 -0.8667 -0.0183
 5585TIP3    H138246   3.148   4.647   5.539 -0.6681 -0.8438  0.3119
 5585TIP3    H238247   3.180   4.554   5.654 -0.6749 -1.1605  0.0577
 5586TIP3   OH238248   2.989   2.588  12.468  0.1246 -0.5865  0.3912
 5586TIP3    H138249   3.081   2.606  12.489 -0.0309  1.0100 -0.1527
 5586TIP3    H238250   2.952   2.554  12.549  0.9639 -0.2915  0.9108
 5587TIP3   OH238251   0.532   4.764  14.039  0.2738 -0.2121 -0.8841
 5587TIP3    H138252   0.603   4.763  14.103 -1.3385  1.5414  1.0246
 5587TIP3    H238253   0.551   4.690  13.981  2.9010 -0.5938  0.3759
 5588TIP3   OH238254   5.474   0.733   5.764 -0.0579  0.4464  0.1076
 5588TIP3    H138255   5.468   0.649   5.810 -1.0289  0.0003 -0.7936
 5588TIP3    H238256   5.398   0.782   5.793 -0.6813  0.1570 -1.0115
 5589TIP3   OH238257   2.503   5.702  10.387  0.3140  0.4662  0.0850
 5589TIP3    H138258   2.429   5.649  10.361  0.7322  0.0002 -0.1644
 5589TIP3    H238259   2.569   5.639  10.417  0.2529  0.9266  1.2207
 5590TIP3   OH238260   4.607   6.415   5.270 -0.0198 -0.4472  0.2183
 5590TIP3    H138261   4.541   6.473   5.232 -0.1903 -1.6996 -1.4197
 5590TIP3    H238262   4.556   6.348   5.315  0.1798  0.5049  1.9008
 5591TIP3   OH238263   2.408   2.198  13.705 -0.3233 -0.6483  0.2749
 5591TIP3    H138264   2.502   2.213  13.716 -0.0329 -1.6312 -0.7464
 5591TIP3    H238265   2.393   2.210  13.611 -1.4651  0.8124  0.6353
 5592TIP3   OH238266   4.085   2.038  11.369  0.0492  0.9120 -0.1933
 5592TIP3    H138267   4.070   2.037  11.274  0.5003  1.0482 -0.2659
 5592TIP3    H238268   4.122   1.952  11.389 -2.3435 -0.0605  0.2356
 5593TIP3   OH238269   4.953   4.526  16.701  0.8837  0.3586  0.1879
 5593TIP3    H138270   4.905   4.593  16.653 -1.0333 -0.5581  0.7384
 5593TIP3    H238271   4.927   4.539  16.792  1.4052 -0.3805  0.4485
 5594TIP3   OH238272   5.262   1.724   6.063 -0.1230 -0.0694 -0.7538
 5594TIP3    H138273   5.311   1.806   6.054  0.8619 -0.3373  1.5737
 5594TIP3    H238274   5.329   1.656   6.055 -0.5145 -0.5379 -0.0759
 5595TIP3   OH238275   6.750   6.069  16.289  0.3954 -0.6078 -0.3535
 5595TIP3    H138276   6.663   6.107  16.299 -0.2303 -1.6073 -1.9999
 5595TIP3    H238277   6.797   6.132  16.233  0.7681 -0.0409  0.5798
 5596TIP3   OH238278   2.813   0.126  11.592 -0.2103 -0.0246 -0.3902
 5596TIP3    H138279   2.844   0.156  11.678  1.6050 -0.6376 -0.8108
 5596TIP3    H238280   2.809   0.031  11.599 -2.8682  0.0575 -0.0928
 5597TIP3   OH238281   4.338   2.666   5.666 -0.0377 -0.2994  0.2475
 5597TIP3    H138282   4.375   2.581   5.691 -0.6610 -0.2274  1.4554
 5597TIP3    H238283   4.363   2.677   5.575  0.2883 -1.6607  0.1636
 5598TIP3   OH238284   4.515   0.255  13.304 -0.0501  0.3723 -0.1532
 5598TIP3    H138285   4.602   0.248  13.265 -0.1824 -0.0340 -0.3825
 5598TIP3    H238286   4.529   0.238  13.398 -0.3877 -3.6557 -0.7149
 5599TIP3   OH238287   1.727   1.609  13.218 -0.7359  0.0854  0.3064
 5599TIP3    H138288   1.750   1.560  13.297  0.7317  3.0533  1.7965
 5599TIP3    H238289   1.662   1.555  13.174 -2.0311 -1.3714  3.8463
 5600TIP3   OH238290   6.347   1.784  12.187  0.3144 -0.2992 -0.1677
 5600TIP3    H138291   6.265   1.802  12.140  0.6321  1.0650 -0.2040
 5600TIP3    H238292   6.340   1.833  12.268  1.4298  0.4568 -0.5174
 5601TIP3   OH238293   0.650   3.178   2.939  0.3186  0.0078  0.0820
 5601TIP3    H138294   0.598   3.170   3.019 -0.5403  0.4556 -0.4226
 5601TIP3    H238295   0.614   3.110   2.880  1.2078 -0.5859  0.2119
 5602TIP3   OH238296   5.659   6.410   0.862 -0.4455 -0.3813 -0.1703
 5602TIP3    H138297   5.672   6.421   0.767 -1.0896 -1.4280 -0.3902
 5602TIP3    H238298   5.595   6.478   0.885  0.1823  0.2873 -0.3568
 5603TIP3   OH238299   1.743   1.416  15.456 -0.1089  0.4771  0.0996
 5603TIP3    H138300   1.713   1.506  15.471 -0.9476 -0.0429  1.6856
 5603TIP3    H238301   1.681   1.380  15.393  0.7763  1.2870 -1.2567
 5604TIP3   OH238302   4.309   6.620   2.620  0.4451  0.2804  0.2745
 5604TIP3    H138303   4.375   6.550   2.611 -0.3389 -0.2102 -2.1674
 5604TIP3    H238304   4.358   6.700   2.603  0.6906  0.0184 -0.3061
 5605TIP3   OH238305   5.026   5.025   1.437  0.4930  0.0303 -0.3627
 5605TIP3    H138306   5.023   4.956   1.371 -0.0270 -0.1579 -0.1480
 5605TIP3    H238307   5.087   4.992   1.503  0.8830  0.1438 -0.6658
 5606TIP3   OH238308   3.551   0.748   5.042  0.2016  0.4812  0.1338
 5606TIP3    H138309   3.544   0.741   4.947  1.3298 -0.7279  0.1320
 5606TIP3    H238310   3.482   0.810   5.066  0.9942  2.1150 -1.6446
 5607TIP3   OH238311   2.238   2.502  10.600 -0.4433  0.3429 -0.2595
 5607TIP3    H138312   2.250   2.414  10.566 -0.4096 -0.5181  1.9156
 5607TIP3    H238313   2.143   2.514  10.604 -0.4477  0.3882 -0.5434
 5608TIP3   OH238314   6.346   4.530   2.122  0.2136 -0.0443 -0.3677
 5608TIP3    H138315   6.352   4.624   2.102  0.1529  0.4069  1.6558
 5608TIP3    H238316   6.434   4.504   2.146 -0.2069  0.0337  1.3178
 5609TIP3   OH238317   2.430   5.820  11.004  0.0042 -0.7787 -0.3278
 5609TIP3    H138318   2.442   5.735  11.048 -2.1694  0.0702  1.9937
 5609TIP3    H238319   2.363   5.803  10.938 -1.6921 -0.5155  1.2863
 5610TIP3   OH238320   6.141   0.762   0.871 -0.6638  0.3422 -0.4527
 5610TIP3    H138321   6.168   0.777   0.962  2.3955 -0.7386 -1.1296
 5610TIP3    H238322   6.156   0.845   0.827  0.9630 -0.0472 -0.6610
 5611TIP3   OH238323   0.807   6.354   0.539 -0.5952 -0.6871  0.0476
 5611TIP3    H138324   0.842   6.288   0.480  0.3568  2.1354 -2.6569
 5611TIP3    H238325   0.714   6.334   0.545 -0.5770 -1.4441 -1.8611
 5612TIP3   OH238326   4.585   4.358   3.083 -0.2798 -0.4697  0.4549
 5612TIP3    H138327   4.644   4.310   3.025 -2.0083  0.8876 -2.5954
 5612TIP3    H238328   4.498   4.323   3.061 -0.9995  0.3692  1.9663
 5613TIP3   OH238329   6.547   4.485  15.659 -0.0127  0.5557 -0.0704
 5613TIP3    H138330   6.621   4.423  15.664 -1.6646 -1.3900  0.9358
 5613TIP3    H238331   6.581   4.566  15.696  1.6560 -0.2730  0.2660
 5614TIP3   OH238332   2.657   1.897   2.131  0.3564  0.0876 -0.1346
 5614TIP3    H138333   2.585   1.942   2.176  1.5632  2.7568 -0.7253
 5614TIP3    H238334   2.728   1.897   2.196  0.5391 -0.4538 -0.3393
 5615TIP3   OH238335   4.749   4.862   5.444 -0.4272 -0.4354 -0.1032
 5615TIP3    H138336   4.794   4.850   5.528 -2.4886 -2.5403  0.7598
 5615TIP3    H238337   4.765   4.780   5.397 -0.6446  0.0985 -1.1113
 5616TIP3   OH238338   3.970   5.426   1.650 -0.9670  0.2493  0.2009
 5616TIP3    H138339   3.891   5.389   1.610 -0.4651 -1.6097  0.8858
 5616TIP3    H238340   4.037   5.418   1.582 -1.2635  1.4960 -0.2521
 5617TIP3   OH238341   1.875   5.768  14.920  0.5633 -0.1564 -0.8895
 5617TIP3    H138342   1.859   5.740  14.830  0.8433  2.0053 -1.6376
 5617TIP3    H238343   1.970   5.773  14.928  0.6126 -2.2175  0.1450
 5618TIP3   OH238344   1.406   1.780   6.141 -0.7593 -0.9099  0.1788
 5618TIP3    H138345   1.378   1.765   6.051 -2.2861 -2.7071  0.9334
 5618TIP3    H238346   1.462   1.705   6.161 -1.4089 -1.1422  1.1289
 5619TIP3   OH238347   0.513   1.546   3.423 -0.6347  0.5061  0.1059
 5619TIP3    H138348   0.496   1.456   3.449  1.5583  0.4641  1.5159
 5619TIP3    H238349   0.521   1.594   3.505 -1.6640  1.9713 -0.6236
 5620TIP3   OH238350   2.308   5.874  11.265 -0.3096 -0.1691 -0.4828
 5620TIP3    H138351   2.322   5.876  11.171 -0.0425  2.2840 -0.4231
 5620TIP3    H238352   2.214   5.893  11.276 -0.1158  0.6332 -0.2110
 5621TIP3   OH238353   3.214   6.333   3.484 -0.5598  0.1698  0.3799
 5621TIP3    H138354   3.193   6.244   3.453  3.0642 -0.2113 -1.1755
 5621TIP3    H238355   3.173   6.391   3.419 -1.6220 -0.3807  0.5452
 5622TIP3   OH238356   5.622   3.927  13.994 -0.3344 -0.3141  0.4055
 5622TIP3    H138357   5.704   3.908  14.041  0.5664  2.4341  0.0345
 5622TIP3    H238358   5.602   4.018  14.016 -3.1060 -0.8171  0.1621
 5623TIP3   OH238359   4.856   0.041  13.840 -0.4730 -0.5989  0.3188
 5623TIP3    H138360   4.941   0.078  13.816  0.0141 -0.8242  1.6784
 5623TIP3    H238361   4.861  -0.050  13.810 -0.1227 -0.6906  0.6446
 5624TIP3   OH238362   4.285   3.106   5.813  0.0155 -0.1795  0.4407
 5624TIP3    H138363   4.361   3.162   5.826 -0.5729  0.9349 -0.7730
 5624TIP3    H238364   4.259   3.080   5.901 -0.6664  2.7937  1.1705
 5625TIP3   OH238365   2.910   5.197  11.134 -0.3309  0.0115 -0.2101
 5625TIP3    H138366   2.866   5.171  11.053 -2.6908 -0.9401  1.2932
 5625TIP3    H238367   2.974   5.128  11.150  0.5067  0.4800 -1.5344
 5626TIP3   OH238368   2.115   3.544   4.790  0.2510  0.0575  0.2254
 5626TIP3    H138369   2.148   3.629   4.761  0.3305  0.1759  0.6578
 5626TIP3    H238370   2.063   3.564   4.867  2.2694 -0.5638  1.7859
 5627TIP3   OH238371   3.041   4.988   4.483  0.3412 -0.0497 -0.1155
 5627TIP3    H138372   3.125   4.953   4.451  0.3236 -0.4867  0.3040
 5627TIP3    H238373   3.007   5.040   4.410  1.2905  0.6719 -0.0521
 5628TIP3   OH238374   2.951   5.579   5.489  0.4085  0.2350 -0.6005
 5628TIP3    H138375   2.880   5.531   5.533 -0.4254  1.9737 -0.0329
 5628TIP3    H238376   3.020   5.584   5.554  0.7695 -0.7755 -0.8921
 5629TIP3   OH238377   0.308   4.392  15.897  0.1002  0.3288 -0.1504
 5629TIP3    H138378   0.319   4.438  15.814  2.3248 -1.0388 -0.6602
 5629TIP3    H238379   0.350   4.307  15.883  0.1128 -0.0881  2.2169
 5630TIP3   OH238380   0.536   0.160  15.039  0.1785 -0.1890 -0.1277
 5630TIP3    H138381   0.503   0.171  15.129  1.7753  0.2578  0.4208
 5630TIP3    H238382   0.631   0.161  15.048  0.3539 -0.7015 -1.7763
 5631TIP3   OH238383   5.043   1.553  13.475  0.0200  0.0409 -0.4193
 5631TIP3    H138384   4.994   1.471  13.466  1.0648 -0.3163 -3.1679
 5631TIP3    H238385   5.117   1.544  13.416 -0.3134  3.3224 -1.4393
 5632TIP3   OH238386   2.418   1.122  16.367  0.9913  0.5257  0.1195
 5632TIP3    H138387   2.504   1.097  16.333  0.2453 -0.4538 -1.0830
 5632TIP3    H238388   2.374   1.039  16.384  0.2418  1.0263  0.6240
 5633TIP3   OH238389   0.867   0.793   2.310  0.1022 -0.4061  0.6637
 5633TIP3    H138390   0.793   0.844   2.344  1.8686  2.1022  0.8672
 5633TIP3    H238391   0.937   0.807   2.373  0.7067 -2.9681  0.5997
 5634TIP3   OH238392   0.828   6.535  16.337  0.6751  0.1788  0.0051
 5634TIP3    H138393   0.876   6.460  16.303 -0.0031 -0.4190  0.3588
 5634TIP3    H238394   0.756   6.497  16.387  0.4774  1.0624  0.4037
 5635TIP3   OH238395   2.477   0.955   2.954  0.2726 -0.2968  0.3551
 5635TIP3    H138396   2.494   1.027   2.894 -0.2814  0.1746  0.7562
 5635TIP3    H238397   2.383   0.956   2.968  0.4225 -0.2240  1.4479
 5636TIP3   OH238398   0.727   2.719   6.477  0.4822 -0.0450  0.1557
 5636TIP3    H138399   0.739   2.699   6.570 -0.2209  0.9593  0.4736
 5636TIP3    H238400   0.815   2.741   6.445  1.0948 -2.4930  0.0475
 5637TIP3   OH238401   4.100   6.686   3.029  0.0757 -0.1316  0.3455
 5637TIP3    H138402   4.019   6.732   3.051 -1.6824 -2.1762 -1.6396
 5637TIP3    H238403   4.121   6.635   3.108  0.1483  1.3727  1.3162
 5638TIP3   OH238404   5.189   1.837  11.670  0.1157 -0.0214 -0.5686
 5638TIP3    H138405   5.157   1.778  11.602 -0.5209  0.3694 -0.6159
 5638TIP3    H238406   5.127   1.826  11.743 -0.7549  1.4907 -1.0414
 5639TIP3   OH238407   5.681   5.356  13.929 -0.1126 -0.1840  0.1491
 5639TIP3    H138408   5.686   5.420  14.000  0.2440 -0.8597  0.7299
 5639TIP3    H238409   5.771   5.325  13.918  0.3527  1.8627 -2.3992
 5640TIP3   OH238410   1.586   1.104  14.502  0.5978 -0.1218 -0.0746
 5640TIP3    H138411   1.681   1.116  14.506  0.4107  1.5613 -0.3550
 5640TIP3    H238412   1.555   1.135  14.587  0.1644  0.8544 -0.5723
 5641TIP3   OH238413   3.216   2.644  12.594  0.3407  0.4624 -0.0079
 5641TIP3    H138414   3.205   2.565  12.646 -1.4841  0.6455 -0.0632
 5641TIP3    H238415   3.165   2.711  12.641  0.5443  1.1947 -0.7995
 5642TIP3   OH238416   4.811   3.837   2.343  0.3152 -0.0020 -0.5259
 5642TIP3    H138417   4.843   3.766   2.288  1.6953  0.0275  0.2121
 5642TIP3    H238418   4.869   3.836   2.420  0.1313  1.6723 -0.3366
 5643TIP3   OH238419   0.061   2.794   0.339 -0.0995  0.7321 -0.3955
 5643TIP3    H138420  -0.012   2.770   0.282 -0.2506 -0.2454  0.1808
 5643TIP3    H238421   0.112   2.713   0.348  0.9361  1.3487 -0.6177
 5644TIP3   OH238422   4.072   4.315  11.693 -0.4063  0.5361 -0.2692
 5644TIP3    H138423   4.032   4.250  11.636 -0.3144  2.0996 -2.1779
 5644TIP3    H238424   4.152   4.274  11.725  0.0622 -0.0109 -2.0988
 5645TIP3   OH238425   4.323   4.108  16.702 -0.0214 -0.3568  0.7872
 5645TIP3    H138426   4.402   4.059  16.725  0.1119 -0.0698  0.9530
 5645TIP3    H238427   4.262   4.089  16.773  0.2796  0.2812  1.2194
 5646TIP3   OH238428   2.391   0.537  11.370  0.2346  0.5739  0.8314
 5646TIP3    H138429   2.368   0.567  11.282 -0.2917  0.3696  0.8964
 5646TIP3    H238430   2.433   0.452  11.356 -2.4989 -0.8467  0.9763
 5647TIP3   OH238431   3.537   0.123   1.896  0.1675  0.4341 -0.4690
 5647TIP3    H138432   3.579   0.200   1.935  0.6646 -0.0857  0.0233
 5647TIP3    H238433   3.518   0.065   1.970  0.7882 -0.3937 -0.9553
 5648TIP3   OH238434   0.881   1.224  14.054  0.2769 -0.0632  0.0658
 5648TIP3    H138435   0.813   1.254  14.115 -0.6663  0.0013 -1.0132
 5648TIP3    H238436   0.846   1.143  14.017  1.9513 -1.4861  1.4815
 5649TIP3   OH238437   0.761   1.051   2.943  0.3550  0.3149 -0.1299
 5649TIP3    H138438   0.840   1.039   2.892 -0.8695 -1.3979 -1.6928
 5649TIP3    H238439   0.727   1.136   2.915  1.9984  1.3873  1.0796
 5650TIP3   OH238440   2.071   4.984  12.057  0.1679  0.0686  0.2584
 5650TIP3    H138441   1.980   5.013  12.053 -0.0200 -0.1042  2.5985
 5650TIP3    H238442   2.068   4.891  12.037  0.1130  0.5030 -1.8386
 5651TIP3   OH238443   6.723   5.715  12.430 -0.6138 -0.7331  0.4769
 5651TIP3    H138444   6.724   5.761  12.347  3.3155  0.9478  1.3173
 5651TIP3    H238445   6.759   5.628  12.410 -2.2050 -1.2935 -0.0142
 5652TIP3   OH238446   1.237   5.015  17.192  0.4112 -0.6628 -0.1044
 5652TIP3    H138447   1.183   5.079  17.239 -0.2488 -1.8353  0.7529
 5652TIP3    H238448   1.187   4.993  17.114  0.6660 -0.1043 -0.4328
 5653TIP3   OH238449   3.311   6.235   4.307  0.0913 -0.0618 -0.0250
 5653TIP3    H138450   3.393   6.282   4.291  1.3580 -1.7608  1.3603
 5653TIP3    H238451   3.302   6.177   4.231  0.1487  0.1366 -0.1850
 5654TIP3   OH238452   6.777   5.147   5.868 -0.2239 -0.2648 -0.6226
 5654TIP3    H138453   6.795   5.177   5.956  0.9063 -1.4843 -0.4218
 5654TIP3    H238454   6.687   5.175   5.851 -0.5712 -0.3300  1.0368
 5655TIP3   OH238455   1.364   2.999   3.885  0.2910 -0.2696 -0.1535
 5655TIP3    H138456   1.456   3.011   3.861 -0.0327  4.1267  0.3350
 5655TIP3    H238457   1.315   3.048   3.819 -1.7211 -2.5583 -0.4089
 5656TIP3   OH238458   5.124   1.481   2.206 -0.1495  0.1013 -0.3484
 5656TIP3    H138459   5.108   1.534   2.128 -3.8478  0.2081  0.3945
 5656TIP3    H238460   5.156   1.544   2.271 -0.4246  0.6415 -0.7268
 5657TIP3   OH238461   0.616   1.468  14.532 -0.0128  0.0120  0.4688
 5657TIP3    H138462   0.554   1.482  14.604  0.4359 -0.9032  1.0407
 5657TIP3    H238463   0.561   1.461  14.454 -0.6144 -0.4311  0.9272
 5658TIP3   OH238464   5.893   4.512  14.844  0.0414 -0.2489  0.1439
 5658TIP3    H138465   5.837   4.434  14.850  2.1158 -1.8164 -0.0593
 5658TIP3    H238466   5.954   4.503  14.917  2.3561 -0.5229 -1.7543
 5659TIP3   OH238467   1.213   6.049   1.197  0.8665  0.1483  0.3349
 5659TIP3    H138468   1.192   6.007   1.280  2.2193 -1.6363 -0.1792
 5659TIP3    H238469   1.154   6.123   1.192 -0.1254 -0.4639  2.2864
 5660TIP3   OH238470   0.878   0.671  13.206  0.5510  0.7627  0.0512
 5660TIP3    H138471   0.789   0.642  13.185  0.1906  1.1323  1.0591
 5660TIP3    H238472   0.927   0.656  13.125  0.2860 -2.2646  0.3681
 5661TIP3   OH238473   5.639   4.736   5.152 -0.1339  0.0534 -0.1270
 5661TIP3    H138474   5.589   4.812   5.123 -2.4101 -1.3167  0.1610
 5661TIP3    H238475   5.629   4.672   5.081  1.1815 -0.2708 -0.0435
 5662TIP3   OH238476   2.241   1.733   2.563  0.4805  0.2182 -0.3211
 5662TIP3    H138477   2.156   1.777   2.551 -0.5367 -1.1031  1.7085
 5662TIP3    H238478   2.243   1.666   2.496  0.1169  0.5777 -0.6961
 5663TIP3   OH238479   1.350   5.350   3.958  0.1510 -0.0563  0.0867
 5663TIP3    H138480   1.352   5.322   3.866  2.4228  0.4075 -0.0192
 5663TIP3    H238481   1.441   5.348   3.986 -0.1705  2.5939  1.4863
 5664TIP3   OH238482   4.227   4.426  14.056 -0.0334  0.1623  0.5121
 5664TIP3    H138483   4.269   4.459  13.977 -0.3062 -0.1076  0.2496
 5664TIP3    H238484   4.274   4.345  14.076 -0.2200  0.0266  0.4018
 5665TIP3   OH238485   1.527   2.753  13.587  0.0143  0.3885  0.7623
 5665TIP3    H138486   1.605   2.797  13.554 -0.7320  0.4879 -0.9504
 5665TIP3    H238487   1.502   2.802  13.665  2.1522 -0.1763  1.8179
 5666TIP3   OH238488   3.024   6.187  13.649  0.1220  0.4775  0.0497
 5666TIP3    H138489   3.115   6.158  13.637 -0.2078 -1.0593  1.2112
 5666TIP3    H238490   3.025   6.232  13.733 -0.0893  0.9218 -0.1833
 5667TIP3   OH238491   3.616   3.998  12.363 -0.3138 -0.2766  0.1490
 5667TIP3    H138492   3.585   3.941  12.433 -1.6869  0.1760 -0.0650
 5667TIP3    H238493   3.589   4.086  12.389  0.0377  0.0243 -0.4688
 5668TIP3   OH238494   1.686   0.767   5.593 -0.1439  0.4557 -0.8274
 5668TIP3    H138495   1.706   0.835   5.529  1.9609  2.2294  1.6249
 5668TIP3    H238496   1.768   0.751   5.639 -2.0145  0.7207  2.7982
 5669TIP3   OH238497   0.380   2.119  15.744 -0.2439  0.1975  0.1763
 5669TIP3    H138498   0.361   2.191  15.684 -0.2937  0.1912  0.1855
 5669TIP3    H238499   0.476   2.118  15.751 -0.1810 -0.4134 -0.6615
 5670TIP3   OH238500   1.728   1.105  17.067  0.3560 -0.4917  0.7269
 5670TIP3    H138501   1.789   1.150  17.010  2.3216 -2.7039  1.0024
 5670TIP3    H238502   1.651   1.088  17.012  0.8050  0.5035 -0.2169
 5671TIP3   OH238503   3.938   4.735   4.281  0.1487 -0.0540 -1.1281
 5671TIP3    H138504   3.953   4.641   4.286 -0.6947 -0.2090 -1.3812
 5671TIP3    H238505   3.845   4.746   4.302 -0.1357  0.5641 -2.6009
 5672TIP3   OH238506   6.068   1.013   0.540 -0.2614  0.4797 -0.0790
 5672TIP3    H138507   6.007   0.982   0.473 -0.1801  1.7793 -0.7798
 5672TIP3    H238508   6.038   1.102   0.559  0.9428  0.8426  0.1356
 5673TIP3   OH238509   1.183   6.703  12.412 -0.6907 -0.3649 -0.1339
 5673TIP3    H138510   1.159   6.751  12.333  2.1285 -2.4974 -2.3783
 5673TIP3    H238511   1.237   6.765  12.462 -1.9594  0.7677 -0.1366
 5674TIP3   OH238512   1.254   5.139   1.479 -0.5823 -0.2115 -0.3087
 5674TIP3    H138513   1.289   5.056   1.446  0.3482  0.1378 -0.2074
 5674TIP3    H238514   1.237   5.122   1.572 -1.0746 -0.5108 -0.4554
 5675TIP3   OH238515   0.727   4.428  17.052 -0.6869 -0.1955  0.0937
 5675TIP3    H138516   0.651   4.484  17.069  0.5641  0.7072  2.9004
 5675TIP3    H238517   0.788   4.448  17.122  1.2725 -2.5207 -0.8845
 5676TIP3   OH238518   0.125   2.521  12.864  0.0206  0.4348 -0.1858
 5676TIP3    H138519   0.168   2.436  12.875  0.1388  0.6902  1.3991
 5676TIP3    H238520   0.066   2.528  12.939 -0.0432  1.7165 -0.3530
 5677TIP3   OH238521   2.884   5.029   2.446  0.0138 -0.3934 -0.5199
 5677TIP3    H138522   2.806   5.003   2.495 -1.0675  0.6406 -1.6542
 5677TIP3    H238523   2.955   4.978   2.485 -0.8571  0.2024  1.9389
 5678TIP3   OH238524   0.650   3.405   6.662  0.1534  0.2718 -0.1835
 5678TIP3    H138525   0.719   3.340   6.651  0.1184  0.4399 -1.4432
 5678TIP3    H238526   0.697   3.488   6.673  0.1707  0.2141  0.1930
 5679TIP3   OH238527   4.663   4.184   4.032 -0.0476  0.1798  0.3291
 5679TIP3    H138528   4.639   4.132   4.109  2.1749  0.4838  1.2600
 5679TIP3    H238529   4.709   4.260   4.068  0.9890  0.3380 -1.3144
 5680TIP3   OH238530   6.477   0.844   5.092 -0.0240 -0.0808  0.6317
 5680TIP3    H138531   6.463   0.800   5.008 -0.4014 -0.1926  0.7519
 5680TIP3    H238532   6.395   0.890   5.110  0.4638  0.8884  0.3874
 5681TIP3   OH238533   0.838   1.790   5.213 -0.4592  0.1860 -0.9533
 5681TIP3    H138534   0.824   1.704   5.173 -0.2195 -0.7013  0.8026
 5681TIP3    H238535   0.770   1.795   5.281 -0.2775  1.2579 -0.8549
 5682TIP3   OH238536   1.678   5.173   1.070  0.4083  0.3568 -0.0122
 5682TIP3    H138537   1.707   5.106   1.007 -1.7627 -0.7752  0.1504
 5682TIP3    H238538   1.726   5.252   1.045 -1.3929  0.3190 -4.0317
 5683TIP3   OH238539   0.514   5.969  13.775 -0.3665  0.2618  0.1836
 5683TIP3    H138540   0.428   5.939  13.802 -0.2009  0.2569  0.7046
 5683TIP3    H238541   0.497   6.046  13.720 -0.9139 -1.7529 -2.6088
 5684TIP3   OH238542   2.405   2.579  12.134 -0.5690  0.2718  0.4139
 5684TIP3    H138543   2.427   2.524  12.209 -0.8250  0.2233  0.4515
 5684TIP3    H238544   2.406   2.519  12.059 -0.3517  0.3131  0.3809
 5685TIP3   OH238545   6.075   2.013   0.382  0.0368 -0.0673 -0.0840
 5685TIP3    H138546   6.101   2.103   0.366 -1.3092  0.1816 -0.9756
 5685TIP3    H238547   5.993   2.020   0.431 -1.6412 -0.7341 -2.6861
 5686TIP3   OH238548   6.599   6.145   1.208  0.3059  0.7809  0.2629
 5686TIP3    H138549   6.606   6.049   1.200  1.3705  0.7731  1.1317
 5686TIP3    H238550   6.583   6.175   1.119 -1.3251 -0.3008  0.1660
 5687TIP3   OH238551   0.443   6.221   3.914 -0.2821 -0.3645 -0.2580
 5687TIP3    H138552   0.508   6.253   3.851  0.9156 -3.0553 -0.4565
 5687TIP3    H238553   0.382   6.169   3.862 -0.9763 -0.2152  0.3906
 5688TIP3   OH238554   2.537   5.656  15.193 -0.0676 -0.0519  0.3646
 5688TIP3    H138555   2.498   5.741  15.217 -0.5350  0.0929 -0.8508
 5688TIP3    H238556   2.468   5.612  15.143  0.4286 -0.8544  0.3850
 5689TIP3   OH238557   6.194   6.037  17.257  0.0979  0.0784  0.5188
 5689TIP3    H138558   6.168   5.946  17.245  1.5432 -0.4872  1.5466
 5689TIP3    H238559   6.287   6.038  17.236 -0.0531  1.4596 -0.1382
 5690TIP3   OH238560   3.343   3.955  16.878 -0.3735 -0.6605  0.4838
 5690TIP3    H138561   3.313   4.039  16.912  0.6638  0.2199 -0.7080
 5690TIP3    H238562   3.384   3.912  16.953  0.9392  0.8018  0.6288
 5691TIP3   OH238563   2.101   1.733  16.972  0.1850 -0.3327 -0.0675
 5691TIP3    H138564   2.126   1.823  16.989 -1.4197 -0.4879  3.7060
 5691TIP3    H238565   2.014   1.739  16.933  0.1498 -0.2374  0.0266
 5692TIP3   OH238566   3.079   1.995  14.518 -0.1733 -0.3850  0.6050
 5692TIP3    H138567   3.048   1.933  14.452 -0.7143 -1.3557  1.7721
 5692TIP3    H238568   3.168   2.017  14.490 -0.5859 -0.3648 -0.7468
 5693TIP3   OH238569   0.045   5.300   0.306 -0.1774  0.1023 -0.5168
 5693TIP3    H138570   0.128   5.273   0.343 -0.2048  3.1869  1.9800
 5693TIP3    H238571   0.067   5.369   0.244 -0.7990  0.1643 -0.6767
 5694TIP3   OH238572   2.666   5.757   2.719 -0.2501 -0.2400 -0.3168
 5694TIP3    H138573   2.573   5.764   2.741  0.0587  1.1196  0.6204
 5694TIP3    H238574   2.692   5.846   2.695  1.5992  0.1340  2.7330
 5695TIP3   OH238575   2.246   4.079   5.469 -0.0924  0.3709  0.1373
 5695TIP3    H138576   2.170   4.110   5.419  0.8010 -1.3709 -2.4063
 5695TIP3    H238577   2.230   3.985   5.479  0.7370  0.3583  1.4217
 5696TIP3   OH238578   4.884   1.783   1.951 -0.2934 -0.4097  0.3516
 5696TIP3    H138579   4.873   1.750   1.862 -0.4923  1.0144 -0.1601
 5696TIP3    H238580   4.805   1.834   1.968  0.6949  1.0890  0.5478
 5697TIP3   OH238581   1.453   2.712   5.495 -0.3030 -0.4384  0.2889
 5697TIP3    H138582   1.511   2.738   5.424  1.1055  0.4235  1.7258
 5697TIP3    H238583   1.444   2.617   5.484  0.3698 -0.3977 -0.6999
 5698TIP3   OH238584   3.310   4.793  11.448  0.3949  0.4820  0.8280
 5698TIP3    H138585   3.299   4.824  11.358  2.9056  0.0575  0.3170
 5698TIP3    H238586   3.224   4.761  11.474 -0.0712 -0.5775 -1.8912
 5699TIP3   OH238587   3.736   3.059  12.711 -0.3427  0.2503 -0.3255
 5699TIP3    H138588   3.649   3.027  12.734  0.4273 -1.3619  0.3911
 5699TIP3    H238589   3.721   3.150  12.685 -2.2121  0.0537 -0.0484
 5700TIP3   OH238590   6.477   2.622   2.999  1.1104  0.1505 -0.4698
 5700TIP3    H138591   6.452   2.549   3.056  0.3623  0.3117 -0.5970
 5700TIP3    H238592   6.573   2.626   3.007  1.1072 -0.4985 -0.0422
 5701TIP3   OH238593   4.503   2.331   4.359  0.3066  0.2525  0.0169
 5701TIP3    H138594   4.531   2.378   4.281 -1.1784  1.0429 -0.0423
 5701TIP3    H238595   4.467   2.249   4.325 -1.3624  1.0680 -0.2320
 5702TIP3   OH238596   4.419   6.104  15.666 -0.1507  0.1594 -0.2804
 5702TIP3    H138597   4.373   6.100  15.582 -0.5695  0.9959 -0.1050
 5702TIP3    H238598   4.374   6.040  15.721 -1.5194  1.3926  0.0745
 5703TIP3   OH238599   3.193   6.285   3.067  0.1748 -0.0115  0.2536
 5703TIP3    H138600   3.197   6.349   2.995  0.7005 -0.9973 -0.6182
 5703TIP3    H238601   3.225   6.204   3.027 -3.4096 -1.6061  0.4797
 5704TIP3   OH238602   0.609   2.656  16.797 -0.3669  0.4432 -0.6697
 5704TIP3    H138603   0.663   2.726  16.833 -2.5900  0.8401  2.0580
 5704TIP3    H238604   0.581   2.606  16.874  1.4870 -3.7224 -2.5563
 5705TIP3   OH238605   3.386   0.435  13.943 -0.2575 -0.5411  0.1517
 5705TIP3    H138606   3.438   0.495  13.890  0.7913 -1.4033  0.1668
 5705TIP3    H238607   3.296   0.448  13.914 -0.4809  3.0633  2.1152
 5706TIP3   OH238608   0.023   6.014   1.486 -0.0469  0.2601  0.3417
 5706TIP3    H138609   0.075   5.935   1.475 -0.1591  0.0843  1.0538
 5706TIP3    H238610  -0.065   5.983   1.507 -0.4117  0.5609 -0.7276
 5707TIP3   OH238611   4.165   4.107   4.076 -0.3277  0.2932  0.4112
 5707TIP3    H138612   4.096   4.103   4.142 -1.1916  2.0169 -0.3683
 5707TIP3    H238613   4.120   4.101   3.992  0.7593 -1.7800 -0.0746
 5708TIP3   OH238614   2.916   3.787   2.493 -0.1847  0.2505  0.3338
 5708TIP3    H138615   2.911   3.880   2.516 -1.8906 -0.1025  1.4491
 5708TIP3    H238616   2.853   3.744   2.550  0.1139 -1.5272 -0.6211
 5709TIP3   OH238617   3.911   2.147   6.176 -0.2079  0.1274 -0.0911
 5709TIP3    H138618   3.974   2.175   6.242  1.0738 -0.9336 -0.8381
 5709TIP3    H238619   3.903   2.221   6.116  1.1304 -0.1022 -0.5681
 5710TIP3   OH238620   3.876   0.666   0.638  0.0427  0.6239  0.4143
 5710TIP3    H138621   3.931   0.729   0.685  0.6373 -0.4692  1.1978
 5710TIP3    H238622   3.868   0.702   0.550  2.7266  0.3435  0.0328
 5711TIP3   OH238623   4.438   1.630   0.081  0.3528 -0.0527  0.2370
 5711TIP3    H138624   4.479   1.596   0.002  1.2480  0.3896  0.5122
 5711TIP3    H238625   4.390   1.708   0.051  0.6896  0.1135  0.1332
 5712TIP3   OH238626   0.308   0.170  16.201  0.4499  0.7285  0.2785
 5712TIP3    H138627   0.296   0.174  16.296  0.4944  2.1986  0.2374
 5712TIP3    H238628   0.403   0.166  16.189  0.4386  0.4071  0.3029
 5713TIP3   OH238629   4.410   3.929   1.379  0.0549 -0.7408  1.3287
 5713TIP3    H138630   4.340   3.865   1.394 -0.3953 -0.4392  0.5169
 5713TIP3    H238631   4.415   3.939   1.284  0.6243 -0.1236  1.4157
 5714TIP3   OH238632   4.685   4.924  14.488 -0.5707 -0.6463 -0.3336
 5714TIP3    H138633   4.635   4.967  14.419  0.4212  0.1170 -0.5908
 5714TIP3    H238634   4.740   4.994  14.524  0.9602 -1.6616 -0.6629
 5715TIP3   OH238635   5.983   4.818  14.326 -0.0168 -0.0083  0.1873
 5715TIP3    H138636   6.020   4.799  14.240  0.3326  1.2662  0.0432
 5715TIP3    H238637   6.056   4.807  14.386 -1.1208 -4.6338  0.8474
 5716TIP3   OH238638   4.684   4.180   0.910 -0.1406  0.0037 -0.0351
 5716TIP3    H138639   4.710   4.097   0.949 -2.4511 -0.1421  1.2597
 5716TIP3    H238640   4.684   4.242   0.982 -2.2511  0.2322 -0.1966
 5717TIP3   OH238641   4.889   1.911  13.885 -0.6870 -0.2967 -0.4521
 5717TIP3    H138642   4.863   1.977  13.821 -0.2741 -1.4267 -1.8123
 5717TIP3    H238643   4.933   1.843  13.833  0.5309 -0.7728  1.1559
 5718TIP3   OH238644   0.781   5.313  16.156 -0.2416 -0.0387 -0.0725
 5718TIP3    H138645   0.814   5.223  16.156 -1.4559 -0.4959 -0.9822
 5718TIP3    H238646   0.703   5.310  16.213 -0.2202  0.4566 -0.0125
 5719TIP3   OH238647   3.162   0.468   0.540  0.5310 -0.1881 -0.3180
 5719TIP3    H138648   3.190   0.436   0.455 -0.3483 -1.2358 -0.2332
 5719TIP3    H238649   3.120   0.552   0.522  1.7296  0.3416 -0.7090
 5720TIP3   OH238650   1.563   5.079   2.026  0.3809 -0.2145  0.2636
 5720TIP3    H138651   1.601   5.106   1.942  0.2101  2.1488  0.9174
 5720TIP3    H238652   1.638   5.047   2.077  1.2734  2.7965  0.9135
 5721TIP3   OH238653   1.347   6.069   3.856  0.6063 -0.2047  0.0438
 5721TIP3    H138654   1.325   6.025   3.774 -0.5533  0.1206  0.1640
 5721TIP3    H238655   1.377   6.156   3.829  1.1962 -0.4496 -0.0917
 5722TIP3   OH238656   6.722   4.186   2.963 -0.1333  0.2705 -0.6165
 5722TIP3    H138657   6.655   4.255   2.963  1.0585  1.4613  1.0611
 5722TIP3    H238658   6.800   4.230   2.929  0.2579 -0.6808 -0.9656
 5723TIP3   OH238659   1.318   5.759  16.947  0.0247 -0.2815  0.3045
 5723TIP3    H138660   1.309   5.739  16.854  0.1504 -1.2021  0.4780
 5723TIP3    H238661   1.402   5.804  16.954 -0.2300  0.2496 -0.0983
 5724TIP3   OH238662   6.081   2.946   2.317 -0.0461  0.6467 -0.2006
 5724TIP3    H138663   6.069   2.987   2.402 -0.3853  0.1688 -0.0129
 5724TIP3    H238664   6.174   2.955   2.298 -0.0452  1.1253  0.0294
 5725TIP3   OH238665   5.827   5.652  12.292  0.4809  0.3849  0.0658
 5725TIP3    H138666   5.766   5.722  12.315 -1.0182 -1.2554  1.2217
 5725TIP3    H238667   5.808   5.632  12.201 -1.9827 -1.2956  0.8991
 5726TIP3   OH238668   2.085   3.861  15.747  0.4336  0.9855  0.0767
 5726TIP3    H138669   2.058   3.824  15.830  1.3279  1.7710  0.7355
 5726TIP3    H238670   2.109   3.786  15.693  0.1618  0.4937  0.6393
 5727TIP3   OH238671   1.443   5.831   2.292 -0.0059 -0.2560  0.1814
 5727TIP3    H138672   1.403   5.863   2.372 -0.3980  0.6327 -0.3655
 5727TIP3    H238673   1.400   5.880   2.222  2.4515  1.1552 -0.3962
 5728TIP3   OH238674   6.574   5.011   1.883 -0.1414  0.2719  0.3162
 5728TIP3    H138675   6.638   5.022   1.953  1.1203  1.2744 -0.9723
 5728TIP3    H238676   6.575   4.917   1.865  1.9013  0.4259 -0.5285
 5729TIP3   OH238677   2.823   0.187  10.948  0.4106 -0.3533 -0.4135
 5729TIP3    H138678   2.776   0.242  10.886 -2.4286 -1.6671  0.4782
 5729TIP3    H238679   2.881   0.247  10.995 -2.0997  1.7943  0.0589
 5730TIP3   OH238680   2.234   4.132   4.916  0.4336  0.6049 -0.4355
 5730TIP3    H138681   2.240   4.142   5.011 -0.0493  0.0927 -0.3482
 5730TIP3    H238682   2.325   4.116   4.888  0.2739 -1.7327  0.2403
 5731TIP3   OH238683   3.831   5.708  11.241 -0.4267 -0.1550 -0.1662
 5731TIP3    H138684   3.859   5.789  11.198  0.7260 -1.3246 -1.6886
 5731TIP3    H238685   3.737   5.717  11.250 -0.4151  1.0161 -1.0510
 5732TIP3   OH238686   2.979   3.603  15.473  0.0941 -0.2652 -0.4134
 5732TIP3    H138687   3.033   3.662  15.525  0.2782  0.2620 -1.1875
 5732TIP3    H238688   2.894   3.647  15.466 -0.5986 -1.3232  1.2171
 5733TIP3   OH238689   0.885   2.869   2.306  0.3615  0.2061 -0.1047
 5733TIP3    H138690   0.800   2.883   2.264  0.3203  0.2250 -0.0158
 5733TIP3    H238691   0.949   2.883   2.237  0.2962  0.2846 -0.1485
 5734TIP3   OH238692   5.926   0.936  14.910 -0.3726 -0.0656  0.8031
 5734TIP3    H138693   5.994   0.959  14.847 -1.6343  0.9019 -0.2444
 5734TIP3    H238694   5.905   0.844  14.892 -1.3957  0.4797 -0.8529
 5735TIP3   OH238695   0.952   0.140   4.275 -0.7089 -0.0374  0.2194
 5735TIP3    H138696   0.936   0.191   4.195 -1.2515  1.2964  1.1573
 5735TIP3    H238697   1.013   0.194   4.325 -0.6153 -0.7197  0.8389
 5736TIP3   OH238698   2.767   3.113  15.619 -0.7361 -0.1903 -0.3257
 5736TIP3    H138699   2.716   3.070  15.551 -0.8346 -1.2277  0.3979
 5736TIP3    H238700   2.774   3.204  15.590 -1.0533 -0.5509 -1.5534
 5737TIP3   OH238701   4.242   0.995  13.406 -0.1332 -0.1266  0.0767
 5737TIP3    H138702   4.332   0.966  13.423 -0.2217 -1.7618 -2.0588
 5737TIP3    H238703   4.188   0.934  13.456 -0.1385 -0.8053 -0.7430
 5738TIP3   OH238704   4.531   5.818  15.965  0.0700  0.1479 -0.0763
 5738TIP3    H138705   4.446   5.825  15.923 -0.1812  1.4234  0.6172
 5738TIP3    H238706   4.564   5.908  15.969  0.5711 -0.0800  1.4468
 5739TIP3   OH238707   4.005   5.221  12.598 -0.7638 -0.3919 -0.3558
 5739TIP3    H138708   3.981   5.301  12.551  0.5749  0.9068  1.1158
 5739TIP3    H238709   4.057   5.171  12.535 -2.8697 -0.8428 -1.8009
 5740TIP3   OH238710   0.466   2.602   5.528  0.3259 -0.0514 -0.6911
 5740TIP3    H138711   0.435   2.531   5.584  0.0795  0.4619 -0.1690
 5740TIP3    H238712   0.424   2.586   5.444  0.6353 -0.7820 -0.7103
 5741TIP3   OH238713   6.267   3.988  17.265  0.5498  0.2253  0.5529
 5741TIP3    H138714   6.251   4.046  17.339  0.6948  0.1416  0.6493
 5741TIP3    H238715   6.180   3.959  17.238  0.4866  0.3820  0.5912
 5742TIP3   OH238716   4.442   4.901  12.456  0.0607  0.3682  0.0956
 5742TIP3    H138717   4.474   4.975  12.403 -0.0876 -0.2115 -0.8165
 5742TIP3    H238718   4.519   4.848  12.472  0.1085  0.5531  0.4803
 5743TIP3   OH238719   2.727   4.918   0.682  0.1632  0.2556 -0.4287
 5743TIP3    H138720   2.696   4.869   0.758  0.3674 -0.1101 -0.5821
 5743TIP3    H238721   2.747   5.005   0.717  0.2713  0.0851 -0.0626
 5744TIP3   OH238722   2.938   4.513   1.879  0.3507  0.3626 -0.2491
 5744TIP3    H138723   2.979   4.600   1.881 -0.7635  0.8948 -0.0693
 5744TIP3    H238724   2.915   4.500   1.787 -2.1120  1.5328  0.1616
 5745TIP3   OH238725   0.648   5.276  15.630  0.5606 -0.1686  0.3810
 5745TIP3    H138726   0.743   5.277  15.645  0.4016  0.4189  1.3954
 5745TIP3    H238727   0.614   5.341  15.691 -0.7671 -2.1345  1.7771
 5746TIP3   OH238728   1.892   2.528   0.571 -0.0043  0.5108  0.1496
 5746TIP3    H138729   1.981   2.527   0.537 -0.4686 -0.7493 -1.0829
 5746TIP3    H238730   1.898   2.488   0.657  0.8359  1.7215  0.6600
 5747TIP3   OH238731   2.327   6.724  13.308  0.2487 -0.0323 -0.2355
 5747TIP3    H138732   2.275   6.725  13.227 -0.5402 -1.5623  0.2341
 5747TIP3    H238733   2.393   6.657  13.293 -0.6597 -1.2020  0.8294
 5748TIP3   OH238734   1.293   0.124  17.153 -0.1116  0.0280 -0.4888
 5748TIP3    H138735   1.226   0.151  17.216  0.2754  1.8451 -0.8521
 5748TIP3    H238736   1.245   0.073  17.087 -0.9305  0.3212 -0.1254
 5749TIP3   OH238737   1.880   6.529   0.455 -0.2777 -0.5015  0.0411
 5749TIP3    H138738   1.810   6.506   0.517 -0.5349 -0.3598 -0.1953
 5749TIP3    H238739   1.841   6.596   0.399  0.3259  0.1980  0.4528
 5750TIP3   OH238740   1.121   0.440   2.921  0.3659  0.7113 -0.1048
 5750TIP3    H138741   1.034   0.408   2.942  0.0429  0.6110 -1.5186
 5750TIP3    H238742   1.149   0.489   2.998 -0.7566  0.3739  0.5179
 5751TIP3   OH238743   5.808   5.559   3.093 -0.2607 -0.2339  0.6603
 5751TIP3    H138744   5.897   5.549   3.061 -0.7870 -0.2751 -0.8023
 5751TIP3    H238745   5.795   5.484   3.152  1.6283  1.3470  3.1955
 5752TIP3   OH238746   6.160   3.095   1.471 -0.0548 -0.1259 -0.3284
 5752TIP3    H138747   6.117   3.054   1.545 -0.3185 -1.1706 -1.0503
 5752TIP3    H238748   6.089   3.128   1.417  0.1711  2.4381  0.8605
 5753TIP3   OH238749   6.392   2.197   4.410 -0.0422  0.0875 -0.2429
 5753TIP3    H138750   6.487   2.187   4.405  0.0630  0.6245  0.5269
 5753TIP3    H238751   6.379   2.257   4.484 -0.9366  0.6532 -0.8545
 5754TIP3   OH238752   2.340   0.699  12.232  0.3108 -0.2562 -0.4655
 5754TIP3    H138753   2.310   0.789  12.218 -0.2564 -0.6336 -1.7061
 5754TIP3    H238754   2.261   0.646  12.226  0.6847 -0.8683  0.0257
 5755TIP3   OH238755   6.259   3.235  14.436 -0.2947  0.0963  0.0946
 5755TIP3    H138756   6.189   3.281  14.390  0.0001 -0.3274 -0.7763
 5755TIP3    H238757   6.245   3.257  14.528 -1.1202  0.6241 -0.1524
 5756TIP3   OH238758   0.081   4.199  14.579  0.7814  0.5446  0.1570
 5756TIP3    H138759   0.124   4.143  14.644 -2.0315  0.3202  1.9116
 5756TIP3    H238760   0.024   4.255  14.631 -3.1715 -1.0845 -2.2727
 5757TIP3   OH238761   1.381   6.797  13.785 -0.3384  0.7728  0.0501
 5757TIP3    H138762   1.448   6.731  13.766  0.2158  1.1399  0.7121
 5757TIP3    H238763   1.393   6.863  13.716 -2.6902 -1.1283 -2.2519
 5758TIP3   OH238764   2.415   1.521   0.440 -0.3104  0.3843 -0.3891
 5758TIP3    H138765   2.329   1.518   0.397 -0.6392 -3.1077  0.3490
 5758TIP3    H238766   2.406   1.588   0.508 -2.3318  0.3343 -0.5766
 5759TIP3   OH238767   5.646   2.115   1.053  0.4301  0.1058  0.4039
 5759TIP3    H138768   5.686   2.182   1.109  0.2748  0.7513 -0.2532
 5759TIP3    H238769   5.627   2.042   1.113  2.8189 -0.3238  0.6957
 5760TIP3   OH238770   5.587   6.544  10.732 -0.2494  0.4182  0.0748
 5760TIP3    H138771   5.580   6.476  10.665 -0.0823  0.3195  0.1583
 5760TIP3    H238772   5.663   6.595  10.707 -0.8017  1.0176 -0.3950
 5761TIP3   OH238773   0.114   6.132   1.769 -0.2087 -0.3216  0.1542
 5761TIP3    H138774   0.053   6.102   1.836 -2.6197 -0.2600 -1.9008
 5761TIP3    H238775   0.083   6.091   1.688  0.9365  1.7491 -1.4029
 5762TIP3   OH238776   0.160   0.536   2.424  0.2318 -0.2304  0.1078
 5762TIP3    H138777   0.072   0.499   2.429 -0.1209  0.2750 -2.2585
 5762TIP3    H238778   0.147   0.630   2.411  1.1321 -0.0978  0.0991
 5763TIP3   OH238779   3.233   1.679   3.251 -0.7131  0.1138 -0.4660
 5763TIP3    H138780   3.268   1.659   3.165  0.6514  3.0124 -0.6599
 5763TIP3    H238781   3.140   1.658   3.246 -0.5489 -0.1686 -2.4811
 5764TIP3   OH238782   3.106   6.685   3.023 -0.1865 -0.0163 -0.0622
 5764TIP3    H138783   3.176   6.650   3.079  0.8062 -0.0152 -1.2651
 5764TIP3    H238784   3.144   6.764   2.984 -0.9987  0.1886 -0.4403
 5765TIP3   OH238785   0.099   6.034  12.917 -0.7440 -0.3058  0.4263
 5765TIP3    H138786   0.143   5.982  12.984 -0.5776 -0.6677  0.0404
 5765TIP3    H238787   0.009   6.001  12.916 -0.8649  0.0128  0.7875
 5766TIP3   OH238788   4.902   6.048   1.482  0.3241 -0.5953  0.2165
 5766TIP3    H138789   4.947   6.069   1.564  0.3080  0.3294  0.0039
 5766TIP3    H238790   4.926   6.120   1.423 -2.4373  0.5843  0.4794
 5767TIP3   OH238791   3.905   0.558  14.208 -0.4926  0.3298  0.0650
 5767TIP3    H138792   3.829   0.566  14.265 -0.4210 -1.1535  0.3836
 5767TIP3    H238793   3.977   0.534  14.266  0.2185  1.6141 -0.2467
 5768TIP3   OH238794   6.595   6.531  16.657 -0.6217  0.1721 -0.3370
 5768TIP3    H138795   6.525   6.544  16.721  1.2832 -1.2781  2.1384
 5768TIP3    H238796   6.672   6.573  16.696  0.2532  0.5713 -2.3812
 5769TIP3   OH238797   6.374   4.575  13.220  0.4520  0.0542  0.1659
 5769TIP3    H138798   6.308   4.507  13.234 -0.4052  0.5560 -1.2671
 5769TIP3    H238799   6.328   4.657  13.233  0.8240  0.4071 -0.6956
 5770TIP3   OH238800   0.547   4.559  13.872 -0.0497  0.7114 -0.0332
 5770TIP3    H138801   0.504   4.565  13.787 -0.8912 -0.0359  0.3340
 5770TIP3    H238802   0.516   4.477  13.909  1.1404  0.5063  0.5511
 5771TIP3   OH238803   2.977   0.621  15.737  0.0012 -0.3226 -0.0833
 5771TIP3    H138804   3.019   0.582  15.661  0.5310  0.4171 -0.1749
 5771TIP3    H238805   3.025   0.585  15.812 -0.3916 -0.8941 -0.1013
 5772TIP3   OH238806   6.604   1.009   4.368 -0.0755  0.0013  0.6997
 5772TIP3    H138807   6.633   1.044   4.452 -0.2652  1.5248  0.1485
 5772TIP3    H238808   6.538   0.944   4.391  0.9889 -0.7086  1.7898
 5773TIP3   OH238809   5.642   1.005  12.801  0.2578 -0.3200 -0.3211
 5773TIP3    H138810   5.551   0.982  12.784  0.3985 -0.6186 -0.6879
 5773TIP3    H238811   5.659   0.975  12.890 -0.0594 -0.0803 -0.1787
 5774TIP3   OH238812   2.618   4.127  14.297  0.1925  1.0170  0.1431
 5774TIP3    H138813   2.567   4.208  14.289 -1.6003 -0.1133 -0.2359
 5774TIP3    H238814   2.622   4.111  14.391 -0.5455  0.8752  0.1513
 5775TIP3   OH238815   4.459   0.393  13.576 -0.0462 -0.4396  0.6723
 5775TIP3    H138816   4.512   0.446  13.517  0.5891 -1.9681 -0.1557
 5775TIP3    H238817   4.515   0.319  13.599 -1.1650 -1.1229  1.2471
 5776TIP3   OH238818   1.415   1.166  13.605  0.6259  0.0467  0.7584
 5776TIP3    H138819   1.472   1.137  13.534  1.1067 -1.1103  1.6039
 5776TIP3    H238820   1.411   1.261  13.596  0.3876 -0.1068 -1.0407
 5777TIP3   OH238821   0.764   5.454  12.537  0.1985  0.4017 -0.6791
 5777TIP3    H138822   0.781   5.360  12.542 -0.3650  0.2981 -0.6804
 5777TIP3    H238823   0.763   5.473  12.443  1.9918  0.7269 -0.6593
 5778TIP3   OH238824   4.713   5.660  13.966 -0.2083  0.3601  0.4716
 5778TIP3    H138825   4.760   5.676  13.884  1.9170 -0.0217  1.5974
 5778TIP3    H238826   4.635   5.716  13.959  0.6805  1.4517 -1.1800
 5779TIP3   OH238827   1.687   6.057   2.032 -0.0797  0.0777  0.4318
 5779TIP3    H138828   1.668   6.078   1.940  2.6165  2.2675  0.3123
 5779TIP3    H238829   1.678   5.962   2.036  0.9016 -0.1932 -2.4033
 5780TIP3   OH238830   5.171   4.008  11.828  0.0699 -0.3213  0.1203
 5780TIP3    H138831   5.251   3.958  11.813  0.5074  0.3363  0.2262
 5780TIP3    H238832   5.192   4.066  11.901  0.0995  1.1114 -0.9784
 5781TIP3   OH238833   5.716   5.934  16.089  0.4239  0.2185 -0.1167
 5781TIP3    H138834   5.710   5.875  16.164 -0.5565  0.6411  0.1490
 5781TIP3    H238835   5.685   5.883  16.015  0.1182  0.2153  0.0107
 5782TIP3   OH238836   1.919   2.597   1.669 -0.0575  0.9873 -0.0116
 5782TIP3    H138837   1.950   2.688   1.673 -1.0609  1.3259  0.1437
 5782TIP3    H238838   1.829   2.603   1.638 -0.6112  0.1561  1.3607
 5783TIP3   OH238839   5.705   1.883  11.893 -0.0455  0.0435 -0.1247
 5783TIP3    H138840   5.621   1.882  11.847  0.2591  1.5975 -0.7415
 5783TIP3    H238841   5.746   1.800  11.869 -1.7756 -1.1402  0.9063
 5784TIP3   OH238842   1.119   3.787  13.361  0.1908 -0.2576 -0.2523
 5784TIP3    H138843   1.168   3.859  13.402 -1.5467  1.4353 -1.0811
 5784TIP3    H238844   1.084   3.737  13.434  0.6010  0.2978  0.3359
 5785TIP3   OH238845   1.249   3.483   0.764  0.3742 -0.4303  0.2818
 5785TIP3    H138846   1.337   3.507   0.794  0.4068 -1.2753  0.8706
 5785TIP3    H238847   1.230   3.546   0.695  0.7535  0.8564  1.3123
 5786TIP3   OH238848   3.345   6.667  17.196  0.3219  0.0908  0.0214
 5786TIP3    H138849   3.304   6.594  17.151 -1.6854  1.3825 -0.3061
 5786TIP3    H238850   3.274   6.709  17.245  1.6859  1.0673  1.2308
 5787TIP3   OH238851   6.667   3.655  16.158 -0.0906  0.2936 -0.0521
 5787TIP3    H138852   6.755   3.688  16.177 -0.5224  1.4643 -0.0655
 5787TIP3    H238853   6.630   3.634  16.243 -0.7273  2.2054  0.1578
 5788TIP3   OH238854   3.557   3.580  16.892 -0.3806  0.0949 -0.1628
 5788TIP3    H138855   3.496   3.506  16.889  0.4316 -0.6506  1.3491
 5788TIP3    H238856   3.637   3.547  16.852  0.3229 -0.1926  1.4413
 5789TIP3   OH238857   6.561   0.358   5.425 -0.5215  0.7012  0.0113
 5789TIP3    H138858   6.622   0.431   5.424  0.2820  0.0403  0.3967
 5789TIP3    H238859   6.606   0.287   5.380 -0.1113 -0.4809  2.1906
 5790TIP3   OH238860   1.819   6.568   1.397 -0.1590 -0.3973 -0.6286
 5790TIP3    H138861   1.873   6.564   1.318  1.1779  0.2179  0.2519
 5790TIP3    H238862   1.785   6.479   1.406 -0.9532 -0.2965 -2.3193
 5791TIP3   OH238863   0.607   2.591   1.140  0.3671 -0.0723 -0.0020
 5791TIP3    H138864   0.582   2.662   1.199 -0.6375 -0.2331 -0.2144
 5791TIP3    H238865   0.694   2.565   1.169 -0.2981 -0.4556  1.7158
 5792TIP3   OH238866   2.498   2.673  12.604  0.2820  0.1373  0.1968
 5792TIP3    H138867   2.487   2.627  12.688 -1.7918 -0.0519 -0.1574
 5792TIP3    H238868   2.423   2.732  12.599  1.1147  1.1329 -0.9331
 5793TIP3   OH238869   4.254   4.373  14.611  0.2836  0.2053 -0.2770
 5793TIP3    H138870   4.316   4.357  14.540  0.1606 -0.1048 -0.3155
 5793TIP3    H238871   4.274   4.462  14.640  1.0264 -0.0410 -0.0157
 5794TIP3   OH238872   5.943   1.445  12.966  0.8079  0.1798  0.1810
 5794TIP3    H138873   5.880   1.508  12.999  0.5152  1.3284 -2.4204
 5794TIP3    H238874   5.909   1.420  12.880  2.9062 -0.5778 -0.4700
 5795TIP3   OH238875   1.187   1.895  15.174 -0.1606 -0.5013  0.3573
 5795TIP3    H138876   1.107   1.933  15.210  0.4654 -0.0135  1.2199
 5795TIP3    H238877   1.170   1.889  15.080 -0.3166  1.7836  0.2192
 5796TIP3   OH238878   5.859   2.142  11.104  0.4945  0.0477  0.3817
 5796TIP3    H138879   5.863   2.195  11.183  0.4440 -0.3838  0.6762
 5796TIP3    H238880   5.766   2.134  11.084  0.5765  1.6448 -0.7370
 5797TIP3   OH238881   3.241   6.756  12.076  0.9094 -0.1874  0.8653
 5797TIP3    H138882   3.284   6.752  11.990 -0.9655 -1.2798 -0.0345
 5797TIP3    H238883   3.311   6.739  12.139  2.8844  3.2324 -0.2381
 5798TIP3   OH238884   0.396   0.285   1.510  0.5685 -0.2514 -0.4021
 5798TIP3    H138885   0.421   0.264   1.420 -0.0768 -0.1189 -0.6151
 5798TIP3    H238886   0.426   0.375   1.523 -0.1293  0.0439 -0.7866
 5799TIP3   OH238887   6.035   2.544  15.227 -0.0659  0.4617  0.0459
 5799TIP3    H138888   6.117   2.582  15.196 -0.6663  1.0197 -0.8887
 5799TIP3    H238889   6.039   2.452  15.201  1.1617 -0.0158  1.8426
 5800TIP3   OH238890   3.965   6.102  16.097  0.2327  0.3286 -0.8725
 5800TIP3    H138891   3.974   6.193  16.123 -0.8663  0.0271  0.6876
 5800TIP3    H238892   4.049   6.062  16.120 -0.0704  0.4761  0.5495
 5801TIP3   OH238893   6.557   4.457   0.978  0.5519  0.0096  0.0239
 5801TIP3    H138894   6.643   4.419   0.994  0.1972 -1.4583 -1.4018
 5801TIP3    H238895   6.561   4.490   0.888 -0.2834  0.1235  0.0186
 5802TIP3   OH238896   0.622   0.879   3.669 -0.4404 -0.1933  0.3306
 5802TIP3    H138897   0.537   0.906   3.635 -1.0333 -0.8091  1.3222
 5802TIP3    H238898   0.630   0.925   3.753 -0.3184 -1.0721  0.7979
 5803TIP3   OH238899   6.112   3.487   3.609  0.1757  0.6347  0.1525
 5803TIP3    H138900   6.047   3.552   3.636 -0.0897  1.1540 -1.6835
 5803TIP3    H238901   6.060   3.417   3.568  0.4874 -0.6015  1.7818
 5804TIP3   OH238902   4.321   5.150   4.715  0.4426  0.1571 -0.2290
 5804TIP3    H138903   4.358   5.172   4.629  0.4724 -1.4045 -0.6315
 5804TIP3    H238904   4.272   5.069   4.699  0.0829  0.1061  1.1383
 5805TIP3   OH238905   6.424   2.887   0.939 -0.5657 -0.1551 -0.5307
 5805TIP3    H138906   6.361   2.822   0.969  0.1383 -0.7937 -0.4266
 5805TIP3    H238907   6.373   2.948   0.886 -1.6553  0.4324  1.1406
 5806TIP3   OH238908   3.192   0.348   1.101  0.0794 -1.0159  0.2840
 5806TIP3    H138909   3.174   0.382   1.013  0.4145 -1.6828 -0.0422
 5806TIP3    H238910   3.126   0.390   1.156  1.8242  1.8693  0.2858
 5807TIP3   OH238911   5.778   5.050   1.345  0.0098 -0.2000 -0.3944
 5807TIP3    H138912   5.770   5.042   1.250  0.4473 -1.3125 -0.3419
 5807TIP3    H238913   5.864   5.089   1.359  0.5612 -1.3883 -0.4066
 5808TIP3   OH238914   0.290   1.552   1.162  0.3594  0.0120  0.2360
 5808TIP3    H138915   0.375   1.558   1.206 -0.1091  0.6751  1.0620
 5808TIP3    H238916   0.311   1.518   1.075  1.5882  1.0527  0.1125
 5809TIP3   OH238917   5.396   3.127   2.369  0.5445  0.1616 -0.2404
 5809TIP3    H138918   5.417   3.104   2.460  1.2997  1.0065 -0.1930
 5809TIP3    H238919   5.305   3.101   2.358  0.0009  1.4106  1.2033
 5810TIP3   OH238920   3.338   6.227  13.564 -0.7515 -0.2496 -0.0920
 5810TIP3    H138921   3.330   6.152  13.622 -0.4850  0.9578  1.5533
 5810TIP3    H238922   3.432   6.230  13.543 -0.6972 -0.1245  0.1727
 5811TIP3   OH238923   5.014   3.168   1.388  0.3160 -0.4039 -0.0075
 5811TIP3    H138924   4.953   3.205   1.451  0.0201 -1.6128  0.4365
 5811TIP3    H238925   4.980   3.192   1.302 -0.2791 -0.2996  0.2621
 5812TIP3   OH238926   3.716   1.423   3.964  0.4605  0.3927 -0.2798
 5812TIP3    H138927   3.771   1.354   4.000 -0.9050  0.1165  1.3736
 5812TIP3    H238928   3.627   1.396   3.987 -0.0062  3.4337  1.7487
 5813TIP3   OH238929   0.120   2.223   1.791 -0.4640 -0.2910 -0.4648
 5813TIP3    H138930   0.200   2.174   1.810  0.4713  1.0307 -0.9183
 5813TIP3    H238931   0.068   2.217   1.871  0.9024  0.3751  0.4843
 5814TIP3   OH238932   0.639   5.518   0.603  0.1976 -0.2221  0.4999
 5814TIP3    H138933   0.679   5.505   0.517 -0.4906 -1.3009  0.3300
 5814TIP3    H238934   0.712   5.526   0.663  0.7135  2.0820 -0.3930
 5815TIP3   OH238935   5.289   0.051   2.133 -0.2220 -0.0536  0.1541
 5815TIP3    H138936   5.379   0.042   2.163 -0.4467 -0.4224  0.7135
 5815TIP3    H238937   5.267  -0.033   2.094  0.1200  0.4699 -1.2058
 5816TIP3   OH238938   5.890   1.244  15.889  0.2084 -0.3275 -0.1405
 5816TIP3    H138939   5.962   1.292  15.929 -1.0323  0.6970  0.9285
 5816TIP3    H238940   5.864   1.180  15.956 -2.1864  1.6992  0.9744
 5817TIP3   OH238941   5.868   3.655   2.816  0.1752 -0.1439  0.1497
 5817TIP3    H138942   5.816   3.604   2.878 -1.2167 -0.0633 -0.9257
 5817TIP3    H238943   5.958   3.645   2.846 -0.4225 -0.6107  1.8132
 5818TIP3   OH238944   3.435   6.742  11.479  0.2740  0.5513 -0.6364
 5818TIP3    H138945   3.473   6.815  11.431  0.1575 -0.7689 -2.8299
 5818TIP3    H238946   3.471   6.664  11.437  3.3537 -0.7222  4.0503
 5819TIP3   OH238947   6.459   0.338  14.955  0.3393  0.1933 -0.1661
 5819TIP3    H138948   6.461   0.376  14.867 -0.6563  1.1183  0.1992
 5819TIP3    H238949   6.450   0.244  14.941  0.0623  0.3482 -1.0516
 5820TIP3   OH238950   4.943   2.156   3.181  0.0412  0.4651 -0.4528
 5820TIP3    H138951   4.909   2.177   3.094 -0.7791  0.4745 -0.1295
 5820TIP3    H238952   4.867   2.158   3.238  0.4920 -0.0645  0.1797
 5821TIP3   OH238953   0.712   6.667   2.700 -1.3380  0.0348  0.0530
 5821TIP3    H138954   0.769   6.631   2.632 -0.7804  0.7448  0.1360
 5821TIP3    H238955   0.676   6.591   2.744  0.1643 -0.4352  0.5051
 5822TIP3   OH238956   2.889   4.730   1.383  0.0981  0.9630  0.2226
 5822TIP3    H138957   2.852   4.768   1.463  0.4552  1.5910  0.0898
 5822TIP3    H238958   2.851   4.643   1.379  0.9158  0.5319  1.6458
 5823TIP3   OH238959   1.174   1.753   1.677 -0.3258 -0.3214  0.2338
 5823TIP3    H138960   1.112   1.824   1.697  1.7308  2.2939 -2.2062
 5823TIP3    H238961   1.119   1.679   1.653 -2.5700  1.5144 -0.5180
 5824TIP3   OH238962   4.559   3.430  16.740 -0.2690  0.7831  0.1914
 5824TIP3    H138963   4.478   3.468  16.775 -0.3799  2.0048 -1.3261
 5824TIP3    H238964   4.600   3.389  16.815 -1.3959  1.7656  1.3803
 5825TIP3   OH238965   5.696   2.700  16.118 -0.4252  0.0583  0.9120
 5825TIP3    H138966   5.777   2.704  16.170 -1.9928 -3.1228  3.7532
 5825TIP3    H238967   5.650   2.781  16.139  0.8798  0.7295  1.2256
 5826TIP3   OH238968   4.717   5.159   1.041  0.6202  0.4289 -0.2656
 5826TIP3    H138969   4.707   5.067   1.018  0.6072  0.4278 -0.2567
 5826TIP3    H238970   4.811   5.173   1.046  0.6218  0.4127 -0.2527
 5827TIP3   OH238971   5.141   6.355   5.344  0.1234 -0.3836 -0.5955
 5827TIP3    H138972   5.130   6.414   5.270  0.2214 -0.8455 -0.9774
 5827TIP3    H238973   5.056   6.311   5.352  0.2369 -0.6134 -0.6732
 5828TIP3   OH238974   0.347   0.353   4.289 -0.2696 -0.3840 -0.4766
 5828TIP3    H138975   0.334   0.313   4.375 -0.7522 -0.3556 -0.5384
 5828TIP3    H238976   0.416   0.300   4.248  1.0437  0.5333  0.5271
 5829TIP3   OH238977   4.805   2.651   1.525 -0.2665 -0.2773 -0.3626
 5829TIP3    H138978   4.713   2.671   1.539 -0.1348 -1.5032  2.4956
 5829TIP3    H238979   4.828   2.699   1.445 -4.1312 -2.2940 -2.8435
 5830TIP3   OH238980   2.709   0.280  14.848 -0.4097  0.1507 -0.0322
 5830TIP3    H138981   2.674   0.216  14.910  0.1357  1.2104  1.4007
 5830TIP3    H238982   2.784   0.237  14.808  0.3038  0.1008  1.3468
 5831TIP3   OH238983   2.415   5.347   0.271  0.3293  0.4395  0.0257
 5831TIP3    H138984   2.432   5.440   0.286  1.5991  0.6785 -2.5439
 5831TIP3    H238985   2.361   5.345   0.192  1.0141 -1.0383 -0.4222
 5832TIP3   OH238986   0.833   5.648  14.800 -0.6814  0.1894  0.3590
 5832TIP3    H138987   0.841   5.730  14.750 -2.8937  1.2213  1.6400
 5832TIP3    H238988   0.916   5.640  14.846  0.3522  0.6162 -1.3857
 5833TIP3   OH238989   4.698   5.710   5.557  0.2095  0.2302 -0.2041
 5833TIP3    H138990   4.753   5.680   5.485 -0.0137 -0.4838 -0.0790
 5833TIP3    H238991   4.748   5.690   5.636  1.4307  2.9663 -0.2006
 5834TIP3   OH238992   0.951   3.216   2.196 -0.2646  0.2895 -0.4094
 5834TIP3    H138993   1.039   3.242   2.224 -0.5125  0.9543 -0.2367
 5834TIP3    H238994   0.893   3.261   2.257 -0.7317 -0.0298 -0.6213
 5835TIP3   OH238995   1.112   1.524   0.948 -0.2776 -0.1701  0.7559
 5835TIP3    H138996   1.058   1.469   1.005 -2.5489  0.0603 -1.1292
 5835TIP3    H238997   1.078   1.613   0.962  0.6559  0.2039  0.6935
 5836TIP3   OH238998   5.061   4.533  13.023 -0.6161 -0.1359  0.1537
 5836TIP3    H138999   5.034   4.446  13.051 -0.3315  0.2201  1.5525
 5836TIP3    H239000   4.979   4.576  12.995 -0.3489 -1.9372 -3.6619
 5837TIP3   OH239001   5.979   0.930  12.993  0.2603 -0.5288 -0.0263
 5837TIP3    H139002   6.052   0.929  12.930 -1.6299 -1.1222 -2.3008
 5837TIP3    H239003   5.975   1.021  13.023  0.5173  0.0477 -1.6550
 5838TIP3   OH239004   1.599   1.980   6.192 -0.0454 -0.3245  0.0549
 5838TIP3    H139005   1.519   1.931   6.173  0.4990 -0.7997 -1.0334
 5838TIP3    H239006   1.612   1.969   6.286 -0.0112 -2.1614 -0.1409
 5839TIP3   OH239007   4.905   2.810   5.174 -0.4678 -0.4251  0.5980
 5839TIP3    H139008   4.913   2.809   5.269 -1.2517  0.1609  0.6766
 5839TIP3    H239009   4.897   2.903   5.152  0.1876 -0.5285 -0.0777
 5840TIP3   OH239010   4.341   2.274   2.793  0.0541  0.1482 -0.2502
 5840TIP3    H139011   4.315   2.231   2.875 -0.9235 -1.3983 -1.3570
 5840TIP3    H239012   4.392   2.208   2.746 -2.1721 -0.1381 -2.3458
 5841TIP3   OH239013   4.151   5.485   5.147 -0.6182  0.0231 -0.3624
 5841TIP3    H139014   4.202   5.478   5.227  1.0859  0.8512 -1.3535
 5841TIP3    H239015   4.208   5.531   5.086 -2.5930  1.0785 -1.4737
 5842TIP3   OH239016   0.619   4.358  15.121  0.1517 -0.4663  0.1178
 5842TIP3    H139017   0.708   4.382  15.145  0.0262 -0.4892  0.6210
 5842TIP3    H239018   0.628   4.292  15.053  0.5139  0.6124 -0.9137
 5843TIP3   OH239019   1.801   5.789  17.141  0.5249 -0.1026 -0.1223
 5843TIP3    H139020   1.864   5.845  17.185  1.1812 -0.9868  0.0744
 5843TIP3    H239021   1.852   5.714  17.111 -0.4878 -0.9789  0.3125
 5844TIP3   OH239022   5.443   1.532  15.300  0.3113 -0.1393  0.8868
 5844TIP3    H139023   5.472   1.544  15.210  0.9305  0.7568  1.2037
 5844TIP3    H239024   5.380   1.603  15.315  0.0428 -0.4185  1.0971
 5845TIP3   OH239025   1.787   6.222  11.089 -0.1919 -0.6599 -0.5426
 5845TIP3    H139026   1.796   6.308  11.048 -0.9920 -1.8293 -3.2738
 5845TIP3    H239027   1.704   6.227  11.136 -1.2584 -0.6214 -2.4161
 5846TIP3   OH239028   0.456   5.941  10.776  0.5513  0.2393  0.3005
 5846TIP3    H139029   0.407   5.938  10.858 -1.8302  0.1632 -1.0663
 5846TIP3    H239030   0.510   6.019  10.783  0.3128  0.2775  1.9003
 5847TIP3   OH239031   4.117   1.414  11.197 -0.1136  0.1901 -0.1759
 5847TIP3    H139032   4.178   1.388  11.266  0.2067 -0.0393 -0.5466
 5847TIP3    H239033   4.155   1.492  11.159 -1.2291  1.4052  1.1293
 5848TIP3   OH239034   4.308   5.677  13.884 -0.4584 -0.3412 -0.2712
 5848TIP3    H139035   4.327   5.705  13.973  0.8410  0.8970 -0.9269
 5848TIP3    H239036   4.241   5.609  13.894 -0.0888 -0.4401  1.6561
 5849TIP3   OH239037   3.412   3.288  11.089  0.2561 -0.6018 -0.5840
 5849TIP3    H139038   3.356   3.360  11.063  0.8496 -0.8488 -2.6645
 5849TIP3    H239039   3.382   3.264  11.176 -4.0444 -1.8318 -2.2482
 5850TIP3   OH239040   2.118   2.032   3.522  0.6888 -0.4276 -0.3677
 5850TIP3    H139041   2.073   1.961   3.477 -0.2147 -0.4718  0.5869
 5850TIP3    H239042   2.111   2.107   3.462 -2.9195  0.2943  0.8135
 5851TIP3   OH239043   1.966   2.858  12.374  0.1541  0.0199 -1.1248
 5851TIP3    H139044   1.971   2.833  12.467 -0.7279  2.8412 -0.2423
 5851TIP3    H239045   1.967   2.775  12.327  0.1048 -1.5171  1.4397
 5852TIP3   OH239046   0.747   1.460   3.126 -0.2266  0.2383  0.2486
 5852TIP3    H139047   0.790   1.433   3.045  1.3322  2.3004  0.3545
 5852TIP3    H239048   0.683   1.526   3.098 -0.1119  0.5114  0.6309
 5853TIP3   OH239049   1.160   0.480   1.627  0.4379  0.0492 -0.4116
 5853TIP3    H139050   1.091   0.527   1.580 -0.5056 -1.3552 -0.4675
 5853TIP3    H239051   1.113   0.418   1.683  1.6265  0.0378  0.5928
 5854TIP3   OH239052   1.310   5.108  12.306 -0.3357  0.5759  0.6948
 5854TIP3    H139053   1.373   5.048  12.346 -0.1009  0.2957 -0.0977
 5854TIP3    H239054   1.262   5.144  12.381  0.1630  0.1272  1.2441
 5855TIP3   OH239055   3.415   2.854   4.742 -0.5338 -0.2351 -0.3009
 5855TIP3    H139056   3.475   2.780   4.757  0.7654  0.6857 -0.8546
 5855TIP3    H239057   3.365   2.861   4.823  1.0700 -0.1705  0.7103
 5856TIP3   OH239058   4.770   2.148  11.853 -0.3352 -0.8100  0.4338
 5856TIP3    H139059   4.731   2.154  11.940  0.4332  1.4279  0.6546
 5856TIP3    H239060   4.700   2.116  11.797 -1.8578  1.0989  1.2201
 5857TIP3   OH239061   0.720   1.838   3.551 -0.4427  0.0163 -0.0220
 5857TIP3    H139062   0.732   1.817   3.458  0.9835  1.0669 -0.0927
 5857TIP3    H239063   0.665   1.767   3.584  0.2031 -1.1451 -1.3487
 5858TIP3   OH239064   5.034   3.598  15.396 -0.4722 -0.0963 -0.6035
 5858TIP3    H139065   4.954   3.634  15.433 -0.2418 -0.6504  0.4490
 5858TIP3    H239066   5.083   3.674  15.365 -0.0828  0.5001  1.3917
 5859TIP3   OH239067   4.860   6.694  16.161 -0.1044  0.2946  0.0163
 5859TIP3    H139068   4.916   6.745  16.102  2.6937  0.7089  2.9112
 5859TIP3    H239069   4.817   6.631  16.103 -0.5724  3.2319 -3.0463
 5860TIP3   OH239070   5.415   1.584   4.234  0.2324  0.4081 -0.2899
 5860TIP3    H139071   5.494   1.546   4.194 -0.7227 -1.5612 -0.3718
 5860TIP3    H239072   5.349   1.515   4.225 -0.8659  1.1532  1.8569
 5861TIP3   OH239073   0.664   3.535  14.825 -0.5625  0.3527  0.0355
 5861TIP3    H139074   0.707   3.449  14.823 -3.0063 -0.8910 -0.2546
 5861TIP3    H239075   0.585   3.522  14.877 -1.7253  2.0591 -1.2223
 5862TIP3   OH239076   3.096   1.984   3.251 -0.0741 -0.1406  0.4502
 5862TIP3    H139077   3.037   2.054   3.280 -0.8405 -1.4084  2.0033
 5862TIP3    H239078   3.059   1.904   3.289  1.8356 -1.1447  0.2333
 5863TIP3   OH239079   4.499   2.291   2.329  0.0130  0.5108  0.6337
 5863TIP3    H139080   4.411   2.263   2.303 -1.3734  3.2792  2.0888
 5863TIP3    H239081   4.534   2.216   2.377 -1.7146 -0.4766  0.4244
 5864TIP3   OH239082   6.330   1.477  16.105  0.3358  0.0525  0.1043
 5864TIP3    H139083   6.403   1.426  16.069  0.3929  0.8626 -0.9446
 5864TIP3    H239084   6.370   1.558  16.135 -0.2413  0.8629 -1.2667
 5865TIP3   OH239085   3.820   3.469   0.467  0.1236  0.1749 -0.7484
 5865TIP3    H139086   3.757   3.401   0.492  0.5066  0.0586 -0.0788
 5865TIP3    H239087   3.895   3.421   0.433  0.9263  0.1857  0.9392
 5866TIP3   OH239088   3.718   6.657   1.023  0.5028  0.0578  0.0019
 5866TIP3    H139089   3.720   6.573   1.070 -1.3966  0.2373  0.4397
 5866TIP3    H239090   3.630   6.661   0.984  0.4876  1.9622  0.1881
 5867TIP3   OH239091   0.505   4.859   2.916  0.1376 -0.2847 -0.0498
 5867TIP3    H139092   0.476   4.837   3.005 -0.3665  2.4405  0.4902
 5867TIP3    H239093   0.596   4.831   2.913 -0.6366 -3.0459  0.3555
 5868TIP3   OH239094   2.436   2.471  15.686  0.0042 -0.2599  0.1006
 5868TIP3    H139095   2.497   2.429  15.625  0.7951  0.8515  0.1016
 5868TIP3    H239096   2.445   2.565  15.668 -1.6612 -0.0753  0.1663
 5869TIP3   OH239097   1.329   5.020  14.867  0.2298 -0.2159 -0.6147
 5869TIP3    H139098   1.240   5.005  14.836  0.2167 -1.5178  0.0257
 5869TIP3    H239099   1.321   5.026  14.962  0.6721  0.7811 -0.6327
 5870TIP3   OH239100   3.340   3.852   4.932  0.1760  0.0628 -0.1470
 5870TIP3    H139101   3.422   3.814   4.962 -0.4376 -0.6399  0.6861
 5870TIP3    H239102   3.299   3.887   5.011 -0.4406  0.1638 -0.5064
 5871TIP3   OH239103   5.134   6.219   3.120  0.5078  0.0145 -0.4049
 5871TIP3    H139104   5.053   6.242   3.165  0.9702 -1.2957  1.1412
 5871TIP3    H239105   5.108   6.151   3.057  0.5239 -0.9108  0.5824
 5872TIP3   OH239106   0.281   6.404  15.808 -0.4085 -0.2730  0.9201
 5872TIP3    H139107   0.299   6.316  15.776  1.0087  0.6648 -0.9736
 5872TIP3    H239108   0.366   6.435  15.840 -0.0035  1.7533 -1.9154
 5873TIP3   OH239109   1.196   5.711  11.427  0.4324  0.0713 -0.2321
 5873TIP3    H139110   1.124   5.648  11.424  1.2681 -0.9349  0.4824
 5873TIP3    H239111   1.193   5.755  11.342 -1.3722  0.4405  0.0014
 5874TIP3   OH239112   4.591   5.681   2.051 -0.2057  0.2541 -0.0921
 5874TIP3    H139113   4.623   5.755   2.001 -0.0540  1.1667  1.3325
 5874TIP3    H239114   4.509   5.656   2.007 -0.4864  1.5418 -0.3078
 5875TIP3   OH239115   5.738   3.229  14.367  0.2987 -0.1901 -0.2614
 5875TIP3    H139116   5.743   3.243  14.461  1.7027 -0.6426 -0.2524
 5875TIP3    H239117   5.811   3.170  14.348 -0.2576 -0.4776 -1.5618
 5876TIP3   OH239118   6.612   0.818  15.398 -0.2683 -0.1950  0.2190
 5876TIP3    H139119   6.589   0.911  15.393 -0.7341 -0.2964  0.3543
 5876TIP3    H239120   6.528   0.773  15.385 -0.4011 -0.5531  2.1701
 5877TIP3   OH239121   2.435   2.274   5.388  0.0756  0.4261 -0.7165
 5877TIP3    H139122   2.422   2.369   5.386 -1.1653  0.3528  2.0040
 5877TIP3    H239123   2.525   2.263   5.422 -0.2394  0.6375  0.2135
 5878TIP3   OH239124   4.483   6.415  14.753  0.0597 -0.2564  0.2927
 5878TIP3    H139125   4.485   6.444  14.662 -0.3744  2.0109  0.9681
 5878TIP3    H239126   4.547   6.472  14.797 -1.0047 -0.1566  1.7161
 5879TIP3   OH239127   3.927   3.907   2.377 -0.8772 -0.1142 -0.0750
 5879TIP3    H139128   3.950   3.824   2.334  0.6979  0.1495  0.2212
 5879TIP3    H239129   3.924   3.885   2.470  0.9363  0.4487  0.1330
 5880TIP3   OH239130   4.038   1.803   2.444  0.1202 -0.6015  0.0405
 5880TIP3    H139131   3.972   1.803   2.375  0.9486 -1.0697 -0.7538
 5880TIP3    H239132   4.017   1.726   2.497 -1.5948  0.7249  1.3805
 5881TIP3   OH239133   1.191   0.406   2.111 -0.4289 -0.7795  0.1106
 5881TIP3    H139134   1.100   0.431   2.128  0.1173  1.1533  0.2673
 5881TIP3    H239135   1.243   0.476   2.149  1.1460 -1.9006  0.0718
 5882TIP3   OH239136   5.870   0.595   5.871 -0.2582  0.6723  0.1950
 5882TIP3    H139137   5.935   0.553   5.815  0.4109  0.3727  1.1848
 5882TIP3    H239138   5.920   0.628   5.945 -1.0797  1.4275  0.4157
 5883TIP3   OH239139   0.331   0.225   3.009 -0.5358  0.1288 -0.0926
 5883TIP3    H139140   0.414   0.200   3.049  1.1356  2.9987 -1.6192
 5883TIP3    H239141   0.323   0.168   2.933  0.6144  0.6093 -0.5791
 5884TIP3   OH239142   2.956   3.323   5.477 -0.3940 -0.1069 -0.6789
 5884TIP3    H139143   2.974   3.410   5.440  0.9457  0.2013  0.6739
 5884TIP3    H239144   2.911   3.342   5.560 -0.4957 -0.7162 -0.5957
 5885TIP3   OH239145   2.032   3.932  11.705 -0.4746  0.1108 -0.2108
 5885TIP3    H139146   1.953   3.918  11.757 -0.7710 -0.3008 -0.7702
 5885TIP3    H239147   2.073   4.009  11.744  0.1886 -1.1747  1.7130
 5886TIP3   OH239148   2.967   1.979  10.977  0.3718 -0.2668 -0.0441
 5886TIP3    H139149   2.971   2.060  10.926  0.0779 -0.2789 -0.0904
 5886TIP3    H239150   3.005   2.002  11.062 -1.1537  0.3531  0.4921
 5887TIP3   OH239151   4.644   4.059   4.663  0.2367 -0.5014 -0.5782
 5887TIP3    H139152   4.551   4.051   4.643  0.0794 -0.9227  0.3123
 5887TIP3    H239153   4.658   4.152   4.678 -0.6030 -0.7702  2.0065
 5888TIP3   OH239154   2.582   5.178   0.985 -0.2103  0.1805 -0.4011
 5888TIP3    H139155   2.669   5.192   0.949  0.0950 -2.0163 -0.5450
 5888TIP3    H239156   2.577   5.238   1.060  1.0339  1.0305 -0.9909
 5889TIP3   OH239157   3.875   2.376  14.923  0.4085  0.5498  0.3742
 5889TIP3    H139158   3.955   2.350  14.876  0.4758  1.9499 -0.2981
 5889TIP3    H239159   3.904   2.392  15.013  0.6304 -0.2273  0.4529
 5890TIP3   OH239160   5.825   3.460   2.353  0.2603 -0.3589  0.7675
 5890TIP3    H139161   5.838   3.555   2.360 -1.6554 -0.0569  0.5827
 5890TIP3    H239162   5.733   3.447   2.376  0.3931 -2.1367  0.3765
 5891TIP3   OH239163   3.609   5.371  14.607  0.2943  0.8574  0.1208
 5891TIP3    H139164   3.551   5.341  14.537 -1.0148  2.6278  0.4049
 5891TIP3    H239165   3.630   5.461  14.584  2.0283  0.6032  0.6352
 5892TIP3   OH239166   4.253   5.659  16.557  0.6299 -0.4076 -0.1508
 5892TIP3    H139167   4.318   5.713  16.603  0.8456  0.4905 -1.4950
 5892TIP3    H239168   4.304   5.584  16.525  0.4834 -1.0273  1.0323
 5893TIP3   OH239169   0.182   6.119  14.413 -0.1612  0.3301 -0.5589
 5893TIP3    H139170   0.164   6.028  14.392  0.7657 -0.3877  1.7087
 5893TIP3    H239171   0.146   6.168  14.338 -1.7629 -1.7762 -1.2061
 5894TIP3   OH239172   6.586   0.381   0.189  0.3348  0.0306 -0.0524
 5894TIP3    H139173   6.658   0.331   0.152 -0.4386 -0.3621 -1.0455
 5894TIP3    H239174   6.618   0.471   0.190  0.3646  0.0558 -1.7227
 5895TIP3   OH239175   0.374   2.775   4.311 -0.2886 -0.3338  0.0113
 5895TIP3    H139176   0.371   2.823   4.228 -1.5340 -0.4647 -0.0396
 5895TIP3    H239177   0.285   2.783   4.345  1.0274  2.6603  3.0180
 5896TIP3   OH239178   5.149   3.235   0.614 -0.3594  0.0926  0.1151
 5896TIP3    H139179   5.124   3.185   0.536 -0.9743 -0.4624  0.6662
 5896TIP3    H239180   5.244   3.230   0.616 -0.2350  1.4154 -1.4634
 5897TIP3   OH239181   2.418   1.090   6.632  0.2006 -0.5648 -0.1261
 5897TIP3    H139182   2.460   1.041   6.703  0.4464  0.9214  0.7820
 5897TIP3    H239183   2.349   1.140   6.676 -0.5087 -0.6434 -1.1441
 5898TIP3   OH239184   0.357   3.731   3.216  0.0337 -0.1523 -0.3942
 5898TIP3    H139185   0.285   3.793   3.229 -0.6882 -0.9673 -0.4682
 5898TIP3    H239186   0.401   3.762   3.136 -0.4441  0.1455 -0.5458
 5899TIP3   OH239187   2.122   4.999  13.523 -0.0954 -0.3330  0.0742
 5899TIP3    H139188   2.104   4.967  13.435 -2.0083  0.0405  0.2875
 5899TIP3    H239189   2.175   5.077  13.511 -0.8810  0.0784 -0.7995
 5900TIP3   OH239190   3.887   2.691  11.590  0.2318  0.1736 -0.3354
 5900TIP3    H139191   3.874   2.784  11.608  0.0183  0.1356 -0.2927
 5900TIP3    H239192   3.851   2.678  11.503  2.1416  0.5592 -1.2127
 5901TIP3   OH239193   5.327   2.137  11.413  0.1735  0.6098 -0.0232
 5901TIP3    H139194   5.399   2.096  11.366  1.2600  0.7788  1.4577
 5901TIP3    H239195   5.363   2.219  11.445 -1.1589  1.4295 -0.6035
 5902TIP3   OH239196   2.763   0.172  13.315 -0.9137 -0.5994  0.1188
 5902TIP3    H139197   2.849   0.162  13.357 -0.8087 -2.1832 -0.4354
 5902TIP3    H239198   2.701   0.138  13.380 -1.1049  0.3668  0.4428
 5903TIP3   OH239199   1.223   5.170  11.664 -0.1995  0.3111 -0.7387
 5903TIP3    H139200   1.138   5.209  11.641  0.5117  2.0560 -0.4892
 5903TIP3    H239201   1.283   5.201  11.596  0.5094  0.1046 -0.2134
 5904TIP3   OH239202   1.411   5.285   4.894 -0.1546 -0.3141  0.3841
 5904TIP3    H139203   1.488   5.288   4.837  0.1597 -1.1788  0.7544
 5904TIP3    H239204   1.379   5.375   4.896 -0.5247 -0.3654 -1.6384
 5905TIP3   OH239205   1.192   1.957  12.734 -0.4635  0.0673 -0.0086
 5905TIP3    H139206   1.183   2.050  12.714 -0.6155 -0.2573 -1.5192
 5905TIP3    H239207   1.104   1.921  12.720 -0.1553 -0.4948 -0.5064
 5906TIP3   OH239208   4.972   1.954   6.131 -0.1211  0.0645 -0.1077
 5906TIP3    H139209   4.955   1.992   6.218  1.3876  0.4787  0.0089
 5906TIP3    H239210   4.905   1.994   6.075 -0.1722  0.9301  0.5556
 5907TIP3   OH239211   3.279   0.083  11.165  0.1674  0.2803  1.1420
 5907TIP3    H139212   3.347   0.143  11.195 -0.3722  2.0724 -1.0825
 5907TIP3    H239213   3.327   0.011  11.124  0.7561  0.8986  0.7400
 5908TIP3   OH239214   3.560   3.369  14.134  0.0151 -0.0765  0.5157
 5908TIP3    H139215   3.608   3.450  14.151  0.4144 -0.2581  0.2666
 5908TIP3    H239216   3.588   3.310  14.203 -0.4188  0.0518  0.8080
 5909TIP3   OH239217   6.443   3.348   0.129  0.1828  0.3525  0.4583
 5909TIP3    H139218   6.534   3.362   0.155  0.2043 -0.5214  0.8647
 5909TIP3    H239219   6.393   3.409   0.182  0.3208 -0.7385  1.8699
 5910TIP3   OH239220   4.345   5.658   1.917  0.4870 -0.4155  0.8951
 5910TIP3    H139221   4.270   5.717   1.908 -0.3727 -1.5006  0.8457
 5910TIP3    H239222   4.403   5.682   1.844 -1.1743 -1.4957 -0.8385
 5911TIP3   OH239223   0.278   2.083  16.291 -0.0666  0.4622  0.3034
 5911TIP3    H139224   0.231   2.155  16.250 -0.8442  0.3051  0.9035
 5911TIP3    H239225   0.279   2.104  16.384 -0.6566 -0.4930  0.5343
 5912TIP3   OH239226   3.278   2.058  16.758  0.1400 -0.1006  0.0641
 5912TIP3    H139227   3.328   2.070  16.838  0.7860  2.0272 -0.6278
 5912TIP3    H239228   3.186   2.067  16.786  0.4210  2.1353  0.3446
 5913TIP3   OH239229   3.183   5.092  11.723 -0.2951  0.1136  0.5446
 5913TIP3    H139230   3.187   5.104  11.818  0.7776  1.0234  0.3932
 5913TIP3    H239231   3.254   5.030  11.704 -0.2338  0.2666  0.2789
 5914TIP3   OH239232   1.368   6.517  14.731 -0.2086 -0.2428  0.3441
 5914TIP3    H139233   1.341   6.601  14.694  3.1004  0.9194  0.3732
 5914TIP3    H239234   1.361   6.530  14.826 -1.1183 -0.5237  0.3196
 5915TIP3   OH239235   1.008   4.129  14.329  0.5148  0.3886 -0.3547
 5915TIP3    H139236   0.992   4.175  14.247  0.2317  1.9827  0.5589
 5915TIP3    H239237   1.065   4.056  14.306 -0.9667 -0.1828 -2.2302
 5916TIP3   OH239238   4.977   5.231  15.003 -0.2098  0.7168 -0.5176
 5916TIP3    H139239   4.965   5.326  15.015  1.6997  1.0192 -0.8328
 5916TIP3    H239240   5.068   5.215  15.028 -0.1025 -0.8034 -1.7945
 5917TIP3   OH239241   0.663   0.889  16.838 -0.4208  0.4410  0.7172
 5917TIP3    H139242   0.593   0.825  16.824 -0.4052  0.6452 -0.3422
 5917TIP3    H239243   0.624   0.973  16.812  0.6569  0.3527 -1.2751
 5918TIP3   OH239244   3.669   3.614   0.178  0.3613  0.7743 -0.4072
 5918TIP3    H139245   3.676   3.631   0.272  1.0953  0.5904 -0.4202
 5918TIP3    H239246   3.723   3.683   0.137  1.3043 -0.0647 -0.5987
 5919TIP3   OH239247   4.645   3.624   5.157 -0.3905 -0.0910  0.6480
 5919TIP3    H139248   4.677   3.619   5.067  0.6818  0.1919  1.0080
 5919TIP3    H239249   4.579   3.555   5.163  0.0704 -0.6085 -0.1419
 5920TIP3   OH239250   5.873   4.054   3.507  0.0017 -0.1705  0.1217
 5920TIP3    H139251   5.808   4.004   3.458 -0.0281  0.8523 -0.9347
 5920TIP3    H239252   5.855   4.145   3.482  0.9714  0.2240  0.8682
 5921TIP3   OH239253   4.739   6.486  13.040  0.3033  0.6538 -0.0567
 5921TIP3    H139254   4.734   6.516  12.949 -0.6432  1.7148  0.3456
 5921TIP3    H239255   4.823   6.440  13.044  0.9160  1.6252 -1.1700
 5922TIP3   OH239256   6.223   3.316  13.141  0.0846 -0.1775 -0.4344
 5922TIP3    H139257   6.239   3.327  13.235 -2.2120  2.7129 -0.2861
 5922TIP3    H239258   6.177   3.232  13.134  0.1706 -0.3611  1.0439
 5923TIP3   OH239259   2.260   4.813  16.175  0.2590 -0.2221 -0.4644
 5923TIP3    H139260   2.187   4.847  16.226  1.5545 -2.0877  2.7464
 5923TIP3    H239261   2.330   4.877  16.186 -0.0501  0.2900 -1.4382
 5924TIP3   OH239262   0.265   5.995   4.112  0.6875 -0.2015  0.0342
 5924TIP3    H139263   0.356   6.010   4.086  0.5688  0.0681 -0.2344
 5924TIP3    H239264   0.269   5.924   4.175  1.1476  0.2049  0.4645
 5925TIP3   OH239265   1.976   2.022  15.745 -0.9614  0.0222 -0.2870
 5925TIP3    H139266   2.012   2.098  15.700 -1.8659  2.0280  2.2230
 5925TIP3    H239267   1.883   2.041  15.752 -1.2623 -1.5428 -0.0334
 5926TIP3   OH239268   2.516   0.225   2.882  0.0938 -0.2097 -0.7428
 5926TIP3    H139269   2.433   0.265   2.908  1.0193  0.3598  1.4432
 5926TIP3    H239270   2.498   0.131   2.880 -1.2763  0.0641 -2.8948
 5927TIP3   OH239271   3.457   0.179  13.790  0.1636  0.0883 -0.2838
 5927TIP3    H139272   3.363   0.191  13.777 -0.2374 -0.1392  2.1594
 5927TIP3    H239273   3.489   0.266  13.815  0.2644 -0.1997  0.6310
 5928TIP3   OH239274   3.861   0.624   5.797  0.2040  0.4551 -0.0844
 5928TIP3    H139275   3.936   0.683   5.795 -0.0784  0.7898 -0.6006
 5928TIP3    H239276   3.790   0.676   5.833  0.0601  0.3067 -0.1554
 5929TIP3   OH239277   6.494   2.739   3.874  0.1231 -0.0446 -0.1787
 5929TIP3    H139278   6.513   2.717   3.783 -0.7038  1.4527 -0.7141
 5929TIP3    H239279   6.510   2.657   3.921 -0.4640 -1.1330 -1.8043
 5930TIP3   OH239280   5.016   6.593   0.197 -0.3536  0.6161  0.5995
 5930TIP3    H139281   5.109   6.609   0.208 -0.7729  2.4271  1.5949
 5930TIP3    H239282   4.997   6.624   0.108 -0.1835  1.0588  0.7167
 5931TIP3   OH239283   0.412   2.159   2.340 -0.0050  0.3561  0.2964
 5931TIP3    H139284   0.435   2.066   2.337 -0.0043  0.4015 -1.8597
 5931TIP3    H239285   0.491   2.202   2.374  0.2904 -0.3492  0.5043
 5932TIP3   OH239286   4.211   0.200  16.917 -0.3874 -0.0838 -0.1523
 5932TIP3    H139287   4.229   0.262  16.845 -2.2588  1.4402  0.6569
 5932TIP3    H239288   4.122   0.221  16.944  0.1591 -0.9401  2.3470
 5933TIP3   OH239289   6.526   4.054  14.654 -0.3286  0.3389 -0.2813
 5933TIP3    H139290   6.565   4.131  14.696  1.4306 -0.3407 -0.6248
 5933TIP3    H239291   6.494   4.000  14.726 -0.9728  1.0655 -0.0123
 5934TIP3   OH239292   1.737   2.670   0.402 -0.0688 -0.4295  0.3809
 5934TIP3    H139293   1.807   2.634   0.456 -0.9211 -0.9103  1.1788
 5934TIP3    H239294   1.659   2.664   0.457 -1.2345 -2.2289 -1.3866
 5935TIP3   OH239295   5.438   3.753  17.119 -0.6853  0.6056  0.6661
 5935TIP3    H139296   5.518   3.718  17.158  0.3338  0.6075 -1.3985
 5935TIP3    H239297   5.405   3.683  17.064 -1.8906  0.7628  1.1713
 5936TIP3   OH239298   1.303   5.201   3.433  0.3108 -0.1297  0.2940
 5936TIP3    H139299   1.321   5.114   3.467  2.9459  0.6996  1.1999
 5936TIP3    H239300   1.328   5.197   3.341 -2.7535 -1.2032 -0.5415
 5937TIP3   OH239301   0.132   6.790   0.342  0.0229  0.8491  0.2888
 5937TIP3    H139302   0.082   6.771   0.422 -1.0431  2.5430  0.0460
 5937TIP3    H239303   0.196   6.719   0.337 -0.8148 -0.0615  1.8875
 5938TIP3   OH239304   4.375   5.202   3.110  0.2405 -0.1552 -0.5382
 5938TIP3    H139305   4.392   5.108   3.113  0.8203 -0.0221  0.9421
 5938TIP3    H239306   4.351   5.225   3.200  2.2190  1.4765 -0.3942
 5939TIP3   OH239307   2.799   4.264   3.469 -0.4912 -0.1304  0.0116
 5939TIP3    H139308   2.798   4.170   3.490 -1.1253  0.2216  1.6358
 5939TIP3    H239309   2.882   4.277   3.423 -0.3490 -1.4638 -0.1394
 5940TIP3   OH239310   5.615   0.827   4.862  0.4406 -0.0791  0.1709
 5940TIP3    H139311   5.584   0.898   4.919  0.3358 -1.3780  1.7735
 5940TIP3    H239312   5.707   0.817   4.886  0.9785  0.7756 -1.4254
 5941TIP3   OH239313   6.748   0.413  16.591 -0.1633  0.0934  0.7067
 5941TIP3    H139314   6.768   0.506  16.579  1.2164 -0.1882  0.7391
 5941TIP3    H239315   6.770   0.395  16.682  0.4784 -0.4890  0.4370
 5942TIP3   OH239316   2.465   4.713  10.980 -0.3301 -0.2147 -0.3093
 5942TIP3    H139317   2.487   4.805  10.991 -4.4784  1.0451 -1.6664
 5942TIP3    H239318   2.482   4.695  10.887 -0.2718 -0.5950 -0.2270
 5943TIP3   OH239319   1.296   4.756  14.195  0.6910 -0.2715 -0.5382
 5943TIP3    H139320   1.201   4.751  14.184  0.6914  1.7828 -1.7580
 5943TIP3    H239321   1.311   4.737  14.287 -0.8568 -1.1357 -0.4492
 5944TIP3   OH239322   6.615   2.502  15.926  0.3110  0.2349  0.0650
 5944TIP3    H139323   6.575   2.569  15.981  0.6597 -0.2393  0.9006
 5944TIP3    H239324   6.550   2.485  15.858 -1.4005 -1.2957  1.9964
 5945TIP3   OH239325   1.866   2.481   2.596 -0.1020 -0.0764  0.3646
 5945TIP3    H139326   1.870   2.557   2.653  0.3037 -0.9567  1.5370
 5945TIP3    H239327   1.792   2.498   2.538  0.0012  1.2138  0.5979
 5946TIP3   OH239328   5.718   3.285  14.641 -0.2206 -0.2060 -0.4500
 5946TIP3    H139329   5.730   3.380  14.634  1.5810 -0.6107 -3.7528
 5946TIP3    H239330   5.766   3.261  14.721 -0.5003  1.5905  0.2855
 5947TIP3   OH239331   4.867   5.674  11.129  0.4749 -0.1323  0.5090
 5947TIP3    H139332   4.919   5.615  11.184 -0.6590 -1.2284  0.4229
 5947TIP3    H239333   4.820   5.730  11.191  1.1925  0.3993  0.5954
 5948TIP3   OH239334   5.304   5.977   5.508  0.1290  0.3393  0.4848
 5948TIP3    H139335   5.247   5.991   5.583 -0.6592  0.5108 -0.1415
 5948TIP3    H239336   5.389   6.013   5.535 -0.7299  2.4066  0.4894
 5949TIP3   OH239337   5.149   2.156   6.626  0.1547 -0.0041  0.1073
 5949TIP3    H139338   5.074   2.207   6.658  0.0482  0.0680 -0.2617
 5949TIP3    H239339   5.225   2.207   6.651  0.0434  0.4131 -0.3984
 5950TIP3   OH239340   3.396   2.862  15.213 -0.3020  0.4895 -0.4031
 5950TIP3    H139341   3.355   2.869  15.127 -1.2644  1.8876  0.1688
 5950TIP3    H239342   3.362   2.780  15.249  0.2596 -0.2090 -1.4190
 5951TIP3   OH239343   6.598   0.185  10.920 -0.2649 -0.7537  0.4865
 5951TIP3    H139344   6.647   0.139  10.852 -0.5275  1.2984 -1.1158
 5951TIP3    H239345   6.506   0.164  10.903 -0.2384 -1.3523  1.0603
 5952TIP3   OH239346   6.536   1.638  13.543  0.3758  0.0967  0.1805
 5952TIP3    H139347   6.594   1.651  13.468 -0.9569  0.0101 -0.8706
 5952TIP3    H239348   6.572   1.561  13.588 -0.2796 -1.4003 -1.7892
 5953TIP3   OH239349   0.129   3.400   0.637 -0.0449 -0.3866  0.2222
 5953TIP3    H139350   0.148   3.421   0.728 -1.4390 -1.8559  0.8657
 5953TIP3    H239351   0.038   3.425   0.624  0.7215  1.7674 -1.3931
 5954TIP3   OH239352   2.109   4.363  16.964  0.1448 -0.1400 -0.4801
 5954TIP3    H139353   2.129   4.365  17.057  1.7099  1.0408 -0.8211
 5954TIP3    H239354   2.054   4.286  16.952 -0.1743 -0.2170  1.4396
 5955TIP3   OH239355   2.712   5.224  16.417 -0.0529  0.2164 -0.0737
 5955TIP3    H139356   2.625   5.254  16.390  0.1376  0.9506  0.1302
 5955TIP3    H239357   2.704   5.128  16.422 -0.8891  0.2958  0.1082
 5956TIP3   OH239358   1.671   3.347   5.949  0.4549 -0.2279 -0.5101
 5956TIP3    H139359   1.600   3.410   5.932  1.1303 -0.0246 -2.8467
 5956TIP3    H239360   1.732   3.395   6.004 -0.1115  0.4043 -0.4150
 5957TIP3   OH239361   0.670   3.986  12.094  0.0556  0.4282 -0.5578
 5957TIP3    H139362   0.722   3.959  12.170  0.0603  2.3800  0.1609
 5957TIP3    H239363   0.733   4.025  12.034 -0.4128  1.7610 -0.1858
 5958TIP3   OH239364   3.173   5.731   5.270 -0.4361  0.0961 -0.5588
 5958TIP3    H139365   3.253   5.714   5.319  0.6375  2.8765 -1.2438
 5958TIP3    H239366   3.124   5.794   5.324 -0.8819  0.4862 -1.3984
 5959TIP3   OH239367   4.822   0.775   6.715 -0.5364  0.2064  0.1714
 5959TIP3    H139368   4.912   0.752   6.695 -0.8263 -0.6673 -0.1594
 5959TIP3    H239369   4.794   0.831   6.643  0.3498  2.0689  1.2593
 5960TIP3   OH239370   3.209   6.214  12.253 -0.1655  0.2540  0.1767
 5960TIP3    H139371   3.146   6.154  12.294 -0.1942  0.7825  0.8923
 5960TIP3    H239372   3.248   6.262  12.325  0.9281  0.0736 -0.2811
 5961TIP3   OH239373   6.550   6.481  14.507 -0.2407 -0.5871 -0.0824
 5961TIP3    H139374   6.479   6.499  14.568  0.0191 -1.5421  0.5200
 5961TIP3    H239375   6.510   6.486  14.421 -0.6200  0.7343  0.1647
 5962TIP3   OH239376   3.951   5.316   0.677 -0.0107 -0.1367  0.0718
 5962TIP3    H139377   4.019   5.259   0.713  1.1665  1.7227  0.8414
 5962TIP3    H239378   3.961   5.398   0.724 -1.3717  0.8955 -1.3885
 5963TIP3   OH239379   2.219   5.229   1.265  0.6185  0.3534  0.1018
 5963TIP3    H139380   2.230   5.318   1.232  0.6086 -0.0029 -0.8724
 5963TIP3    H239381   2.137   5.198   1.225  0.1560  0.2101  1.1281
 5964TIP3   OH239382   3.293   2.737  14.961 -0.1113 -0.0797 -0.2841
 5964TIP3    H139383   3.231   2.771  14.897 -0.5841  1.0607  0.7598
 5964TIP3    H239384   3.308   2.646  14.935 -4.2341 -1.2094  0.9130
 5965TIP3   OH239385   4.826   2.984   0.446 -0.2296 -0.7743  0.4181
 5965TIP3    H139386   4.830   2.998   0.540 -0.5547 -3.8353  0.9340
 5965TIP3    H239387   4.900   3.034   0.411 -0.1012  0.3640  2.2666
 5966TIP3   OH239388   6.226   2.857   2.644  0.0092 -0.3923 -0.0577
 5966TIP3    H139389   6.252   2.798   2.573  1.5301 -0.0836  0.2263
 5966TIP3    H239390   6.252   2.812   2.724  1.3577  0.7292  0.1561
 5967TIP3   OH239391   3.344   4.264   6.487 -0.3003  0.2663  0.6637
 5967TIP3    H139392   3.262   4.311   6.473 -0.7152 -0.0998  1.7837
 5967TIP3    H239393   3.322   4.172   6.474  0.0347  0.2080  0.5058
 5968TIP3   OH239394   5.315   3.362   1.745  0.2347 -0.6365 -0.1517
 5968TIP3    H139395   5.338   3.336   1.656 -0.2087 -0.4433 -0.3246
 5968TIP3    H239396   5.395   3.402   1.779  0.5327 -1.0794 -0.3179
 5969TIP3   OH239397   1.385   3.156  15.045  0.3741 -0.1990 -0.2508
 5969TIP3    H139398   1.370   3.068  15.012 -1.4643  0.7136 -1.9353
 5969TIP3    H239399   1.337   3.159  15.128 -1.8983  0.0651 -1.5466
 5970TIP3   OH239400   3.150   4.581   2.916  0.0311 -0.2812  0.0497
 5970TIP3    H139401   3.222   4.636   2.948  2.0461 -3.0933  0.5506
 5970TIP3    H239402   3.108   4.548   2.995 -1.1049  0.3993 -0.2531
 5971TIP3   OH239403   6.614   6.528   2.819  0.0063 -0.0353  0.2740
 5971TIP3    H139404   6.692   6.545   2.766  0.1026 -0.1648  0.3719
 5971TIP3    H239405   6.545   6.508   2.755 -0.3196  1.5352  0.1233
 5972TIP3   OH239406   5.418   1.203   5.896 -0.1742  0.0311  0.4194
 5972TIP3    H139407   5.445   1.295   5.898 -0.5514  0.1510  0.0194
 5972TIP3    H239408   5.468   1.166   5.823 -1.3863  0.3490 -0.5878
 5973TIP3   OH239409   2.463   5.866  14.890 -0.6493  0.3139  0.3128
 5973TIP3    H139410   2.491   5.907  14.808 -0.5331  0.4133  0.4026
 5973TIP3    H239411   2.513   5.785  14.895 -1.8268 -0.4865 -0.5074
 5974TIP3   OH239412   1.296   3.498  15.597  0.1229 -0.1209  0.5095
 5974TIP3    H139413   1.269   3.406  15.599  0.3788 -0.1786  1.8202
 5974TIP3    H239414   1.257   3.533  15.517  0.8596 -1.6119 -0.5055
 5975TIP3   OH239415   0.968   2.651   4.295  0.7670  0.6603  0.1179
 5975TIP3    H139416   0.949   2.558   4.283  0.0179  0.9022 -0.6133
 5975TIP3    H239417   1.056   2.662   4.260  0.6903  0.3137 -0.1851
 5976TIP3   OH239418   0.818   3.714  15.848 -0.0238  0.1004 -0.1152
 5976TIP3    H139419   0.865   3.653  15.791  0.9149  0.1639  0.5832
 5976TIP3    H239420   0.794   3.786  15.790  0.6549  0.0194 -0.5035
 5977TIP3   OH239421   1.000   3.527   3.773 -0.1274  0.6518 -0.1561
 5977TIP3    H139422   0.916   3.482   3.760  0.4902 -0.9488  1.1522
 5977TIP3    H239423   0.977   3.620   3.776 -1.5212  0.4395 -2.3608
 5978TIP3   OH239424   5.561   4.219  15.111 -0.0982  0.4952 -0.7876
 5978TIP3    H139425   5.546   4.291  15.050 -0.6204 -0.0335 -1.2914
 5978TIP3    H239426   5.656   4.220  15.126 -0.3375  2.4376  0.6569
 5979TIP3   OH239427   6.014   6.122   0.385 -0.8562  0.2784 -0.0715
 5979TIP3    H139428   6.088   6.182   0.398  0.4017 -0.8022 -1.9642
 5979TIP3    H239429   5.966   6.125   0.468 -0.8323  3.8808 -0.0940
 5980TIP3   OH239430   4.965   0.484  11.800 -0.2314 -0.0803 -0.2158
 5980TIP3    H139431   4.878   0.453  11.774 -0.3435  0.0406  0.0058
 5980TIP3    H239432   5.005   0.409  11.844 -0.6348  0.1915  0.6253
 5981TIP3   OH239433   4.440   3.072   2.955  0.2478 -0.0861 -0.4208
 5981TIP3    H139434   4.485   3.094   3.037  0.8245 -0.7237 -0.5615
 5981TIP3    H239435   4.356   3.118   2.961  0.0336 -0.6021  0.7927
 5982TIP3   OH239436   1.786   3.132   1.812  0.2105  0.1150  0.3540
 5982TIP3    H139437   1.722   3.065   1.787  0.2822 -0.4848  1.7086
 5982TIP3    H239438   1.772   3.204   1.750 -0.9738 -0.4914 -0.0904
 5983TIP3   OH239439   4.476   1.681   2.044  0.2211  0.6427 -0.7305
 5983TIP3    H139440   4.384   1.659   2.029 -1.0082  3.3211  2.3349
 5983TIP3    H239441   4.516   1.599   2.070 -1.3676 -0.4839 -1.7010
 5984TIP3   OH239442   6.340   3.551   3.458  0.3440  0.6010 -0.0291
 5984TIP3    H139443   6.267   3.601   3.496 -0.3822  0.4767 -1.2564
 5984TIP3    H239444   6.298   3.478   3.412  1.3616 -0.7737  1.1589
 5985TIP3   OH239445   4.128   5.226   5.060 -0.0143  0.4618  0.9152
 5985TIP3    H139446   4.059   5.224   4.994  1.1766 -0.8771 -0.3184
 5985TIP3    H239447   4.137   5.318   5.083 -0.6481  0.9059 -0.5902
 5986TIP3   OH239448   0.793   5.662  11.624  0.2536  0.2853 -0.5026
 5986TIP3    H139449   0.837   5.709  11.695 -0.1910  1.2446 -0.8556
 5986TIP3    H239450   0.864   5.621  11.574  0.6320  0.4511 -0.0974
 5987TIP3   OH239451   1.431   0.900  14.014  0.1978  0.4750 -0.0067
 5987TIP3    H139452   1.347   0.899  14.059 -0.2004 -0.8704 -0.7764
 5987TIP3    H239453   1.487   0.955  14.070 -0.7616  0.1996  1.2470
 5988TIP3   OH239454   2.651   5.571  12.677  0.0750 -0.5268  0.3808
 5988TIP3    H139455   2.559   5.559  12.700  0.0964 -1.6943 -0.1137
 5988TIP3    H239456   2.662   5.666  12.675 -0.7748 -0.3794  1.7715
 5989TIP3   OH239457   5.189   3.029   5.309  0.9858  0.0151 -0.4295
 5989TIP3    H139458   5.262   2.994   5.361  0.4884 -1.7944 -0.9062
 5989TIP3    H239459   5.203   2.991   5.222 -1.7512 -2.1681  0.0285
 5990TIP3   OH239460   4.929   6.453   4.097 -0.1459 -0.4628 -0.4937
 5990TIP3    H139461   4.974   6.368   4.103  0.6750  0.0770  1.3883
 5990TIP3    H239462   4.938   6.478   4.005  0.0312 -2.1857 -0.9671
 5991TIP3   OH239463   6.485   0.489   2.071  0.2227 -0.2997 -0.0510
 5991TIP3    H139464   6.519   0.459   2.155  0.0416 -0.4356 -0.0286
 5991TIP3    H239465   6.391   0.474   2.075 -0.2704  2.7135  1.0117
 5992TIP3   OH239466   3.221   2.773  16.747  0.2649  0.8647 -0.5899
 5992TIP3    H139467   3.192   2.682  16.741  1.5874  0.3463  0.5747
 5992TIP3    H239468   3.174   2.808  16.822  1.4427  0.4760  0.3419
 5993TIP3   OH239469   2.260   3.587   3.830  0.5137  0.8377  0.0475
 5993TIP3    H139470   2.189   3.535   3.868  0.1947  1.5695  0.4762
 5993TIP3    H239471   2.340   3.545   3.862  0.2504  2.1135  2.5416
 5994TIP3   OH239472   0.169   3.270  11.196  0.0276  0.0490 -0.4507
 5994TIP3    H139473   0.160   3.240  11.105  0.3330 -1.9552  0.1701
 5994TIP3    H239474   0.248   3.325  11.195  1.1625 -1.5499 -1.0089
 5995TIP3   OH239475   3.717   2.354   0.602 -0.0657  0.5114 -0.3978
 5995TIP3    H139476   3.756   2.326   0.685 -0.5495  0.2412 -0.2531
 5995TIP3    H239477   3.685   2.442   0.620 -0.3067  0.3963 -0.2431
 5996TIP3   OH239478   2.778   0.435  17.002 -0.0288 -0.3945  0.4228
 5996TIP3    H139479   2.833   0.387  17.063 -0.0735  0.0328  0.8034
 5996TIP3    H239480   2.689   0.417  17.031 -0.0512 -0.2303  0.4590
 5997TIP3   OH239481   6.139   6.415   2.338  0.0485 -0.8989 -0.4348
 5997TIP3    H139482   6.188   6.467   2.401 -1.9546  0.0898  0.3592
 5997TIP3    H239483   6.190   6.421   2.257  0.8881  0.6658  0.1877
 5998TIP3   OH239484   4.306   2.622  12.819  0.2542 -0.0743  0.5467
 5998TIP3    H139485   4.325   2.716  12.818  1.8165 -0.3941 -0.7042
 5998TIP3    H239486   4.215   2.616  12.788 -0.5286  1.1507  2.5093
 5999TIP3   OH239487   4.549   0.880  16.303 -0.5233 -0.2117 -0.0721
 5999TIP3    H139488   4.554   0.920  16.216  2.4305 -1.1851 -0.4087
 5999TIP3    H239489   4.558   0.953  16.364  0.1333  0.1781 -0.6279
 6000TIP3   OH239490   3.643   5.681  16.141  0.1771 -0.2048 -0.5934
 6000TIP3    H139491   3.676   5.746  16.079  1.6005 -1.3144 -1.0325
 6000TIP3    H239492   3.665   5.597  16.102 -1.9627 -0.9816 -0.1988
 6001TIP3   OH239493   3.832   5.646  16.343 -0.1629 -0.3020  0.2557
 6001TIP3    H139494   3.890   5.723  16.345  0.9027 -0.9882 -2.2930
 6001TIP3    H239495   3.765   5.668  16.278 -2.0219 -0.0733  2.1988
 6002TIP3   OH239496   0.094   1.052  16.416  0.2909  0.1829 -0.6174
 6002TIP3    H139497   0.120   1.095  16.334  1.3044 -0.8024 -0.8214
 6002TIP3    H239498   0.018   0.998  16.391 -0.5664  1.3156 -0.5037
 6003TIP3   OH239499   2.784   3.661   4.187 -0.0913 -0.1287 -0.3593
 6003TIP3    H139500   2.870   3.654   4.145  0.2887  0.8745  0.2199
 6003TIP3    H239501   2.801   3.713   4.266 -1.8745  3.2385 -2.1082
 6004TIP3   OH239502   0.035   5.419   1.917 -0.0263  0.2627  0.0206
 6004TIP3    H139503   0.103   5.376   1.864  0.3362  0.4822  0.3059
 6004TIP3    H239504  -0.037   5.433   1.856  0.0992 -0.1718 -0.2315
 6005TIP3   OH239505   4.854   5.865   3.657  0.0102  0.4679  0.0066
 6005TIP3    H139506   4.945   5.881   3.633 -0.2506  0.0904 -1.2558
 6005TIP3    H239507   4.831   5.785   3.610 -0.0543 -1.1572  2.6981
 6006TIP3   OH239508   6.812   5.236   4.753 -0.1479  0.6656 -0.0981
 6006TIP3    H139509   6.757   5.314   4.759  0.3100  0.9798 -0.0483
 6006TIP3    H239510   6.844   5.236   4.662  0.3004  0.8321  0.0611
 6007TIP3   OH239511   4.319   2.231  12.757 -0.6548  0.1544  0.0551
 6007TIP3    H139512   4.365   2.152  12.786  0.0082  0.0948 -1.1183
 6007TIP3    H239513   4.379   2.303  12.779 -0.9912  0.2776  0.5694
 6008TIP3   OH239514   6.174   0.439   4.285  0.6372 -0.0230 -0.0814
 6008TIP3    H139515   6.231   0.514   4.268  0.3584  0.6119  1.7258
 6008TIP3    H239516   6.159   0.401   4.198 -1.2245  3.4818 -1.3995
 6009TIP3   OH239517   4.005   1.720   4.727 -0.4189 -0.5639 -0.9336
 6009TIP3    H139518   4.005   1.753   4.637 -2.3862 -4.0351 -2.3053
 6009TIP3    H239519   3.920   1.745   4.762 -1.0944 -2.2370 -1.2979
 6010TIP3   OH239520   2.601   0.911  13.553 -0.3191 -0.0990 -0.5893
 6010TIP3    H139521   2.694   0.902  13.531  0.2085  0.3371  1.4085
 6010TIP3    H239522   2.556   0.870  13.479  1.4403 -0.0469 -1.7345
 6011TIP3   OH239523   2.190   5.390  12.104 -0.0151 -0.0806  0.3705
 6011TIP3    H139524   2.273   5.410  12.147 -0.1080 -1.3879  1.1819
 6011TIP3    H239525   2.206   5.309  12.055 -0.9370 -0.6260  0.9510
 6012TIP3   OH239526   6.006   1.305   0.270 -0.5545  0.3310  0.3155
 6012TIP3    H139527   6.093   1.288   0.234  0.1965 -0.7124  2.5066
 6012TIP3    H239528   6.001   1.400   0.275  0.6631  0.3978  0.6046
 6013TIP3   OH239529   4.318   5.066   2.779  0.4900 -0.2603  0.5853
 6013TIP3    H139530   4.383   5.019   2.726  0.5782  1.0216 -0.4868
 6013TIP3    H239531   4.371   5.124   2.835  0.3222 -0.2056  0.6887
 6014TIP3   OH239532   1.030   5.702   3.178  1.3592  0.2900 -0.3228
 6014TIP3    H139533   1.042   5.677   3.270 -0.8639  1.8263  0.4207
 6014TIP3    H239534   1.049   5.621   3.129  1.0708 -0.9640  1.5796
 6015TIP3   OH239535   0.029   1.255  17.247 -0.4003  0.6262 -0.4843
 6015TIP3    H139536   0.120   1.228  17.234 -0.1285  1.8162 -1.1070
 6015TIP3    H239537  -0.022   1.193  17.195  0.1007  0.3506 -0.6522
 6016TIP3   OH239538   1.400   4.893   2.988 -0.3056 -0.0331  0.1053
 6016TIP3    H139539   1.377   4.897   2.895 -0.8185 -2.0538  0.1146
 6016TIP3    H239540   1.458   4.817   2.994 -1.5412 -0.8741  1.6842
 6017TIP3   OH239541   1.008   0.229  12.006 -0.3394  0.6181  0.2086
 6017TIP3    H139542   1.024   0.173  11.929  1.8238  0.5902  0.6406
 6017TIP3    H239543   0.919   0.207  12.033 -1.0468  0.4351 -2.1329
 6018TIP3   OH239544   5.750   6.489   5.883  0.2034 -0.5551  0.0587
 6018TIP3    H139545   5.830   6.479   5.933 -0.3050  1.1827  1.2652
 6018TIP3    H239546   5.729   6.401   5.853  0.3362 -1.7131  3.1856
 6019TIP3   OH239547   2.504   3.413  10.960  0.3783  0.5418  0.1241
 6019TIP3    H139548   2.559   3.482  10.998  0.0101  2.5852 -2.8573
 6019TIP3    H239549   2.556   3.379  10.887 -0.4501 -0.7138  0.1095
 6020TIP3   OH239550   1.385   1.061  17.166 -0.1623  0.0719  0.3022
 6020TIP3    H139551   1.307   1.095  17.209 -1.0251 -1.6259  0.1247
 6020TIP3    H239552   1.400   1.120  17.092 -0.0263  1.6457  1.5718
 6021TIP3   OH239553   2.345   1.209  15.946 -0.1807  0.4342  0.4136
 6021TIP3    H139554   2.323   1.298  15.971  2.2715  0.6906  1.8783
 6021TIP3    H239555   2.327   1.156  16.024  2.6348  0.4194  1.1302
 6022TIP3   OH239556   3.900   2.987   3.279  0.7247 -0.2182 -0.2131
 6022TIP3    H139557   3.817   3.035   3.289  1.2592  0.8135 -0.7370
 6022TIP3    H239558   3.924   2.962   3.368  0.8878  1.2396  0.1515
 6023TIP3   OH239559   1.759   5.822  12.080 -0.0852  0.2820 -0.2200
 6023TIP3    H139560   1.793   5.901  12.121 -0.1582  0.0264  0.3382
 6023TIP3    H239561   1.782   5.831  11.988 -1.3602  1.6371 -0.4411
 6024TIP3   OH239562   1.136   1.295   3.438 -0.1875 -0.7269  0.1742
 6024TIP3    H139563   1.141   1.205   3.470 -0.0375 -1.8208 -2.8558
 6024TIP3    H239564   1.195   1.298   3.363  0.9066  2.2866  1.0535
 6025TIP3   OH239565   1.077   1.192   0.790 -0.0444 -0.1384  0.1188
 6025TIP3    H139566   1.165   1.223   0.769  0.2311 -0.8677  0.1700
 6025TIP3    H239567   1.055   1.133   0.717  0.6751 -2.2054  1.5085
 6026TIP3   OH239568   2.990   0.148  13.439  0.1132 -0.3048  0.6438
 6026TIP3    H139569   3.076   0.117  13.467 -0.4673 -2.5756 -0.0297
 6026TIP3    H239570   3.000   0.243  13.432  2.0550 -0.3594  2.2940
 6027TIP3   OH239571   6.700   2.700   6.988 -0.1984  0.1568 -0.0077
 6027TIP3    H139572   6.731   2.677   7.075  0.1526  1.0815  0.1208
 6027TIP3    H239573   6.729   2.629   6.932 -0.8776 -0.6997  0.7173
 6028TIP3   OH239574   3.351   0.707   0.571 -0.3376  0.1562 -0.0408
 6028TIP3    H139575   3.390   0.655   0.501 -1.6689  0.9029 -1.3459
 6028TIP3    H239576   3.423   0.719   0.634  1.2248  0.5571 -1.8607
 6029TIP3   OH239577   3.849   4.334   6.390  0.0748  0.6651 -0.4208
 6029TIP3    H139578   3.912   4.271   6.425 -1.1075 -0.2601  0.0776
 6029TIP3    H239579   3.769   4.318   6.441 -0.3849  2.2282 -0.6386
 6030TIP3   OH239580   2.522   4.626  10.719 -0.1827 -0.2017 -0.1860
 6030TIP3    H139581   2.577   4.564  10.671  1.5546  0.4046  0.9597
 6030TIP3    H239582   2.498   4.692  10.654  0.6694 -0.3254 -0.6305
 6031TIP3   OH239583   0.274   4.462   4.257  0.1044  0.0632 -0.5470
 6031TIP3    H139584   0.257   4.369   4.246  1.5677 -0.1904 -0.7597
 6031TIP3    H239585   0.204   4.492   4.316  0.9877 -1.6699  1.4717
 6032TIP3   OH239586   2.446   1.761   1.556 -0.1135 -0.9743  0.0014
 6032TIP3    H139587   2.417   1.768   1.647 -0.3083 -1.7746  0.0013
 6032TIP3    H239588   2.370   1.730   1.508 -0.3083  0.3941 -0.6159
 6033TIP3   OH239589   0.556   5.865  16.639 -0.1594  0.1163 -0.3003
 6033TIP3    H139590   0.650   5.880  16.647  0.1295 -1.2162 -1.1909
 6033TIP3    H239591   0.536   5.885  16.548 -0.9434  1.3938  0.1303
 6034TIP3   OH239592   1.723   1.871   2.921  0.2016 -0.0135  0.6327
 6034TIP3    H139593   1.760   1.907   3.001  0.8489 -1.0270  0.7989
 6034TIP3    H239594   1.779   1.905   2.851  0.0228  0.3591  0.6731
 6035TIP3   OH239595   6.008   0.633   5.522  0.3087 -0.3364 -0.4409
 6035TIP3    H139596   6.086   0.626   5.576  0.2455 -0.3522 -0.3517
 6035TIP3    H239597   6.022   0.570   5.451  0.3002 -0.4628 -0.3307
 6036TIP3   OH239598   3.571   2.673  16.017 -0.5035 -0.7109  0.0342
 6036TIP3    H139599   3.632   2.718  16.075 -2.0302  0.5703  0.6785
 6036TIP3    H239600   3.627   2.624  15.957  1.0948 -1.9058  2.4281
 6037TIP3   OH239601   5.322   3.669  10.382  0.4190  0.7454  0.1421
 6037TIP3    H139602   5.319   3.763  10.362  0.9228 -0.2514 -5.3394
 6037TIP3    H239603   5.232   3.646  10.403 -0.2374  1.9206 -1.3244
 6038TIP3   OH239604   2.662   6.402  11.586  0.3776  0.2692  0.2171
 6038TIP3    H139605   2.591   6.466  11.582  0.8356  0.7332 -0.7344
 6038TIP3    H239606   2.733   6.441  11.533  0.3564 -1.3828 -1.0739
 6039TIP3   OH239607   3.950   5.038   3.173 -0.1313  0.1206 -0.5127
 6039TIP3    H139608   3.860   5.021   3.145  0.0504  1.1536 -1.7561
 6039TIP3    H239609   3.941   5.104   3.242 -0.3779 -0.3091 -0.1319
 6040TIP3   OH239610   3.246   6.255   2.408 -0.5202 -0.1345 -0.0103
 6040TIP3    H139611   3.319   6.310   2.383 -2.0060  0.8645 -2.3062
 6040TIP3    H239612   3.263   6.171   2.365 -1.6736  0.7131 -2.1898
 6041TIP3   OH239613   4.135   6.297   4.818 -0.2186 -0.1207  0.0563
 6041TIP3    H139614   4.212   6.250   4.786 -0.9228 -0.8832 -0.5256
 6041TIP3    H239615   4.090   6.326   4.739 -0.5168  0.3566  0.3972
 6042TIP3   OH239616   6.153   4.205   2.786  0.1127 -0.1638  0.5954
 6042TIP3    H139617   6.152   4.126   2.731 -0.0341  0.5338 -0.4199
 6042TIP3    H239618   6.118   4.177   2.870  0.2847 -1.2402  0.3119
 6043TIP3   OH239619   5.041   5.841   1.702  0.1406  0.1159  0.2725
 6043TIP3    H139620   5.023   5.774   1.636  3.0655 -0.5073  0.0428
 6043TIP3    H239621   5.120   5.884   1.671  1.6339 -0.2555  3.3945
 6044TIP3   OH239622   1.420   4.344   4.345  0.0974 -0.5009 -0.3102
 6044TIP3    H139623   1.496   4.400   4.359 -0.3815  0.2034 -0.4771
 6044TIP3    H239624   1.388   4.324   4.433 -0.1193  0.0258 -0.2716
 6045TIP3   OH239625   4.667   2.212   1.886 -0.8725 -0.5044 -0.1464
 6045TIP3    H139626   4.583   2.256   1.898 -0.0359  1.1693 -0.3898
 6045TIP3    H239627   4.727   2.255   1.946  0.2929 -0.3535 -1.3802
 6046TIP3   OH239628   4.108   3.790   2.884  0.2202 -0.0171  0.1903
 6046TIP3    H139629   4.170   3.756   2.819 -1.0010 -0.5441 -0.7088
 6046TIP3    H239630   4.127   3.739   2.963  0.9684 -0.1455 -0.0640
 6047TIP3   OH239631   4.531   0.983   1.579  0.5354 -0.1040 -0.5311
 6047TIP3    H139632   4.526   0.961   1.486  2.2944  1.8964 -1.1397
 6047TIP3    H239633   4.608   1.040   1.586 -1.2562  2.1878  1.6320
 6048TIP3   OH239634   1.235   4.076   3.853 -0.0082 -0.2118  0.0249
 6048TIP3    H139635   1.174   4.119   3.913  0.8351  1.1303 -0.0451
 6048TIP3    H239636   1.270   4.002   3.902  1.7793  1.7265  1.7757
 6049TIP3   OH239637   3.485   3.952   1.029  0.0309 -0.1840  0.1902
 6049TIP3    H139638   3.515   3.894   1.100  0.6179 -1.1216 -0.8119
 6049TIP3    H239639   3.396   3.977   1.055  0.5449  0.1513  1.6717
 6050TIP3   OH239640   2.233   0.672  14.245  0.1711  0.3496  0.7481
 6050TIP3    H139641   2.270   0.752  14.206 -1.5897  0.0449 -1.6292
 6050TIP3    H239642   2.139   0.683  14.237 -0.0727 -2.6243 -1.0148
 6051TIP3   OH239643   0.510   4.077   0.281  0.0076  0.3236 -0.2449
 6051TIP3    H139644   0.484   4.016   0.212 -1.3259  0.3829  0.1896
 6051TIP3    H239645   0.492   4.030   0.362 -0.3502  1.0144  0.0796
 6052TIP3   OH239646   0.819   2.513  14.989 -0.5994  0.2848 -0.1074
 6052TIP3    H139647   0.788   2.602  14.972  0.9798  1.3576  2.3243
 6052TIP3    H239648   0.776   2.487  15.070 -1.2084 -1.2545 -0.9153
 6053TIP3   OH239649   5.434   3.008  13.389 -0.5483 -0.4564 -0.4200
 6053TIP3    H139650   5.383   2.928  13.391  1.2568 -1.6279  0.1036
 6053TIP3    H239651   5.379   3.073  13.433 -2.1908 -1.2942 -1.2042
 6054TIP3   OH239652   2.742   6.760  11.053 -0.5878  0.2080 -0.2018
 6054TIP3    H139653   2.766   6.848  11.024 -0.2595  0.3737  0.5634
 6054TIP3    H239654   2.657   6.744  11.013  0.1591  0.1678 -1.7863
 6055TIP3   OH239655   5.556   2.179   2.660 -0.4087  0.3808 -0.1684
 6055TIP3    H139656   5.612   2.131   2.720  2.0661  1.0921 -1.7932
 6055TIP3    H239657   5.518   2.249   2.713  0.1509 -0.1867  0.9927
 6056TIP3   OH239658   2.932   1.353   6.348  0.1368 -0.4031 -0.3331
 6056TIP3    H139659   2.952   1.259   6.343 -2.0967 -1.0089  1.1867
 6056TIP3    H239660   2.893   1.364   6.435 -1.0142  1.6582 -1.0927
 6057TIP3   OH239661   1.059   6.411   3.625 -0.1648 -0.1298  0.3891
 6057TIP3    H139662   1.017   6.412   3.538  0.7224  0.1284 -0.0396
 6057TIP3    H239663   0.993   6.371   3.682 -1.3620  1.0760 -0.1009
 6058TIP3   OH239664   0.877   4.297  16.871  0.0599 -0.5579 -0.0267
 6058TIP3    H139665   0.959   4.332  16.907 -0.1867  0.9420 -0.9037
 6058TIP3    H239666   0.809   4.331  16.928 -0.1523  0.1615 -0.6996
 6059TIP3   OH239667   3.895   5.471  13.456 -0.2766  0.1091 -0.3089
 6059TIP3    H139668   3.941   5.388  13.469  1.4545  1.2778  1.3296
 6059TIP3    H239669   3.804   5.447  13.443 -0.0639 -1.9571  1.8500
 6060TIP3   OH239670   2.201   4.246   1.734  0.3123 -0.6952 -0.1417
 6060TIP3    H139671   2.284   4.293   1.735  0.1362 -0.3895  0.4484
 6060TIP3    H239672   2.199   4.200   1.818 -0.5198  0.0099  0.2317
 6061TIP3   OH239673   3.954   0.661  12.617 -0.4263 -0.0751 -0.1413
 6061TIP3    H139674   3.875   0.622  12.653 -1.2589 -0.7522 -2.6075
 6061TIP3    H239675   4.009   0.680  12.694 -2.5163 -0.5619  1.5041
 6062TIP3   OH239676   6.649   2.540   4.313  0.6159  0.0506  0.1690
 6062TIP3    H139677   6.589   2.578   4.378  0.0066  0.8836 -0.8549
 6062TIP3    H239678   6.607   2.559   4.229  2.2727  0.5422 -0.5538
 6063TIP3   OH239679   3.917   6.634  11.003  0.6164 -0.5071 -0.2948
 6063TIP3    H139680   3.987   6.570  11.008  0.6208 -0.5143 -0.4439
 6063TIP3    H239681   3.961   6.717  10.986  0.4258 -0.9218 -3.1562
 6064TIP3   OH239682   1.430   0.567   3.723  0.5672  0.3493  0.1596
 6064TIP3    H139683   1.401   0.490   3.771  0.4083  0.4571  0.2379
 6064TIP3    H239684   1.407   0.549   3.632  2.5968 -0.6817 -0.1740
 6065TIP3   OH239685   0.976   0.593   2.514 -0.4009 -0.2587  0.0157
 6065TIP3    H139686   0.982   0.503   2.481 -2.5217  0.2703 -1.9741
 6065TIP3    H239687   0.917   0.586   2.590  1.4105 -0.8774  1.4223
 6066TIP3   OH239688   4.355   1.464   4.393  0.1976 -0.0954  0.2972
 6066TIP3    H139689   4.282   1.483   4.333  0.3797  1.1910  0.4555
 6066TIP3    H239690   4.409   1.543   4.390  0.2875 -0.0723  2.0614
 6067TIP3   OH239691   6.523   3.367   3.173  0.6397 -0.4466  0.1901
 6067TIP3    H139692   6.566   3.374   3.258  0.1002 -1.7256  0.5949
 6067TIP3    H239693   6.452   3.304   3.188 -1.2738  1.4875 -0.4932
 6068TIP3   OH239694   6.288   6.615  15.648  0.3066  0.3585  1.1161
 6068TIP3    H139695   6.347   6.689  15.662  0.7838  0.2361 -0.2458
 6068TIP3    H239696   6.256   6.594  15.736  2.0658  0.6070  1.8434
 6069TIP3   OH239697   1.408   6.818   5.907 -0.2245  0.8965  0.1649
 6069TIP3    H139698   1.502   6.814   5.924 -0.6207  0.3049  2.3827
 6069TIP3    H239699   1.368   6.781   5.986 -2.2087 -3.2479 -2.6148
 6070TIP3   OH239700   4.929   3.402   1.770  0.6224  0.3742 -0.2566
 6070TIP3    H139701   4.877   3.476   1.739  1.2939  0.5441 -0.9933
 6070TIP3    H239702   4.971   3.434   1.850 -0.7792  0.0756  0.6054
 6071TIP3   OH239703   5.246   3.523  17.256  0.2391  0.5566  0.5965
 6071TIP3    H139704   5.229   3.568  17.173  0.7569 -0.3152  0.0187
 6071TIP3    H239705   5.199   3.575  17.321 -0.9377  0.7204 -0.3721
 6072TIP3   OH239706   6.534   3.257  11.864  0.0162  0.2962  0.6682
 6072TIP3    H139707   6.603   3.268  11.929  0.9292  0.0841 -0.2575
 6072TIP3    H239708   6.496   3.172  11.884  1.3980 -0.5203 -0.0914
 6073TIP3   OH239709   0.310   6.619   2.730 -0.3289 -0.5775  0.4251
 6073TIP3    H139710   0.248   6.548   2.751 -0.1290 -0.3856  1.7327
 6073TIP3    H239711   0.357   6.634   2.812 -0.9145  1.6219  0.3881
 6074TIP3   OH239712   5.222   4.244  15.292 -0.6289 -0.3142  0.1387
 6074TIP3    H139713   5.142   4.197  15.269 -1.9448  0.7968  2.2216
 6074TIP3    H239714   5.210   4.267  15.384  1.8168  0.4490  0.2999
 6075TIP3   OH239715   2.318   3.104  12.384  0.4032 -0.7108  0.0179
 6075TIP3    H139716   2.359   3.166  12.445 -0.5938 -0.6271  0.6108
 6075TIP3    H239717   2.226   3.128  12.384  0.2532 -1.2716 -0.8691
 6076TIP3   OH239718   0.643   5.020   3.526 -0.7091  0.3772  0.6743
 6076TIP3    H139719   0.639   5.107   3.564 -0.2783  0.5923  0.2412
 6076TIP3    H239720   0.699   4.970   3.587  0.7035  0.9599 -0.1079
 6077TIP3   OH239721   6.474   6.525   5.663  0.2711  0.1432  0.0978
 6077TIP3    H139722   6.463   6.610   5.705 -0.1101  0.6667 -1.0326
 6077TIP3    H239723   6.552   6.488   5.704  0.8290  1.3311  0.1332
 6078TIP3   OH239724   1.943   1.774   0.182  0.2881  0.2244 -0.3872
 6078TIP3    H139725   2.031   1.803   0.205  0.5423 -1.0054  0.2188
 6078TIP3    H239726   1.951   1.746   0.090  0.6303 -0.2789 -0.2069
 6079TIP3   OH239727   4.299   0.558  11.548 -0.6512 -0.4085  0.8232
 6079TIP3    H139728   4.289   0.653  11.559  0.5372 -0.1353 -0.3127
 6079TIP3    H239729   4.215   0.529  11.512  0.7684  1.0747 -4.0075
 6080TIP3   OH239730   5.581   0.506  16.090 -0.6270 -0.2952  0.3720
 6080TIP3    H139731   5.554   0.571  16.025  0.6442 -1.3429 -1.2170
 6080TIP3    H239732   5.652   0.548  16.138  1.9533 -1.4365 -2.3621
 6081TIP3   OH239733   1.278   1.182   2.450 -0.3950  0.2748  0.3510
 6081TIP3    H139734   1.324   1.232   2.383 -0.2229  0.6290  0.7249
 6081TIP3    H239735   1.347   1.152   2.509 -0.2790 -2.1551 -0.9876
 6082TIP3   OH239736   2.768   6.336  14.927  0.2227  0.0061  0.0973
 6082TIP3    H139737   2.800   6.261  14.876  1.1671  0.6172 -0.2295
 6082TIP3    H239738   2.695   6.371  14.876 -1.5522 -1.9071  1.2573
 6083TIP3   OH239739   1.808   6.165   4.506 -0.0764 -0.3300 -0.1036
 6083TIP3    H139740   1.890   6.206   4.532  0.7370 -2.9402  1.7201
 6083TIP3    H239741   1.813   6.158   4.411  1.1822  0.8003 -0.1317
 6084TIP3   OH239742   4.483   0.332   1.939 -0.1138 -0.7161 -0.1032
 6084TIP3    H139743   4.553   0.319   2.002  1.5098 -0.8881 -1.8845
 6084TIP3    H239744   4.509   0.410   1.890 -2.5189  0.7962  0.9362
 6085TIP3   OH239745   3.219   5.067  14.186 -0.4718 -0.4164  0.2924
 6085TIP3    H139746   3.135   5.083  14.143  0.0692  0.7567 -0.3346
 6085TIP3    H239747   3.279   5.130  14.147  0.7247 -1.2725  0.7050
 6086TIP3   OH239748   1.949   0.322  16.521 -0.4957  0.1942 -0.0365
 6086TIP3    H139749   1.916   0.317  16.611 -3.1723  0.3377 -0.9729
 6086TIP3    H239750   1.976   0.232  16.501 -1.5783 -0.2239  0.3198
 6087TIP3   OH239751   3.664   1.927  13.739  0.5557  0.0483  0.9742
 6087TIP3    H139752   3.613   1.983  13.798  0.6997  0.3573  0.8060
 6087TIP3    H239753   3.753   1.932  13.772  0.8007  0.9336  0.2044
 6088TIP3   OH239754   5.996   2.290   1.353  0.3108 -0.1453  0.1372
 6088TIP3    H139755   6.066   2.301   1.417  1.5666  2.7653 -1.6413
 6088TIP3    H239756   6.016   2.207   1.310  2.6346  0.5733 -0.2395
 6089TIP3   OH239757   2.521   2.901   4.776  0.4725 -0.0164  0.0923
 6089TIP3    H139758   2.440   2.853   4.761  0.4766  0.1857 -0.6142
 6089TIP3    H239759   2.509   2.983   4.729  1.0136  0.0919  0.1407
 6090TIP3   OH239760   1.373   1.994  16.903  0.3807 -0.2503 -0.0042
 6090TIP3    H139761   1.414   2.079  16.883  1.1836 -0.3167  1.3230
 6090TIP3    H239762   1.406   1.935  16.836 -0.3372  0.5202 -1.0586
 6091TIP3   OH239763   2.501   2.098   5.193 -0.6352 -0.1172 -0.4962
 6091TIP3    H139764   2.494   2.171   5.254 -1.3331  0.4549 -1.2391
 6091TIP3    H239765   2.411   2.081   5.165 -0.3522 -0.4842 -1.2194
 6092TIP3   OH239766   0.606   3.132  13.069  0.8692 -0.4460 -0.2282
 6092TIP3    H139767   0.639   3.204  13.017 -0.5340 -0.4397 -1.1271
 6092TIP3    H239768   0.614   3.162  13.160  0.4945  0.7628 -0.5831
 6093TIP3   OH239769   4.014   5.835   0.101 -0.7038 -0.0616  1.0094
 6093TIP3    H139770   3.973   5.752   0.128 -3.1305  1.6450  2.7119
 6093TIP3    H239771   4.076   5.855   0.172  1.9451 -1.7431 -0.7235
 6094TIP3   OH239772   4.094   2.210  16.256  0.1369  0.1596  0.0148
 6094TIP3    H139773   4.162   2.265  16.219 -1.1902  1.9137  0.1123
 6094TIP3    H239774   4.140   2.148  16.312  1.7776  0.1792 -1.2887
 6095TIP3   OH239775   2.469   2.572   0.262 -0.1679 -0.2190 -0.0700
 6095TIP3    H139776   2.376   2.594   0.275  0.0280  0.3081  0.4397
 6095TIP3    H239777   2.481   2.490   0.309 -0.4973 -0.5544 -0.5652
 6096TIP3   OH239778   1.619   6.632   1.586 -0.1564 -0.6276 -0.4718
 6096TIP3    H139779   1.641   6.716   1.627 -0.3643 -1.0215  0.4650
 6096TIP3    H239780   1.684   6.622   1.516  0.5170 -0.1729  0.0764
 6097TIP3   OH239781   5.235   2.276   0.566 -0.2166  0.2675  0.4256
 6097TIP3    H139782   5.196   2.326   0.638 -0.7423 -1.1141  1.1338
 6097TIP3    H239783   5.164   2.219   0.536 -0.2639  1.4412 -1.7953
 6098TIP3   OH239784   5.041   4.077  10.901 -0.2526 -0.1883  0.1223
 6098TIP3    H139785   5.027   4.171  10.911  0.9270 -0.0986  1.0254
 6098TIP3    H239786   5.007   4.038  10.981  0.4871 -0.3925  0.3446
 6099TIP3   OH239787   2.302   4.818   6.509  0.1058 -0.8343 -0.4877
 6099TIP3    H139788   2.283   4.725   6.522 -0.2569 -1.0141 -2.1081
 6099TIP3    H239789   2.239   4.845   6.442  1.1674  0.2196 -1.0748
 6100TIP3   OH239790   6.364   3.443   4.251  0.1524  0.4218 -0.7387
 6100TIP3    H139791   6.397   3.353   4.253 -1.7691 -0.2797  1.8567
 6100TIP3    H239792   6.281   3.436   4.203 -0.2193  0.7479 -0.1337
 6101TIP3   OH239793   3.867   2.464   3.685  0.2875 -0.1980 -0.0542
 6101TIP3    H139794   3.889   2.372   3.703  1.2844  0.0354 -0.0255
 6101TIP3    H239795   3.791   2.459   3.627  0.1315 -1.0385  0.2116
 6102TIP3   OH239796   6.190   1.812  15.432 -0.2853 -0.0524  0.2242
 6102TIP3    H139797   6.215   1.720  15.441  3.0330  0.4834 -2.4712
 6102TIP3    H239798   6.116   1.811  15.371  0.6327 -0.8426 -0.8942
 6103TIP3   OH239799   3.705   0.892  13.772 -0.5312 -0.0096  0.5683
 6103TIP3    H139800   3.657   0.974  13.782 -0.4895  0.1217 -0.2764
 6103TIP3    H239801   3.644   0.824  13.802 -0.9665  0.2302  0.2318
 6104TIP3   OH239802   2.121   6.607   0.585 -0.7231 -0.3902  0.0396
 6104TIP3    H139803   2.051   6.611   0.521 -0.4314  0.4622 -0.2340
 6104TIP3    H239804   2.160   6.520   0.574 -1.6515 -0.8150  0.1122
 6105TIP3   OH239805   0.475   4.231   6.627 -0.3954 -0.5434  0.2888
 6105TIP3    H139806   0.533   4.176   6.681 -0.0635 -0.3985  0.0851
 6105TIP3    H239807   0.518   4.233   6.542  0.2351  1.0444  0.6355
 6106TIP3   OH239808   6.607   4.443   0.617  0.5032 -0.3681  0.0939
 6106TIP3    H139809   6.680   4.412   0.563  1.1540  1.4748 -0.0993
 6106TIP3    H239810   6.529   4.411   0.572  1.1350 -1.1392 -0.4712
 6107TIP3   OH239811   1.817   6.315  12.083 -0.1891 -0.0330 -0.5646
 6107TIP3    H139812   1.746   6.359  12.131 -0.4128  0.3415 -1.2402
 6107TIP3    H239813   1.772   6.258  12.021  0.1067 -0.1982 -0.6281
 6108TIP3   OH239814   1.628   2.780   2.835 -0.2490 -0.1423  0.2367
 6108TIP3    H139815   1.572   2.759   2.910  0.3036  1.5170  1.1487
 6108TIP3    H239816   1.599   2.868   2.808  0.9712  0.1547 -0.1497
 6109TIP3   OH239817   0.055   1.836   0.191 -0.2413 -0.1191  0.4249
 6109TIP3    H139818   0.013   1.803   0.112  0.3882  0.4362 -0.1567
 6109TIP3    H239819   0.144   1.801   0.187 -0.1387  0.0989  0.7651
 6110TIP3   OH239820   1.859   0.115   1.379 -0.5927 -0.0117  0.1521
 6110TIP3    H139821   1.768   0.143   1.390 -0.6807  0.3146 -1.3078
 6110TIP3    H239822   1.852   0.026   1.343 -0.3267 -0.3763  0.9875
 6111TIP3   OH239823   0.622   0.255  13.433  0.0383 -0.0748  0.1822
 6111TIP3    H139824   0.559   0.244  13.503  0.4152  0.1045  0.5483
 6111TIP3    H239825   0.590   0.330  13.382 -0.8614 -0.9148 -0.5181
 6112TIP3   OH239826   3.477   4.690   3.635 -0.5642  0.2258  0.2650
 6112TIP3    H139827   3.399   4.729   3.596 -0.9090  0.0947  0.8218
 6112TIP3    H239828   3.466   4.596   3.623 -1.1129  0.1200  1.4809
 6113TIP3   OH239829   0.710   3.399   1.331 -0.7791  0.1179 -0.0002
 6113TIP3    H139830   0.797   3.414   1.295 -0.6625 -0.5831 -0.0022
 6113TIP3    H239831   0.700   3.467   1.398 -0.4935  0.6082 -0.4455
 6114TIP3   OH239832   6.180   5.192   3.711  0.3919  0.5521 -0.5712
 6114TIP3    H139833   6.124   5.207   3.787  2.1746 -0.3234  0.9506
 6114TIP3    H239834   6.130   5.132   3.656  0.0451 -0.6526  1.0188
 6115TIP3   OH239835   5.470   0.507  12.073  0.1918  0.5469 -0.4442
 6115TIP3    H139836   5.461   0.603  12.070 -1.9363  0.4474  1.6494
 6115TIP3    H239837   5.391   0.477  12.117  1.5364 -2.0798  0.2452
 6116TIP3   OH239838   6.818   2.142   3.888 -0.1327  0.1524  0.1752
 6116TIP3    H139839   6.795   2.070   3.829  0.0417 -0.1896  0.5165
 6116TIP3    H239840   6.800   2.107   3.976 -0.3860  0.6530  0.3254
 6117TIP3   OH239841   5.654   5.158  11.990  0.4484  0.0411  0.2663
 6117TIP3    H139842   5.746   5.140  11.971  0.7860  2.2799 -0.3270
 6117TIP3    H239843   5.654   5.193  12.079 -0.3636 -3.9350  1.9548
 6118TIP3   OH239844   0.932   5.721   0.792 -0.5727 -0.5137 -0.1947
 6118TIP3    H139845   0.860   5.767   0.835 -1.0702 -2.0622  0.6473
 6118TIP3    H239846   0.942   5.766   0.708 -0.4882  1.6804  0.9299
 6119TIP3   OH239847   1.858   5.787   1.747 -0.0810  0.3429 -0.1687
 6119TIP3    H139848   1.909   5.706   1.760 -0.5912  0.2592  1.4380
 6119TIP3    H239849   1.768   5.757   1.741 -0.3093  0.8240  0.8342
 6120TIP3   OH239850   1.301   0.307  15.055 -0.0133  0.1696  0.3174
 6120TIP3    H139851   1.342   0.393  15.067 -0.0936  0.3001 -0.3133
 6120TIP3    H239852   1.287   0.301  14.960 -2.2551  0.5129  0.6042
 6121TIP3   OH239853   4.116   5.254   1.813 -0.3345 -0.2294  0.2677
 6121TIP3    H139854   4.088   5.310   1.886  0.1544  0.2871  0.0576
 6121TIP3    H239855   4.072   5.291   1.736 -0.4949 -0.5060  0.2222
 6122TIP3   OH239856   1.514   2.632   1.920 -0.1874  0.0903 -0.0265
 6122TIP3    H139857   1.490   2.555   1.869 -0.3676  1.2106 -1.6737
 6122TIP3    H239858   1.514   2.602   2.011 -0.9705 -1.6548 -0.5886
 6123TIP3   OH239859   4.124   4.318   1.900 -0.6338  0.0205  0.0648
 6123TIP3    H139860   4.154   4.246   1.845  0.0403 -0.3916  0.9617
 6123TIP3    H239861   4.203   4.371   1.915 -1.1141  0.9178 -0.5498
 6124TIP3   OH239862   4.852   2.320   0.340  0.2472 -0.4516 -0.1171
 6124TIP3    H139863   4.836   2.409   0.308 -0.2154 -0.9228 -1.2306
 6124TIP3    H239864   4.782   2.268   0.301  0.2327 -1.2278  0.9138
 6125TIP3   OH239865   3.888   5.154   3.399 -0.5411  0.8460  0.3333
 6125TIP3    H139866   3.801   5.192   3.417 -0.2993  0.7133  1.8401
 6125TIP3    H239867   3.934   5.160   3.483  0.7807  0.5655 -0.3678
 6126TIP3   OH239868   3.848   0.921   2.887 -0.0628  0.6321  0.1194
 6126TIP3    H139869   3.799   0.891   2.964 -2.4209 -0.1494 -1.6623
 6126TIP3    H239870   3.938   0.930   2.919 -0.7877 -0.7628  2.6883
 6127TIP3   OH239871   2.899   1.326   0.251  0.0530 -0.1137  0.5631
 6127TIP3    H139872   2.804   1.343   0.247  0.4597  2.1305 -0.0344
 6127TIP3    H239873   2.933   1.393   0.309  1.2951 -0.9900  0.8687
 6128TIP3   OH239874   4.921   5.434   0.905  0.2896 -0.0712 -0.0632
 6128TIP3    H139875   5.016   5.420   0.900  0.2418 -0.5178  0.2900
 6128TIP3    H239876   4.912   5.526   0.929  0.6291  0.0330 -0.3252
 6129TIP3   OH239877   6.462   4.895  14.223  0.5225  0.0970 -0.4543
 6129TIP3    H139878   6.417   4.863  14.145  0.6632 -0.6424 -0.2352
 6129TIP3    H239879   6.443   4.989  14.225 -2.2626 -0.4303  0.4409
 6130TIP3   OH239880   6.554   1.079  11.824  0.3355 -0.0278  0.2575
 6130TIP3    H139881   6.555   1.049  11.733 -0.2098  0.4406  0.0959
 6130TIP3    H239882   6.597   1.164  11.822 -1.9162  1.1316  0.0236
 6131TIP3   OH239883   4.873   4.827  14.705  0.7850 -0.2287 -0.3061
 6131TIP3    H139884   4.958   4.832  14.750  1.8062 -1.3345 -2.0870
 6131TIP3    H239885   4.894   4.835  14.612 -0.9045 -2.0546 -0.8766
 6132TIP3   OH239886   3.726   5.696  13.432 -0.1828  0.0742 -0.2246
 6132TIP3    H139887   3.680   5.757  13.374 -0.8706 -0.5443 -0.3418
 6132TIP3    H239888   3.677   5.614  13.424  0.7938 -0.5249 -0.1548
 6133TIP3   OH239889   3.715   2.840  16.205 -0.3649 -0.3723 -0.3529
 6133TIP3    H139890   3.628   2.874  16.227 -0.1884 -1.1050  1.5835
 6133TIP3    H239891   3.755   2.819  16.290  1.5423 -0.4467 -1.2436
 6134TIP3   OH239892   2.318   0.681   4.474 -0.3386  0.2720 -0.0695
 6134TIP3    H139893   2.348   0.625   4.403 -0.1896 -0.1064  0.2897
 6134TIP3    H239894   2.226   0.700   4.453  0.5198  2.6495 -1.9606
 6135TIP3   OH239895   0.305   3.227   6.180  0.1632  0.3660 -0.6050
 6135TIP3    H139896   0.264   3.313   6.186 -0.7240  0.0463 -1.9071
 6135TIP3    H239897   0.261   3.174   6.247  0.3657  0.7771 -0.1428
 6136TIP3   OH239898   4.849   2.017  16.558 -0.5649 -0.5773  0.0340
 6136TIP3    H139899   4.852   2.002  16.653  0.4383 -2.0464 -0.2133
 6136TIP3    H239900   4.936   1.993  16.528 -0.4777  1.0890 -1.1106
 6137TIP3   OH239901   0.707   5.474   5.427 -0.3195 -0.5626  0.1937
 6137TIP3    H139902   0.780   5.438   5.377  0.3730 -0.6930  1.2702
 6137TIP3    H239903   0.686   5.406   5.491 -0.5595 -0.0258  0.6959
 6138TIP3   OH239904   2.812   3.355  15.480  0.7988  0.1150 -0.5391
 6138TIP3    H139905   2.885   3.414  15.500  0.4899  0.0630  0.8149
 6138TIP3    H239906   2.738   3.413  15.463  1.4036  0.1951 -3.0044
 6139TIP3   OH239907   4.195   0.883  10.626 -0.0260  0.0826  0.0198
 6139TIP3    H139908   4.246   0.807  10.654 -0.0367 -0.1778 -0.6630
 6139TIP3    H239909   4.106   0.864  10.655 -0.3383 -0.8819 -1.4951
 6140TIP3   OH239910   1.900   5.047  13.892 -0.0737 -0.1977 -0.3728
 6140TIP3    H139911   1.910   5.124  13.949  1.1002 -0.5188 -0.1286
 6140TIP3    H239912   1.895   5.084  13.804  0.1065  0.1877 -0.2264
 6141TIP3   OH239913   1.314   6.629   2.810 -0.3329  0.1046  0.2815
 6141TIP3    H139914   1.274   6.712   2.834  0.9770  0.8088  0.0836
 6141TIP3    H239915   1.408   6.648   2.805  0.3975 -2.1463  3.5879
 6142TIP3   OH239916   2.624   6.027  11.644 -0.1436  0.2588  0.1881
 6142TIP3    H139917   2.654   6.001  11.731 -2.5470  0.2502  1.0486
 6142TIP3    H239918   2.560   5.960  11.620 -0.8713  1.2989 -0.7808
 6143TIP3   OH239919   2.099   3.091   4.507  0.2255  0.1422  0.0639
 6143TIP3    H139920   2.090   3.153   4.579 -0.0015  0.4057 -0.1906
 6143TIP3    H239921   2.048   3.014   4.535 -0.4777  0.5289 -0.1330
 6144TIP3   OH239922   3.029   4.001  15.463  0.3647 -0.1342 -0.0566
 6144TIP3    H139923   3.047   3.931  15.401  1.4086  0.2461 -0.1997
 6144TIP3    H239924   2.962   4.054  15.421 -1.3496 -1.7547  0.6078
 6145TIP3   OH239925   1.872   0.898  12.171 -0.8023  0.7441 -0.0952
 6145TIP3    H139926   1.935   0.837  12.132 -0.0153 -0.0786  2.3340
 6145TIP3    H239927   1.923   0.946  12.236 -2.1635  1.7895  0.2239
 6146TIP3   OH239928   0.486   5.061   3.290  0.0419  0.4763 -0.7266
 6146TIP3    H139929   0.540   5.047   3.368  0.3070 -1.2769 -1.2052
 6146TIP3    H239930   0.492   5.155   3.274 -0.1883  0.9096  1.4858
 6147TIP3   OH239931   0.644   4.231   2.401 -0.2968 -0.0114  0.0956
 6147TIP3    H139932   0.577   4.267   2.459 -0.5291  1.4271 -1.0343
 6147TIP3    H239933   0.612   4.144   2.379 -1.8455  0.6895 -0.4922
 6148TIP3   OH239934   0.443   6.798  13.124  0.1158  0.2788  0.2042
 6148TIP3    H139935   0.506   6.806  13.196 -2.4375  2.8462  2.2832
 6148TIP3    H239936   0.447   6.882  13.079 -2.8224  1.0860  1.3165
 6149TIP3   OH239937   1.262   5.049   5.447  0.6416 -0.1267 -0.0375
 6149TIP3    H139938   1.313   5.091   5.378 -0.7644 -0.4899 -1.3224
 6149TIP3    H239939   1.204   5.117   5.479  1.3279  0.0565  0.8548
 6150TIP3   OH239940   0.937   6.732   5.403 -0.8367 -0.2065 -0.1584
 6150TIP3    H139941   0.900   6.658   5.452  0.9811 -1.5242 -0.7470
 6150TIP3    H239942   0.907   6.717   5.313 -1.6656  0.5684 -0.0132
 6151TIP3   OH239943   1.385   6.153   0.274 -0.0632  0.1695  0.2615
 6151TIP3    H139944   1.430   6.069   0.263  2.0644  1.1373  1.2718
 6151TIP3    H239945   1.417   6.186   0.358  0.8493  3.0076 -1.1192
 6152TIP3   OH239946   0.365   3.327  12.525  0.6604  0.2578 -0.2265
 6152TIP3    H139947   0.440   3.283  12.566  1.8113 -0.5833 -3.1299
 6152TIP3    H239948   0.291   3.302  12.580  2.1913 -0.4750  1.5935
 6153TIP3   OH239949   3.540   0.808  15.728 -0.3441  0.0733 -0.1305
 6153TIP3    H139950   3.449   0.835  15.737 -0.2966 -0.4539  2.1783
 6153TIP3    H239951   3.591   0.887  15.745 -0.3395  0.2351 -0.8603
 6154TIP3   OH239952   5.430   1.537  11.670 -0.1972 -0.3280 -0.2637
 6154TIP3    H139953   5.451   1.450  11.636  0.5929  0.2671 -1.3424
 6154TIP3    H239954   5.407   1.588  11.592 -0.8866  0.3693  0.3858
 6155TIP3   OH239955   0.178   1.103  15.195  0.2329  0.1022 -0.3965
 6155TIP3    H139956   0.135   1.176  15.240  0.3026 -1.1040  1.6865
 6155TIP3    H239957   0.108   1.040  15.179  0.9102 -1.2676  1.7724
 6156TIP3   OH239958   5.219   1.586   1.349  0.4839  0.2288 -0.1447
 6156TIP3    H139959   5.300   1.538   1.364  0.6992  0.0174 -1.8210
 6156TIP3    H239960   5.172   1.581   1.432  1.8453 -0.2975  0.6135
 6157TIP3   OH239961   5.322   6.360  13.322  0.4070  0.3133 -1.0668
 6157TIP3    H139962   5.370   6.334  13.244  0.7059  2.1172 -1.5145
 6157TIP3    H239963   5.234   6.380  13.290  0.6730  1.5573 -1.0369
 6158TIP3   OH239964   6.580   3.532   1.951 -0.0161  0.3897 -0.5350
 6158TIP3    H139965   6.521   3.528   1.876  1.1894 -1.1432 -1.4454
 6158TIP3    H239966   6.623   3.447   1.952  0.4065  0.5962  1.5750
 6159TIP3   OH239967   5.756   2.350   1.851  0.2956  0.3469  0.4114
 6159TIP3    H139968   5.795   2.434   1.872 -1.3082  0.7618  1.8246
 6159TIP3    H239969   5.676   2.372   1.804  1.3242 -0.4750 -1.7998
 6160TIP3   OH239970   4.281   3.166   2.117 -0.3606 -0.0192 -0.2904
 6160TIP3    H139971   4.280   3.173   2.213 -0.1331 -2.7939 -0.0662
 6160TIP3    H239972   4.192   3.140   2.094 -0.9590  2.5297 -1.0413
 6161TIP3   OH239973   5.775   4.949  13.148 -0.0354 -0.0263 -0.2769
 6161TIP3    H139974   5.767   4.857  13.123  0.1492 -0.0784 -0.1457
 6161TIP3    H239975   5.776   4.997  13.065  1.4580 -0.2694 -0.4075
 6162TIP3   OH239976   4.613   4.642   1.722 -0.3349 -0.1688 -0.1634
 6162TIP3    H139977   4.667   4.681   1.792 -0.9761  0.4326 -0.0037
 6162TIP3    H239978   4.573   4.716   1.679 -0.4835 -0.5858 -0.7410
 6163TIP3   OH239979   3.909   4.394   5.538 -0.5243  0.1502 -0.1195
 6163TIP3    H139980   3.860   4.470   5.571  0.0028 -0.0745  1.2261
 6163TIP3    H239981   3.850   4.353   5.475 -2.1398 -0.1733  1.5587
 6164TIP3   OH239982   2.137   1.099  16.692 -0.1815 -0.4100 -0.1702
 6164TIP3    H139983   2.223   1.059  16.678 -0.9539 -2.2694  0.3251
 6164TIP3    H239984   2.097   1.102  16.606 -0.0934 -0.6289 -0.2184
 6165TIP3   OH239985   6.194   1.283  12.343  0.2945 -0.3473  0.5722
 6165TIP3    H139986   6.251   1.356  12.368  0.7509 -0.4855 -0.0474
 6165TIP3    H239987   6.118   1.326  12.303  0.8612 -0.2177 -0.3969
 6166TIP3   OH239988   3.529   2.609  14.127  0.6033  0.0109 -0.7130
 6166TIP3    H139989   3.529   2.699  14.093 -3.2532 -0.2021 -1.4454
 6166TIP3    H239990   3.517   2.620  14.221 -0.9180  0.2576 -0.9257
 6167TIP3   OH239991   0.550   1.517  13.296 -0.2225  0.6682  0.2346
 6167TIP3    H139992   0.602   1.556  13.365 -2.3814  2.0021  1.1670
 6167TIP3    H239993   0.486   1.584  13.273 -2.3668 -1.3678  0.0480
 6168TIP3   OH239994   3.679   1.270   1.703  0.2184 -0.0919 -0.2442
 6168TIP3    H139995   3.586   1.272   1.726  0.4383  0.3751  0.6529
 6168TIP3    H239996   3.698   1.359   1.674  0.3378 -0.2421 -0.6265
 6169TIP3   OH239997   1.560   1.516   1.764  0.3967  0.3475  0.0903
 6169TIP3    H139998   1.541   1.422   1.764 -1.2494  0.6518 -1.6092
 6169TIP3    H239999   1.655   1.522   1.762  0.4834 -1.2851 -0.9667
 6170TIP3   OH240000   1.155   1.564  16.470  0.3206 -0.0914  0.5479
 6170TIP3    H140001   1.063   1.539  16.472  0.9808 -2.6173  2.3584
 6170TIP3    H240002   1.192   1.517  16.396 -0.0185  1.7640 -0.8447
 6171TIP3   OH240003   5.791   6.700   0.127 -0.1715  0.0851  0.2988
 6171TIP3    H140004   5.850   6.775   0.119  0.5579 -0.2777  1.9914
 6171TIP3    H240005   5.838   6.628   0.085 -0.0637  0.1401  0.3240
 6172TIP3   OH240006   5.068   0.424   3.161 -0.6181  0.3504 -0.3462
 6172TIP3    H140007   4.981   0.435   3.123 -2.8227 -2.0002  3.6520
 6172TIP3    H240008   5.070   0.485   3.235  2.7739  3.3071 -2.6577
 6173TIP3   OH240009   3.512   5.166   3.101  0.7707 -0.2831  0.0052
 6173TIP3    H140010   3.469   5.178   3.016  0.8245  0.5895  0.0969
 6173TIP3    H240011   3.566   5.087   3.090  1.8925  0.6474 -1.2170
 6174TIP3   OH240012   5.857   1.376   2.437 -0.0126  0.1103 -0.4009
 6174TIP3    H140013   5.950   1.352   2.437 -0.4322 -1.5826 -1.1021
 6174TIP3    H240014   5.836   1.389   2.345 -0.9378 -1.4579 -0.4297
 6175TIP3   OH240015   5.348   1.924   5.598 -0.5833  0.1675 -0.1493
 6175TIP3    H140016   5.369   1.968   5.681  1.0430  1.2754 -1.1124
 6175TIP3    H240017   5.430   1.926   5.549 -1.7995  0.4470 -2.2217
 6176TIP3   OH240018   2.153   5.604   0.919 -0.0297 -0.1390 -0.3861
 6176TIP3    H140019   2.110   5.680   0.958  0.9105  0.4398 -0.4834
 6176TIP3    H240020   2.184   5.552   0.994  0.5894  0.2953 -0.3399
 6177TIP3   OH240021   1.385   1.014  13.122  0.9806  0.0535 -0.3765
 6177TIP3    H140022   1.472   1.025  13.085  0.3741 -1.8011 -2.4494
 6177TIP3    H240023   1.327   1.005  13.046 -0.7592 -0.4941  0.9714
 6178TIP3   OH240024   0.797   4.651   1.542 -0.8209 -0.2277 -0.0130
 6178TIP3    H140025   0.864   4.618   1.482  0.7790  1.1723  0.9258
 6178TIP3    H240026   0.726   4.682   1.486  0.0373 -0.2525 -1.1169
 6179TIP3   OH240027   4.605   4.932   4.155  0.4708 -0.4804 -0.1672
 6179TIP3    H140028   4.513   4.958   4.151  1.2131  2.1349 -0.8470
 6179TIP3    H240029   4.627   4.907   4.066  0.5980 -0.4732 -0.1374
 6180TIP3   OH240030   0.737   4.506   5.788 -0.0285  0.3229 -0.1398
 6180TIP3    H140031   0.697   4.496   5.874  1.7431  1.5435  0.8758
 6180TIP3    H240032   0.812   4.447   5.790  1.4260  2.1274  0.0967
 6181TIP3   OH240033   5.654   5.023  15.949 -0.6852  0.1708 -0.7649
 6181TIP3    H140034   5.660   5.009  16.044 -1.2575  2.1467 -0.4255
 6181TIP3    H240035   5.575   4.975  15.923 -1.6488  1.2829  0.0889
 6182TIP3   OH240036   2.741   2.490  15.163  0.8665 -0.1563  0.3288
 6182TIP3    H140037   2.786   2.572  15.184  1.3671 -0.3889  0.1916
 6182TIP3    H240038   2.798   2.448  15.098  1.0397 -0.9986  1.0252
 6183TIP3   OH240039   3.968   3.839   3.341  0.0696  0.1017  0.0086
 6183TIP3    H140040   4.031   3.792   3.287 -0.2300 -0.2695 -0.0275
 6183TIP3    H240041   3.900   3.868   3.280 -0.6675 -0.9950  0.2840
 6184TIP3   OH240042   6.577   4.215  11.616  0.3358  0.3266 -0.4726
 6184TIP3    H140043   6.537   4.158  11.550  1.1289 -0.7543 -0.0313
 6184TIP3    H240044   6.670   4.190  11.617  0.4833  0.8667  0.4951
 6185TIP3   OH240045   4.701   5.382  16.744  0.2006 -0.5725  0.2092
 6185TIP3    H140046   4.718   5.473  16.721  1.7861 -0.4346  1.7729
 6185TIP3    H240047   4.651   5.386  16.825 -3.1925 -1.0798 -1.7701
 6186TIP3   OH240048   0.666   4.506  11.710  0.2458  0.2638 -0.3727
 6186TIP3    H140049   0.595   4.471  11.763  0.4270  2.0320  1.1228
 6186TIP3    H240050   0.736   4.441  11.718 -0.2690 -0.2116  0.3413
 6187TIP3   OH240051   1.886   2.157   0.527  0.3549 -0.3362 -0.1340
 6187TIP3    H140052   1.894   2.066   0.499  0.4570 -0.0880 -0.9265
 6187TIP3    H240053   1.976   2.189   0.531  0.2689  0.0049 -0.7963
 6188TIP3   OH240054   5.317   4.116   5.083 -0.1881 -0.2330  0.1808
 6188TIP3    H140055   5.338   4.209   5.071  0.6101 -0.1077  2.4228
 6188TIP3    H240056   5.379   4.070   5.026 -1.2315  0.6037 -1.7042
 6189TIP3   OH240057   0.530   5.440   5.824  0.1590  0.7336 -0.6091
 6189TIP3    H140058   0.565   5.384   5.755  0.3150  0.8044 -0.5870
 6189TIP3    H240059   0.440   5.409   5.837  0.7329 -0.5300  0.4662
 6190TIP3   OH240060   4.639   2.101   2.659 -0.1088  0.1960 -0.2318
 6190TIP3    H140061   4.568   2.039   2.673 -0.1468  0.0884 -0.9109
 6190TIP3    H240062   4.631   2.128   2.568 -0.4755  1.6810  0.2215
 6191TIP3   OH240063   3.936   1.942  14.418 -0.0030  0.3073  0.1897
 6191TIP3    H140064   4.017   1.935  14.368 -0.7915 -0.2625 -1.0208
 6191TIP3    H240065   3.878   1.995  14.364 -0.0933  1.6022  1.5228
 6192TIP3   OH240066   2.951   3.770  12.700  0.0258  0.2626  0.1263
 6192TIP3    H140067   2.929   3.863  12.711 -0.0051  0.1069  1.5114
 6192TIP3    H240068   2.894   3.741  12.629 -3.1448  0.2914  2.4892
 6193TIP3   OH240069   2.296   1.018  15.002 -0.5919  0.2496  0.2079
 6193TIP3    H140070   2.364   0.985  14.943  0.4607  0.1352  1.4611
 6193TIP3    H240071   2.339   1.088  15.051 -1.4058  0.2104  0.9817
 6194TIP3   OH240072   2.143   5.952   4.911 -0.0180  0.0984  0.1241
 6194TIP3    H140073   2.110   5.868   4.944 -2.7374  1.0525 -0.0395
 6194TIP3    H240074   2.142   6.010   4.987 -2.5352  1.2141 -0.7140
 6195TIP3   OH240075   0.443   4.310   2.555  0.1203  0.2654  0.0383
 6195TIP3    H140076   0.419   4.240   2.616 -1.7060  0.2259 -0.6864
 6195TIP3    H240077   0.410   4.390   2.595 -1.1360  0.2328 -0.8784
 6196TIP3   OH240078   1.707   5.885   1.222 -0.3790  0.1079 -0.0425
 6196TIP3    H140079   1.744   5.894   1.310  0.2819  1.6069 -0.4577
 6196TIP3    H240080   1.631   5.827   1.234  0.0795 -0.2212  1.3965
 6197TIP3   OH240081   2.476   5.920  14.286 -0.2333 -0.0664 -0.6592
 6197TIP3    H140082   2.564   5.918  14.250 -0.0220  0.3167 -0.1648
 6197TIP3    H240083   2.435   5.839  14.255 -0.1694  0.4268 -2.0448
 6198TIP3   OH240084   4.428   5.447  16.494  0.4809  0.5503  0.4619
 6198TIP3    H140085   4.367   5.373  16.494  0.2579  0.7337  0.2633
 6198TIP3    H240086   4.514   5.407  16.503  0.2182  0.3843  2.3069
 6199TIP3   OH240087   2.790   4.863  13.504  0.9035 -0.0665 -0.8876
 6199TIP3    H140088   2.849   4.871  13.429 -0.1075 -0.6480 -1.7614
 6199TIP3    H240089   2.837   4.808  13.566  0.9425 -1.2094 -1.9182
 6200TIP3   OH240090   6.807   2.231   5.377  0.2202 -0.1279 -0.4343
 6200TIP3    H140091   6.725   2.182   5.375  0.5782 -0.7316 -0.2439
 6200TIP3    H240092   6.817   2.257   5.469  1.0622 -1.4378 -0.1511
 6201TIP3   OH240093   5.204   0.215   1.924  0.2876  0.2137  0.3401
 6201TIP3    H140094   5.269   0.265   1.875  0.7583 -0.6389  0.0865
 6201TIP3    H240095   5.230   0.223   2.015  0.9420 -0.4112  0.2068
 6202TIP3   OH240096   3.215   1.473   1.506  0.3926  0.2039  0.3530
 6202TIP3    H140097   3.136   1.419   1.494  0.4664  0.3465 -0.8264
 6202TIP3    H240098   3.284   1.425   1.460  0.5740  1.0406 -0.2565
 6203TIP3   OH240099   3.438   5.351   5.342 -0.0789  0.0431  0.2357
 6203TIP3    H140100   3.473   5.392   5.420 -0.8755 -1.6737  1.5472
 6203TIP3    H240101   3.473   5.262   5.344 -0.3310 -0.1060 -1.2130
 6204TIP3   OH240102   4.007   6.212  14.345  0.0398 -0.4156  0.3245
 6204TIP3    H140103   4.057   6.294  14.344  1.2747 -1.1524 -0.9753
 6204TIP3    H240104   4.030   6.172  14.429 -2.2365  1.5109  1.9541
 6205TIP3   OH240105   0.244   1.885  13.843 -0.1761 -0.1406 -0.2546
 6205TIP3    H140106   0.207   1.918  13.761 -0.7861 -1.9119 -0.6993
 6205TIP3    H240107   0.287   1.962  13.881 -1.6061  1.1916 -1.2381
 6206TIP3   OH240108   3.915   4.404  14.469 -0.2861 -0.3897 -0.0399
 6206TIP3    H140109   3.970   4.467  14.422  0.9068 -1.5359 -0.2127
 6206TIP3    H240110   3.832   4.405  14.422 -0.7340  1.9572  0.6967
 6207TIP3   OH240111   4.922   4.700   6.819 -0.6166 -0.0966  0.3413
 6207TIP3    H140112   4.994   4.690   6.757 -0.2904  0.8619  0.5518
 6207TIP3    H240113   4.858   4.634   6.793 -0.4080  0.1879 -0.9169
 6208TIP3   OH240114   5.495   1.403   2.572 -0.4677  0.1480 -0.0217
 6208TIP3    H140115   5.525   1.485   2.534 -0.3907  0.0012 -0.2755
 6208TIP3    H240116   5.532   1.335   2.516 -1.3387 -0.0299 -0.3967
 6209TIP3   OH240117   4.902   1.941   1.680  0.2409 -0.6578 -0.0572
 6209TIP3    H140118   4.810   1.963   1.667  0.0058 -1.6554 -0.1656
 6209TIP3    H240119   4.929   1.994   1.755  0.0809  1.0000 -1.1514
 6210TIP3   OH240120   1.074   3.546   0.082  0.4902  0.1995 -0.3835
 6210TIP3    H140121   1.018   3.472   0.108  1.4920 -0.5546 -0.3391
 6210TIP3    H240122   1.018   3.599   0.025 -0.3417 -0.4219 -0.1610
 6211TIP3   OH240123   5.302   0.728  11.385 -0.5414 -0.1450 -0.8884
 6211TIP3    H140124   5.214   0.691  11.377  0.0334 -1.3325 -1.9164
 6211TIP3    H240125   5.333   0.735  11.294 -0.2072  1.8176 -0.6394
 6212TIP3   OH240126   6.505   1.672  12.452 -0.7679  1.0556 -0.0197
 6212TIP3    H140127   6.446   1.740  12.485 -1.7616 -0.2633  0.9213
 6212TIP3    H240128   6.508   1.606  12.520  0.5257  0.3227 -0.7557
 6213TIP3   OH240129   1.564   0.831   5.180  0.2465 -0.4215  0.2371
 6213TIP3    H140130   1.486   0.790   5.142  1.2286 -0.6452 -1.6003
 6213TIP3    H240131   1.540   0.848   5.271 -1.9006 -0.6076 -0.2611
 6214TIP3   OH240132   3.000   6.446  15.483  0.1880 -0.4937  0.4389
 6214TIP3    H140133   3.081   6.438  15.433 -0.3362 -3.2359 -0.0341
 6214TIP3    H240134   3.012   6.388  15.558 -0.9438 -0.1533  0.8927
 6215TIP3   OH240135   6.038   1.975  11.241  0.9871  0.0560 -0.0338
 6215TIP3    H140136   5.989   2.031  11.181  1.2983  1.5363  1.0775
 6215TIP3    H240137   6.129   2.003  11.232  0.9824  0.5787  1.4225
 6216TIP3   OH240138   2.206   2.444   3.523  0.1734  0.1521 -0.7800
 6216TIP3    H140139   2.135   2.508   3.530  0.7668  0.7833 -0.4691
 6216TIP3    H240140   2.168   2.371   3.474 -1.6789 -0.9069  2.1071
 6217TIP3   OH240141   3.452   0.130   1.186  0.2181  0.3670  0.1105
 6217TIP3    H140142   3.402   0.208   1.163  0.7222  0.2166 -1.5068
 6217TIP3    H240143   3.434   0.067   1.116  0.2184 -0.7966  1.1267
 6218TIP3   OH240144   4.101   3.033   4.370  0.5396  0.6450 -0.2431
 6218TIP3    H140145   4.100   2.985   4.287  0.1700  0.0765  0.0880
 6218TIP3    H240146   4.156   3.109   4.353  0.6012  0.4421 -0.9630
 6219TIP3   OH240147   6.756   5.857   0.400 -0.2365 -0.0910  0.2527
 6219TIP3    H140148   6.786   5.948   0.403  0.1112 -0.2315  1.3695
 6219TIP3    H240149   6.825   5.811   0.352  0.8679 -0.2169  1.9039
 6220TIP3   OH240150   0.797   6.002  15.125  0.5322  0.1127 -0.4503
 6220TIP3    H140151   0.732   6.040  15.184  0.0642 -1.0188 -0.2283
 6220TIP3    H240152   0.856   6.075  15.104  0.5304  0.5930  1.1806
 6221TIP3   OH240153   3.625   0.338  16.011 -0.2444 -0.7716 -0.0234
 6221TIP3    H140154   3.609   0.409  16.074 -1.8168 -1.3953  0.3089
 6221TIP3    H240155   3.599   0.258  16.057 -3.0231 -1.0791 -1.9790
 6222TIP3   OH240156   3.484   2.704  16.719 -0.4180  0.4704 -0.0210
 6222TIP3    H140157   3.395   2.737  16.725 -0.3439  0.3764  1.9081
 6222TIP3    H240158   3.487   2.656  16.636 -1.8178  1.4513 -0.6446
 6223TIP3   OH240159   3.498   1.141   6.017 -0.5629  0.4840  0.1040
 6223TIP3    H140160   3.440   1.067   5.997  1.6595 -1.4113  0.5068
 6223TIP3    H240161   3.492   1.151   6.112 -0.1367  0.2030  0.1602
 6224TIP3   OH240162   0.038   3.969  10.593 -0.3688  0.8032  0.5800
 6224TIP3    H140163   0.020   3.902  10.659 -0.9831 -0.8322 -1.1864
 6224TIP3    H240164   0.130   3.957  10.570 -0.1778  1.3157  1.0637
 6225TIP3   OH240165   3.756   0.468   6.159 -0.0281 -0.2494 -0.3802
 6225TIP3    H140166   3.667   0.431   6.157  0.0481 -0.3880 -1.3845
 6225TIP3    H240167   3.748   0.553   6.117  0.0953  0.2516  0.5891
 6226TIP3   OH240168   6.415   6.036  15.119 -0.3852 -0.0037 -0.1399
 6226TIP3    H140169   6.387   6.030  15.211 -1.2321  1.1423 -0.2993
 6226TIP3    H240170   6.338   6.071  15.073  0.8006  1.7491 -0.8637
 6227TIP3   OH240171   5.555   6.639   0.277  0.2568  0.2589 -0.5626
 6227TIP3    H140172   5.581   6.656   0.368  1.0993  0.9055 -0.9211
 6227TIP3    H240173   5.633   6.601   0.237 -0.3057 -0.5987 -0.8620
 6228TIP3   OH240174   0.103   0.957  17.249 -0.0899  0.5922 -0.4763
 6228TIP3    H140175   0.160   0.977  17.323 -0.7286  0.1420  0.1440
 6228TIP3    H240176   0.161   0.956  17.174  0.9671 -1.2685  0.3379
 6229TIP3   OH240177   5.931   0.498  14.664 -0.1689  0.0797  0.3711
 6229TIP3    H140178   5.912   0.586  14.697  0.6303  0.4816 -0.2051
 6229TIP3    H240179   5.889   0.439  14.726  1.1931  0.8226  2.0298
 6230TIP3   OH240180   4.009   0.661  13.672  0.3756 -0.0639 -0.3443
 6230TIP3    H140181   3.973   0.676  13.760 -0.4474  0.1136 -0.7117
 6230TIP3    H240182   3.981   0.573  13.649 -0.7151  0.4524 -1.0515
 6231TIP3   OH240183   5.330   4.274   1.130  0.3113  0.1086  0.6540
 6231TIP3    H140184   5.243   4.313   1.128  0.9512  1.6030  1.1292
 6231TIP3    H240185   5.318   4.190   1.174 -0.4815  1.4453  3.1130
 6232TIP3   OH240186   4.430   5.778   3.195  0.8483 -0.1157 -0.2026
 6232TIP3    H140187   4.385   5.830   3.129  0.4778 -0.0972  0.0631
 6232TIP3    H240188   4.522   5.779   3.168  0.5055 -1.1728 -1.4172
 6233TIP3   OH240189   5.465   6.365  12.115  0.0154 -0.9019  0.3391
 6233TIP3    H140190   5.400   6.418  12.160  0.3482 -0.2512  0.0646
 6233TIP3    H240191   5.548   6.413  12.127  0.3700 -1.5170  0.3596
 6234TIP3   OH240192   2.761   6.640   2.368  0.0903  0.0106 -0.2168
 6234TIP3    H140193   2.798   6.668   2.452 -0.0366 -0.6253  0.0509
 6234TIP3    H240194   2.829   6.586   2.329  0.1541  0.3175 -0.5356
 6235TIP3   OH240195   5.038   4.299   0.803  0.5908  0.7332 -0.0918
 6235TIP3    H140196   5.075   4.216   0.772 -0.3990 -0.2788  1.3463
 6235TIP3    H240197   5.065   4.305   0.894 -1.8687  0.4650  0.7013
 6236TIP3   OH240198   6.265   3.932   0.498 -0.5273 -0.6044 -0.0726
 6236TIP3    H140199   6.274   3.888   0.583 -1.2832 -0.1444  0.2507
 6236TIP3    H240200   6.199   3.999   0.513 -1.4474 -1.2256 -1.3101
 6237TIP3   OH240201   2.276   0.533   1.539  0.0869  0.1011 -0.8174
 6237TIP3    H140202   2.296   0.462   1.600 -0.1157  2.5470  2.1726
 6237TIP3    H240203   2.293   0.495   1.452  0.6511 -3.3543  0.7277
 6238TIP3   OH240204   5.938   3.079   0.972 -0.8276 -0.7386  1.2728
 6238TIP3    H140205   5.939   3.126   0.889 -0.4007  0.0687  1.7386
 6238TIP3    H240206   5.853   3.035   0.974 -1.2666  0.1035  0.8947
 6239TIP3   OH240207   6.820   4.560   3.091  0.4189 -0.1403 -0.0822
 6239TIP3    H140208   6.760   4.513   3.034  0.9102  0.5162 -1.1484
 6239TIP3    H240209   6.867   4.491   3.139  0.2721 -0.6978 -0.7397
 6240TIP3   OH240210   5.438   0.808  16.459 -0.1118  0.3073 -0.4554
 6240TIP3    H140211   5.396   0.745  16.401 -0.0452 -0.1045 -0.0614
 6240TIP3    H240212   5.403   0.893  16.432 -0.3324  0.0847 -0.8720
 6241TIP3   OH240213   2.295   1.126   0.736 -0.4224 -0.8550  0.1437
 6241TIP3    H140214   2.376   1.079   0.753  0.4771 -0.1863 -2.0994
 6241TIP3    H240215   2.285   1.123   0.640 -1.0958  2.1947  0.0626
 6242TIP3   OH240216   2.652   3.541  11.686 -0.3898  0.4843 -0.1080
 6242TIP3    H140217   2.579   3.486  11.717 -1.6073  0.3477 -3.0670
 6242TIP3    H240218   2.699   3.485  11.624  1.9236  0.7928  1.3059
 6243TIP3   OH240219   0.175   3.374   6.444  0.4025  0.4011  0.0874
 6243TIP3    H140220   0.098   3.378   6.388  0.1434 -0.6656  0.3591
 6243TIP3    H240221   0.235   3.438   6.406  0.7975 -1.2765 -2.2803
 6244TIP3   OH240222   0.117   2.966  13.319 -0.0885  0.0749 -0.0024
 6244TIP3    H140223   0.033   2.957  13.273 -0.5475  3.4333  0.0125
 6244TIP3    H240224   0.181   2.980  13.249  0.0926 -0.2296  0.1029
 6245TIP3   OH240225   3.396   1.822   0.127 -0.0809  0.5763  0.1047
 6245TIP3    H140226   3.323   1.770   0.094 -0.5228  1.3431 -0.1230
 6245TIP3    H240227   3.423   1.876   0.053 -1.8591  3.1935  1.2696
 6246TIP3   OH240228   2.840   4.093  11.573  0.4346 -0.2719 -0.0301
 6246TIP3    H140229   2.752   4.056  11.559  0.3825  0.0238 -0.4866
 6246TIP3    H240230   2.880   4.035  11.638 -0.4256  0.1247  0.8547
 6247TIP3   OH240231   0.954   2.733  13.645 -0.4466  0.1998  0.3269
 6247TIP3    H140232   1.002   2.814  13.664 -0.7988  0.5380 -0.1884
 6247TIP3    H240233   0.862   2.758  13.657 -0.5847  0.0104 -0.3094
 6248TIP3   OH240234   6.096   2.462  12.349 -0.3859  0.2423  0.4201
 6248TIP3    H140235   6.159   2.489  12.282  0.1899  0.9700  1.2371
 6248TIP3    H240236   6.011   2.481  12.310 -0.0818 -0.1654 -0.4513
 6249TIP3   OH240237   2.569   4.949   2.301  0.2231  0.1628 -0.5332
 6249TIP3    H140238   2.650   4.974   2.344 -0.2746  0.1556  0.4072
 6249TIP3    H240239   2.581   4.857   2.276  0.4894  0.1581 -0.3788
 6250TIP3   OH240240   2.147   0.470  11.554 -0.4485 -0.1705 -0.6304
 6250TIP3    H140241   2.219   0.481  11.492 -0.4578  1.1378 -0.4213
 6250TIP3    H240242   2.068   0.479  11.500 -0.4591  1.3745 -0.3813
 6251TIP3   OH240243   4.094   2.736   1.601 -0.2367 -0.6343  0.0946
 6251TIP3    H140244   4.011   2.763   1.640 -0.7942 -0.8181 -0.9515
 6251TIP3    H240245   4.135   2.680   1.668 -1.9244 -2.2859 -0.2184
 6252TIP3   OH240246   5.620   1.668  14.052 -0.2018 -0.2763  0.1473
 6252TIP3    H140247   5.583   1.722  14.122 -0.2496  1.0353 -0.8826
 6252TIP3    H240248   5.706   1.706  14.034  0.2184 -1.1940  0.1372
 6253TIP3   OH240249   1.332   5.219  15.391 -0.4600 -0.7522  0.1276
 6253TIP3    H140250   1.379   5.302  15.392  1.1278 -1.6330 -0.7703
 6253TIP3    H240251   1.395   5.155  15.423 -0.8954 -2.0252 -1.5374
 6254TIP3   OH240252   3.110   0.442   0.801  0.1140 -0.6621 -0.3075
 6254TIP3    H140253   3.141   0.521   0.844  2.3605 -2.7784  2.0574
 6254TIP3    H240254   3.159   0.439   0.718  0.5774 -0.0091 -0.0588
 6255TIP3   OH240255   2.247   5.878   3.660  0.2921  0.3696 -0.2819
 6255TIP3    H140256   2.223   5.809   3.722 -1.2639  0.3669 -0.8534
 6255TIP3    H240257   2.341   5.889   3.671  0.1960 -0.3269  1.3585
 6256TIP3   OH240258   3.029   0.250   2.010 -0.2931  0.3892 -0.5343
 6256TIP3    H140259   3.013   0.285   1.922 -2.2126  1.6758  0.3065
 6256TIP3    H240260   3.005   0.158   2.003  0.3073  0.2971 -1.5534
 6257TIP3   OH240261   3.885   6.385  12.762  0.2343 -0.3020 -0.4950
 6257TIP3    H140262   3.869   6.340  12.845 -0.1485 -0.9147 -0.8925
 6257TIP3    H240263   3.874   6.316  12.696  1.7585 -0.1200 -0.9679
 6258TIP3   OH240264   5.698   6.274   2.280  0.0362  0.1552 -0.4097
 6258TIP3    H140265   5.657   6.242   2.361  2.9199  0.0896  1.0956
 6258TIP3    H240266   5.724   6.363   2.301 -0.6293  0.6963 -1.8458
 6259TIP3   OH240267   3.263   0.653   0.914  0.6101  0.4210  0.6072
 6259TIP3    H140268   3.282   0.698   0.832 -0.0435  0.9342  0.7359
 6259TIP3    H240269   3.342   0.664   0.967  1.4164 -0.7604 -0.3248
 6260TIP3   OH240270   0.093   2.163   2.616  0.6606  0.0290  0.2738
 6260TIP3    H140271   0.170   2.207   2.652  1.0927 -0.2564 -0.2937
 6260TIP3    H240272   0.057   2.114   2.690  0.3235  1.1149  0.8473
 6261TIP3   OH240273   0.476   0.925   5.648  0.3310  0.2895 -0.2237
 6261TIP3    H140274   0.445   0.915   5.558  0.8088  0.9542 -0.4619
 6261TIP3    H240275   0.570   0.912   5.643  0.3158 -0.0121  0.2374
 6262TIP3   OH240276   0.360   6.108   2.325  0.2411 -0.1934  0.5088
 6262TIP3    H140277   0.272   6.131   2.353 -0.1265  2.4537 -2.5446
 6262TIP3    H240278   0.347   6.052   2.248  1.2408 -1.3171  1.1338
 6263TIP3   OH240279   0.408   0.066  15.624 -0.4123 -0.2422  0.9382
 6263TIP3    H140280   0.363   0.119  15.558  1.8215 -0.3375 -0.7324
 6263TIP3    H240281   0.371  -0.021  15.614 -1.9326  0.3223  1.5965
 6264TIP3   OH240282   0.773   3.357  12.971  0.3517 -0.0208 -0.0507
 6264TIP3    H140283   0.808   3.385  12.886  0.4387 -0.5899 -0.2097
 6264TIP3    H240284   0.850   3.323  13.018 -0.1450 -2.3970 -0.8560
 6265TIP3   OH240285   3.332   2.912  14.433 -0.8867  0.2306  0.1300
 6265TIP3    H140286   3.258   2.954  14.389 -0.1669 -0.3719 -1.7067
 6265TIP3    H240287   3.296   2.830  14.467 -1.1978  0.1872 -0.2980
 6266TIP3   OH240288   6.072   5.140   2.731  0.0926 -0.2046 -0.1434
 6266TIP3    H140289   6.089   5.061   2.680 -2.3391  0.1686 -1.5922
 6266TIP3    H240290   5.995   5.180   2.690  0.5549  2.2952  1.2866
 6267TIP3   OH240291   3.527   6.595   5.430  0.3379 -0.0689  0.2951
 6267TIP3    H140292   3.518   6.658   5.359  0.8368  0.3478  0.5960
 6267TIP3    H240293   3.557   6.514   5.387 -2.1086 -0.6822 -0.3460
 6268TIP3   OH240294   3.815   6.346   3.054  0.0214 -0.2523 -0.9066
 6268TIP3    H140295   3.821   6.441   3.047  2.1085 -0.3343 -0.6377
 6268TIP3    H240296   3.728   6.325   3.020 -0.6994  1.7935 -0.4336
 6269TIP3   OH240297   0.522   3.598   4.339  0.2962  0.0845  0.0482
 6269TIP3    H140298   0.526   3.681   4.292  1.6892 -0.2141 -0.3787
 6269TIP3    H240299   0.505   3.623   4.430 -2.7895  0.6326 -0.6203
 6270TIP3   OH240300   5.454   5.576   3.003 -0.5152  0.1131  0.4304
 6270TIP3    H140301   5.459   5.614   3.091  1.3301 -0.3681  0.5464
 6270TIP3    H240302   5.506   5.496   3.009  1.5969  1.2736 -1.7175
 6271TIP3   OH240303   6.796   4.801   6.303  0.1931  0.2785  0.1597
 6271TIP3    H140304   6.821   4.813   6.212  0.5362  0.9302  0.3350
 6271TIP3    H240305   6.852   4.862   6.352  1.4348 -1.4926  1.0064
 6272TIP3   OH240306   6.170   2.303   2.356  0.1574  0.3161 -0.3604
 6272TIP3    H140307   6.122   2.328   2.277  2.4758  1.6166 -1.4070
 6272TIP3    H240308   6.102   2.273   2.417 -1.6988 -0.2984 -2.6771
 6273TIP3   OH240309   4.280   0.876  12.571  0.2053  0.1224  0.0698
 6273TIP3    H140310   4.348   0.823  12.530 -1.3985 -3.1499  1.4908
 6273TIP3    H240311   4.321   0.909  12.651  0.7684 -0.0614 -0.1402
 6274TIP3   OH240312   3.348   5.839  13.013 -0.2630 -0.1127 -0.2824
 6274TIP3    H140313   3.341   5.935  13.020  1.1130 -0.0644  0.6890
 6274TIP3    H240314   3.264   5.811  12.978 -1.3194  1.2900  1.0873
 6275TIP3   OH240315   5.632   3.134  10.944  0.6822  0.4662  0.0864
 6275TIP3    H140316   5.656   3.217  10.984 -0.5620  0.8901 -0.0040
 6275TIP3    H240317   5.713   3.100  10.906  1.1679  1.7155 -0.0147
 6276TIP3   OH240318   4.501   5.554   1.159 -0.1676 -0.2298 -0.0746
 6276TIP3    H140319   4.517   5.638   1.117 -0.3513  0.6940  1.6950
 6276TIP3    H240320   4.528   5.489   1.093 -2.0649  1.1439 -2.2892
 6277TIP3   OH240321   1.811   2.792  14.692  0.0833  0.5901 -0.5399
 6277TIP3    H140322   1.817   2.722  14.757 -1.5798 -0.0478 -1.0557
 6277TIP3    H240323   1.869   2.763  14.621  0.7909  0.6127  0.0129
 6278TIP3   OH240324   0.597   4.903  12.912  0.0081 -0.5428  0.5607
 6278TIP3    H140325   0.586   4.880  13.005  0.2375 -0.6625  0.5593
 6278TIP3    H240326   0.679   4.952  12.910 -0.6266  0.5373  0.6127
 6279TIP3   OH240327   5.417   2.038   5.879  0.3620  0.1910 -0.0073
 6279TIP3    H140328   5.406   2.059   5.971 -2.1744  0.6191 -0.3699
 6279TIP3    H240329   5.459   1.952   5.879  0.4125  0.2026  1.5398
 6280TIP3   OH240330   0.331   3.700   5.613 -0.6831  0.5063  0.4029
 6280TIP3    H140331   0.403   3.702   5.676  0.5348  0.6058 -0.9892
 6280TIP3    H240332   0.332   3.787   5.573 -1.6230  0.5303  0.4246
 6281TIP3   OH240333   0.487   4.969   1.758  0.3168  0.2587  0.3016
 6281TIP3    H140334   0.577   4.962   1.788  0.3649 -1.8457 -0.2758
 6281TIP3    H240335   0.438   4.996   1.835  0.9383 -1.8410  1.4628
 6282TIP3   OH240336   6.774   3.038  10.577 -0.3513  0.3038  0.5013
 6282TIP3    H140337   6.745   3.068  10.491  0.5297 -0.0763  0.0698
 6282TIP3    H240338   6.860   3.078  10.589 -0.2261 -0.0937  0.9572
 6283TIP3   OH240339   1.614   2.145  14.617  0.6108 -0.2164 -0.0788
 6283TIP3    H140340   1.612   2.240  14.613  1.4881 -0.2465 -1.8456
 6283TIP3    H240341   1.703   2.124  14.647  0.5725 -0.4868 -0.1525
 6284TIP3   OH240342   4.765   4.821   2.669  0.1908 -0.3453 -0.3731
 6284TIP3    H140343   4.735   4.834   2.579  0.9977 -3.0858 -1.0781
 6284TIP3    H240344   4.689   4.842   2.723 -0.7253 -0.0561 -1.7621
 6285TIP3   OH240345   1.789   4.153  16.388  0.4990  0.3366  0.4269
 6285TIP3    H140346   1.810   4.090  16.457  0.1446  1.4799  1.5938
 6285TIP3    H240347   1.729   4.215  16.429  0.6067  1.2719 -0.7992
 6286TIP3   OH240348   3.230   6.526   3.240 -0.1442  0.7052  0.1870
 6286TIP3    H140349   3.230   6.434   3.213  1.3045  0.7820 -0.1075
 6286TIP3    H240350   3.306   6.564   3.196 -0.6522  2.0187  0.4195
 6287TIP3   OH240351   6.200   4.456   5.628 -0.4450  0.8024  0.0937
 6287TIP3    H140352   6.272   4.481   5.686 -1.6451  0.0557  1.9471
 6287TIP3    H240353   6.143   4.403   5.683 -2.1662  0.9881 -1.4926
 6288TIP3   OH240354   5.101   3.053   4.519 -0.0107  0.1386  0.2151
 6288TIP3    H140355   5.058   3.057   4.605 -0.8467  2.3428 -0.2722
 6288TIP3    H240356   5.128   3.143   4.501 -0.7285 -0.0954 -2.2734
 6289TIP3   OH240357   1.934   6.703   4.776 -0.7184 -0.7146 -0.4786
 6289TIP3    H140358   1.977   6.665   4.699 -1.3434  0.7191 -1.5749
 6289TIP3    H240359   1.887   6.779   4.741  0.3699  0.9491  1.6206
 6290TIP3   OH240360   3.516   5.574  11.261 -0.3365 -0.3790  0.3964
 6290TIP3    H140361   3.440   5.518  11.245 -0.7726 -0.0796  1.3832
 6290TIP3    H240362   3.560   5.580  11.176  0.5227 -3.3775  0.5777
 6291TIP3   OH240363   4.994   2.135   0.453 -0.1892  0.0631  0.2778
 6291TIP3    H140364   4.953   2.208   0.406  1.2678  0.6300 -0.1460
 6291TIP3    H240365   4.921   2.090   0.496 -1.5065 -0.0710 -1.9744
 6292TIP3   OH240366   3.366   3.836  15.136 -0.4468  0.7501 -0.7239
 6292TIP3    H140367   3.314   3.910  15.168  0.4382  1.7249 -1.5347
 6292TIP3    H240368   3.346   3.830  15.043 -0.3495  0.1027 -0.7064
 6293TIP3   OH240369   1.752   4.755  15.755 -0.3392 -0.0750 -0.7133
 6293TIP3    H140370   1.779   4.688  15.692  1.2226  1.5387 -1.7831
 6293TIP3    H240371   1.789   4.725  15.838  0.2460 -0.5989 -1.1553
 6294TIP3   OH240372   2.049   0.597   5.992  0.4287  0.2438 -0.2451
 6294TIP3    H140373   2.082   0.562   5.909 -0.4670 -0.5848 -0.2572
 6294TIP3    H240374   2.074   0.532   6.058  1.3929  1.0414  0.1882
 6295TIP3   OH240375   4.006   1.039   3.770 -0.1074 -0.1096  0.3829
 6295TIP3    H140376   4.094   1.033   3.808  0.1171 -1.4661 -0.2874
 6295TIP3    H240377   4.015   1.099   3.696 -0.2183  1.3697  1.5447
 6296TIP3   OH240378   4.541   5.059  17.166 -1.1619 -0.7548 -0.0064
 6296TIP3    H140379   4.600   5.066  17.091 -1.8699  0.9302 -0.4333
 6296TIP3    H240380   4.598   5.067  17.243 -0.8675  1.3050 -0.4203
 6297TIP3   OH240381   0.734   5.748   1.038 -0.4253  0.1758 -0.0537
 6297TIP3    H140382   0.827   5.749   1.061 -0.9322  0.2046  2.0852
 6297TIP3    H240383   0.700   5.670   1.082 -1.2888 -0.2240 -1.4060
 6298TIP3   OH240384   1.867   0.524  16.346  0.1097 -0.0224  0.3334
 6298TIP3    H140385   1.912   0.462  16.403  1.5186  1.3074  0.6954
 6298TIP3    H240386   1.783   0.540  16.389  0.0303 -1.1151  0.5930
 6299TIP3   OH240387   0.950   0.706   5.573 -0.8066 -0.8065  0.6839
 6299TIP3    H140388   0.925   0.692   5.482 -1.1246 -2.1470  0.9653
 6299TIP3    H240389   0.915   0.630   5.619  0.6797 -0.8939  1.6849
 6300TIP3   OH240390   3.121   0.877   3.683  0.2804  0.0278  0.7527
 6300TIP3    H140391   3.167   0.801   3.647  0.7268 -0.8159  2.9885
 6300TIP3    H240392   3.040   0.883   3.632 -0.4595 -2.8747  1.4794
 6301TIP3   OH240393   4.122   0.899   2.021 -0.5996 -0.1823 -0.1129
 6301TIP3    H140394   4.170   0.940   1.949  0.1683 -1.9283 -0.6126
 6301TIP3    H240395   4.041   0.950   2.028  0.0681  1.0510 -1.0924
 6302TIP3   OH240396   3.818   2.089  14.606 -0.3727  0.1447 -0.2977
 6302TIP3    H140397   3.759   2.154  14.568 -0.5675 -0.7276 -1.5297
 6302TIP3    H240398   3.861   2.049  14.531  0.3692 -0.5612  0.4915
 6303TIP3   OH240399   6.672   1.844  11.918 -0.4589  0.1566  0.1018
 6303TIP3    H140400   6.589   1.889  11.931 -0.2301  1.0542 -1.4420
 6303TIP3    H240401   6.682   1.789  11.996 -2.4325  0.1202  0.3410
 6304TIP3   OH240402   1.873   2.676   2.806 -0.0205  0.0648 -0.0118
 6304TIP3    H140403   1.893   2.626   2.885 -0.1391 -2.3668 -1.4717
 6304TIP3    H240404   1.786   2.713   2.822  0.6680  1.0260  1.6597
 6305TIP3   OH240405   2.825   3.851   0.917  0.5455  0.2301  0.1183
 6305TIP3    H140406   2.893   3.864   0.984  0.5584 -1.5849  0.5013
 6305TIP3    H240407   2.874   3.842   0.835  0.5656  1.9041 -0.0663
 6306TIP3   OH240408   1.119   5.374  13.689  0.0677 -0.1913  0.0119
 6306TIP3    H140409   1.094   5.439  13.623  0.5227  0.9319  0.9191
 6306TIP3    H240410   1.127   5.424  13.770  1.7748 -1.1326  0.4586
 6307TIP3   OH240411   6.490   3.578   1.422 -0.1218 -0.3131  0.2947
 6307TIP3    H140412   6.435   3.500   1.425 -0.2359 -0.2610 -0.3193
 6307TIP3    H240413   6.568   3.555   1.473 -0.0715 -0.8951 -0.0370
 6308TIP3   OH240414   5.143   3.470  14.959 -0.7604 -0.2434  0.3686
 6308TIP3    H140415   5.182   3.542  15.008 -2.0539  0.9491 -0.3186
 6308TIP3    H240416   5.062   3.450  15.006 -1.1386 -0.2626 -0.2904
 6309TIP3   OH240417   0.981   1.347   1.106  0.5752 -0.3942  0.1045
 6309TIP3    H140418   0.999   1.255   1.127 -0.1303 -0.3253  1.0410
 6309TIP3    H240419   1.025   1.396   1.175  1.1742 -0.0131 -0.5461
 6310TIP3   OH240420   5.841   0.640   4.190 -0.6241 -0.2821  0.2797
 6310TIP3    H140421   5.893   0.660   4.269  3.7352 -1.7102 -2.0770
 6310TIP3    H240422   5.862   0.549   4.170 -1.7848  0.0304 -2.5001
 6311TIP3   OH240423   4.751   1.443  10.878  0.0742 -1.0546  0.7362
 6311TIP3    H140424   4.833   1.439  10.828  0.2383 -0.2122  0.9217
 6311TIP3    H240425   4.690   1.387  10.830 -0.7294  2.1805 -2.2472
 6312TIP3   OH240426   2.182   4.083   4.236  0.1329 -0.2380 -0.0070
 6312TIP3    H140427   2.238   4.135   4.294  0.5586 -0.9146  0.1972
 6312TIP3    H240428   2.235   4.008   4.213 -1.0571 -1.4241  1.0292
 6313TIP3   OH240429   5.262   0.854   4.714  0.3508 -0.0660 -0.9668
 6313TIP3    H140430   5.306   0.920   4.661  0.2589  0.4429 -0.4130
 6313TIP3    H240431   5.308   0.772   4.694 -0.2586 -0.0498 -2.5152
 6314TIP3   OH240432   6.589   5.119  16.183  0.1155  0.2042  0.2088
 6314TIP3    H140433   6.609   5.124  16.090 -0.5549  0.5781  0.0819
 6314TIP3    H240434   6.601   5.026  16.205 -1.5963 -0.2427 -0.6786
 6315TIP3   OH240435   4.794   2.069   5.959  0.2560 -0.0783 -0.1449
 6315TIP3    H140436   4.746   2.139   6.003  1.2442  0.5535 -0.0614
 6315TIP3    H240437   4.800   2.098   5.868  3.4427  1.5010  0.5067
 6316TIP3   OH240438   0.524   0.757   1.736 -0.3710 -0.4069 -0.6450
 6316TIP3    H140439   0.601   0.702   1.727  0.0448  0.1229 -0.3470
 6316TIP3    H240440   0.469   0.712   1.801 -0.4982 -0.9840 -1.1484
 6317TIP3   OH240441   5.986   2.769   1.663 -0.2209 -0.4574 -0.2692
 6317TIP3    H140442   5.998   2.859   1.693  2.9168 -1.0507  0.4611
 6317TIP3    H240443   6.058   2.754   1.601 -1.1029 -2.2444 -0.8933
 6318TIP3   OH240444   6.270   0.642   1.925  0.3510  0.5227 -0.1633
 6318TIP3    H140445   6.175   0.629   1.925  0.3143  0.7073  1.3131
 6318TIP3    H240446   6.299   0.608   1.840 -1.1046  1.0374 -0.8889
 6319TIP3   OH240447   0.905   3.791  13.859  0.5893 -0.5930  0.2178
 6319TIP3    H140448   0.957   3.871  13.868  1.7180 -1.4780  1.7696
 6319TIP3    H240449   0.911   3.768  13.766 -1.2109  2.0692 -0.6189
 6320TIP3   OH240450   6.662   2.234   3.461  0.4498 -0.1537 -0.4305
 6320TIP3    H140451   6.717   2.282   3.523  0.5447  0.0401 -0.6666
 6320TIP3    H240452   6.575   2.233   3.502  0.4397  0.2489 -0.4416
 6321TIP3   OH240453   0.757   0.872   5.670 -0.2266  0.4179  0.1790
 6321TIP3    H140454   0.774   0.905   5.758  2.5726 -0.0009 -0.1501
 6321TIP3    H240455   0.828   0.811   5.653 -1.8262 -1.0097 -1.6366
 6322TIP3   OH240456   6.183   0.107   3.833 -0.4510  0.2345  0.3483
 6322TIP3    H140457   6.089   0.094   3.821 -0.4496 -1.6161  2.0919
 6322TIP3    H240458   6.217   0.020   3.851  1.3946  1.0859  1.1123
 6323TIP3   OH240459   5.561   4.097   5.966 -0.2615 -0.0024 -0.0338
 6323TIP3    H140460   5.567   4.081   5.872 -0.4007 -1.1626  0.1482
 6323TIP3    H240461   5.471   4.076   5.988  0.5045 -2.5847  0.8541
 6324TIP3   OH240462   0.758   1.323   2.512  0.0085 -0.2106  0.4652
 6324TIP3    H140463   0.836   1.347   2.462  0.0564  0.0956  0.6839
 6324TIP3    H240464   0.726   1.406   2.547 -1.2624 -0.1368 -0.8254
 6325TIP3   OH240465   0.473   1.956   4.754 -0.0562 -0.1655  0.4376
 6325TIP3    H140466   0.474   2.040   4.709  0.2975 -0.7365 -0.6438
 6325TIP3    H240467   0.554   1.954   4.804  0.3411 -0.2101 -0.2024
 6326TIP3   OH240468   1.415   5.778  12.342  0.2527  0.2457  0.5118
 6326TIP3    H140469   1.384   5.864  12.369  0.4770  0.7494 -0.8031
 6326TIP3    H240470   1.426   5.784  12.247 -2.4413 -2.0974 -0.0242
 6327TIP3   OH240471   6.682   0.923  16.304  0.7274  0.8160  0.0684
 6327TIP3    H140472   6.625   0.916  16.380 -2.3405  1.3112 -2.1016
 6327TIP3    H240473   6.703   0.833  16.281 -1.0224  0.5296 -0.4356
 6328TIP3   OH240474   5.401   3.650   5.466 -0.0410  0.0951  0.0553
 6328TIP3    H140475   5.312   3.669   5.437  0.2756 -0.0219 -1.0326
 6328TIP3    H240476   5.444   3.735   5.468 -0.5507  0.3122  1.8831
 6329TIP3   OH240477   6.471   1.612  15.725 -0.0181 -0.4350 -0.3068
 6329TIP3    H140478   6.513   1.526  15.733 -1.9232 -1.2699  1.2817
 6329TIP3    H240479   6.512   1.665  15.793  0.6532 -0.3002 -0.8142
 6330TIP3   OH240480   2.654   0.001   2.662  0.5467 -0.4573  0.0887
 6330TIP3    H140481   2.565   0.032   2.649  0.9604  0.9550  0.4744
 6330TIP3    H240482   2.648  -0.062   2.733 -0.0442  0.1906  0.6186
 6331TIP3   OH240483   6.346   0.263  12.753 -0.1613  0.5761 -0.1248
 6331TIP3    H140484   6.424   0.209  12.749 -0.2628  0.2958  1.3791
 6331TIP3    H240485   6.281   0.216  12.700  0.3524  0.2406 -0.4543
 6332TIP3   OH240486   1.594   0.015  16.084  0.1379  0.7364 -0.3148
 6332TIP3    H140487   1.523   0.079  16.090  0.3250  1.0022 -0.9765
 6332TIP3    H240488   1.654   0.052  16.020 -0.0764 -0.4286 -1.1830
 6333TIP3   OH240489   3.645   4.928   3.164  0.4480  0.5858 -0.1635
 6333TIP3    H140490   3.664   4.842   3.128 -0.2330  0.8185 -1.1005
 6333TIP3    H240491   3.576   4.913   3.229  0.9288  0.3088  0.2821
 6334TIP3   OH240492   1.945   3.576  12.901  0.5079  0.0764 -0.1361
 6334TIP3    H140493   1.906   3.590  12.987  3.2670 -1.2439  1.4036
 6334TIP3    H240494   1.976   3.663  12.874  0.6026  0.3054  0.7066
 6335TIP3   OH240495   1.988   4.080  15.128 -0.0456 -0.0252 -0.3082
 6335TIP3    H140496   2.005   4.035  15.045  2.2994 -1.4159  0.8923
 6335TIP3    H240497   1.899   4.056  15.150 -0.8765  0.7267 -2.6338
 6336TIP3   OH240498   5.788   5.888  10.528 -0.0818 -0.5936 -0.0950
 6336TIP3    H140499   5.698   5.868  10.553 -1.2647  2.2119 -1.8123
 6336TIP3    H240500   5.824   5.936  10.603 -0.5648 -0.2912 -0.0556
 6337TIP3   OH240501   2.458   3.640   2.443  0.2307  0.4171 -0.3849
 6337TIP3    H140502   2.518   3.581   2.488  1.2170 -0.4716 -2.7729
 6337TIP3    H240503   2.507   3.722   2.434  1.0876 -0.2730 -2.2346
 6338TIP3   OH240504   3.863   3.221   3.050  0.0928 -0.1209  0.1263
 6338TIP3    H140505   3.917   3.286   3.095 -0.0544  0.4396 -0.4988
 6338TIP3    H240506   3.852   3.151   3.114 -1.1673  1.2161  1.3957
 6339TIP3   OH240507   5.726   4.191   2.878  0.5913  0.7991 -0.3536
 6339TIP3    H140508   5.705   4.110   2.831  2.0399  1.3230 -1.9642
 6339TIP3    H240509   5.719   4.167   2.971  1.2777 -1.2619 -0.7946
 6340TIP3   OH240510   3.717   1.829  16.956 -0.4395  0.4381  0.2287
 6340TIP3    H140511   3.789   1.769  16.940 -0.0262  1.0054 -0.0383
 6340TIP3    H240512   3.756   1.905  17.000 -0.4725  1.7298 -1.9093
 6341TIP3   OH240513   5.736   5.797   6.643  0.6168 -0.5233 -0.4217
 6341TIP3    H140514   5.704   5.882   6.613  1.4410 -0.4373 -1.0737
 6341TIP3    H240515   5.658   5.751   6.674  0.0367  0.1280 -0.9185
 6342TIP3   OH240516   4.007   3.120  16.206 -0.0636  0.9379  0.2515
 6342TIP3    H140517   4.083   3.065  16.226 -0.3115  0.7680  0.7303
 6342TIP3    H240518   3.960   3.127  16.289  0.0955  2.0761  0.2431
 6343TIP3   OH240519   5.469   2.238  16.202 -0.3874 -0.0178  0.0553
 6343TIP3    H140520   5.398   2.224  16.140  2.4954 -0.7170 -3.2646
 6343TIP3    H240521   5.495   2.329  16.187  0.3036 -0.1849  0.2483
 6344TIP3   OH240522   0.123   1.446  13.481 -0.6037  0.2923  0.2701
 6344TIP3    H140523   0.169   1.472  13.561  0.4313  1.0819 -0.5573
 6344TIP3    H240524   0.033   1.430  13.509 -0.0881 -0.1572  1.7174
 6345TIP3   OH240525   1.409   0.698  11.937 -0.6500 -0.0961 -0.4137
 6345TIP3    H140526   1.363   0.669  11.858 -2.6845 -1.7135  1.3025
 6345TIP3    H240527   1.356   0.771  11.970  0.6860  1.1620 -0.9994
 6346TIP3   OH240528   0.848   2.397   2.596  0.1798 -0.1661 -0.2017
 6346TIP3    H140529   0.884   2.335   2.532 -1.4265 -2.0760  0.6944
 6346TIP3    H240530   0.921   2.416   2.655  1.0547 -0.1229 -1.2780
 6347TIP3   OH240531   2.225   0.387  13.592 -0.2142 -0.1030  0.0317
 6347TIP3    H140532   2.229   0.293  13.610  0.7485 -0.0592  0.0795
 6347TIP3    H240533   2.136   0.401  13.558 -0.6591 -0.8765  0.8447
 6348TIP3   OH240534   1.310   6.399  15.838 -0.5045  0.1328 -0.5938
 6348TIP3    H140535   1.304   6.382  15.932  0.8248  0.7280 -0.3942
 6348TIP3    H240536   1.224   6.373  15.803 -0.2528 -2.1873  0.4306
 6349TIP3   OH240537   4.247   4.066   0.836  0.0734  0.4231 -0.4865
 6349TIP3    H140538   4.167   4.108   0.868  0.8284  0.9625  0.7461
 6349TIP3    H240539   4.301   4.138   0.805 -0.1487  0.0050 -1.8696
 6350TIP3   OH240540   6.297   0.497  15.949  0.5909  0.5769  0.2854
 6350TIP3    H140541   6.362   0.451  16.002 -0.1838 -1.4724 -0.5107
 6350TIP3    H240542   6.215   0.487  15.998 -0.1370 -1.3576 -1.2726
 6351TIP3   OH240543   6.759   1.406   3.065  0.2865 -0.1196  0.0207
 6351TIP3    H140544   6.755   1.444   3.153  0.6888 -0.8883  0.3839
 6351TIP3    H240545   6.674   1.427   3.026 -0.3125 -0.6676  0.9865
 6352TIP3   OH240546   5.923   1.457  11.635 -0.1312 -0.3706  0.1209
 6352TIP3    H140547   6.000   1.423  11.589  1.6530  1.9146  1.2983
 6352TIP3    H240548   5.848   1.428  11.583  1.6051 -1.5255 -1.7713
 6353TIP3   OH240549   4.889   2.664  11.106  0.1197 -0.2278  0.2310
 6353TIP3    H140550   4.887   2.755  11.079  0.5765 -0.4333 -0.5132
 6353TIP3    H240551   4.971   2.654  11.154  1.0225 -0.6950 -1.3562
 6354TIP3   OH240552   0.299   1.974   2.605  0.7232  0.0252 -0.0123
 6354TIP3    H140553   0.283   2.066   2.627 -2.2371  0.0032 -1.8582
 6354TIP3    H240554   0.352   1.977   2.526  2.2448  0.0902  0.9761
 6355TIP3   OH240555   5.956   4.924  11.242 -0.0963  0.2081 -0.4208
 6355TIP3    H140556   5.944   5.015  11.271  2.0712  0.7939 -1.2706
 6355TIP3    H240557   6.039   4.925  11.194  0.9072 -2.6252  1.1546
 6356TIP3   OH240558   4.352   3.884  10.252  0.0687  0.4707 -0.3529
 6356TIP3    H140559   4.342   3.891  10.347  1.0924 -0.8546 -0.1288
 6356TIP3    H240560   4.266   3.855  10.222  0.2826 -1.0423  0.4104
 6357TIP3   OH240561   4.254   3.224   1.040  0.1563 -0.2532  0.0586
 6357TIP3    H140562   4.218   3.292   1.097 -1.4910  1.1207 -2.5040
 6357TIP3    H240563   4.349   3.230   1.052 -0.0218  1.9164  0.5561
 6358TIP3   OH240564   1.412   3.849   3.996 -0.1227  0.4161 -0.1102
 6358TIP3    H140565   1.463   3.923   4.028  0.5231 -0.8514  1.8376
 6358TIP3    H240566   1.444   3.834   3.907  0.5718  1.7029 -0.0861
 6359TIP3   OH240567   6.111   6.746   2.166 -0.6046  0.2487 -0.0159
 6359TIP3    H140568   6.206   6.743   2.155 -0.2421  1.2804  2.4751
 6359TIP3    H240569   6.083   6.823   2.117 -0.1922 -0.2002 -0.9597
 6360TIP3   OH240570   3.522   3.325   1.631 -0.3011  0.0232 -0.7023
 6360TIP3    H140571   3.603   3.353   1.588  0.7125  0.1919  1.2937
 6360TIP3    H240572   3.455   3.382   1.593  0.9227  1.6400 -0.5105
 6361TIP3   OH240573   4.160   1.274  13.958 -0.6024  0.0075  0.5526
 6361TIP3    H140574   4.214   1.197  13.941  1.3545  1.3420  0.5505
 6361TIP3    H240575   4.072   1.239  13.972  0.0258 -2.1208 -0.5578
 6362TIP3   OH240576   1.093   0.610  14.412  0.0901 -0.0443  0.2839
 6362TIP3    H140577   1.095   0.520  14.381  0.0088  1.1626 -3.4765
 6362TIP3    H240578   1.179   0.645  14.387 -0.4347  1.3402  0.3985
 6363TIP3   OH240579   4.141   2.910   3.152  0.5882 -0.5514  0.2508
 6363TIP3    H140580   4.226   2.920   3.196  0.2878  0.2059  0.6695
 6363TIP3    H240581   4.077   2.943   3.215  0.0286 -0.6296 -0.2703
 6364TIP3   OH240582   4.539   0.874   0.515  0.3046  0.2503 -0.5419
 6364TIP3    H140583   4.510   0.855   0.604  0.6384 -0.2735 -0.5431
 6364TIP3    H240584   4.475   0.831   0.459 -0.5011  1.4538 -0.5734
 6365TIP3   OH240585   5.828   2.215   0.196 -0.3127  0.4514  0.2716
 6365TIP3    H140586   5.860   2.129   0.169 -2.5072 -0.6150  0.9658
 6365TIP3    H240587   5.823   2.265   0.114 -1.6051 -0.9759 -0.5590
 6366TIP3   OH240588   0.406   1.425   0.558  0.3937  0.1886 -0.6073
 6366TIP3    H140589   0.314   1.417   0.581  0.5767  1.4473  0.6162
 6366TIP3    H240590   0.423   1.350   0.500 -1.3138 -0.1919 -0.6372
 6367TIP3   OH240591   1.073   0.219  15.896 -0.0593  0.0217  0.2815
 6367TIP3    H140592   1.008   0.162  15.935  0.2633  0.2730  1.1868
 6367TIP3    H240593   1.129   0.246  15.968  0.4031  0.6726 -0.3050
 6368TIP3   OH240594   1.831   5.245  11.854 -0.6813  0.0311 -0.1815
 6368TIP3    H140595   1.743   5.280  11.840 -0.7391  0.1361  0.4154
 6368TIP3    H240596   1.836   5.230  11.949  0.3074  1.0020 -0.0690
 6369TIP3   OH240597   1.878   5.819   1.461  0.4867 -0.2248  0.3152
 6369TIP3    H140598   1.875   5.812   1.557  3.0165 -1.3796  0.3540
 6369TIP3    H240599   1.943   5.888   1.444  0.8059 -0.7300 -0.5679
 6370TIP3   OH240600   6.239   3.664   2.400  0.6159 -0.2236 -0.6665
 6370TIP3    H140601   6.273   3.707   2.321  0.0969 -0.1407 -0.8467
 6370TIP3    H240602   6.224   3.574   2.372  0.1900 -0.1318 -0.7329
 6371TIP3   OH240603   4.351   5.052   4.115  0.3581 -0.0623  0.0661
 6371TIP3    H140604   4.285   4.989   4.144 -0.6965  0.4437 -1.1768
 6371TIP3    H240605   4.367   5.106   4.192  1.9437 -2.3685  1.4132
 6372TIP3   OH240606   6.657   5.476   4.811  0.1152  0.1178 -0.1737
 6372TIP3    H140607   6.582   5.440   4.858  0.0520 -0.2292 -0.5480
 6372TIP3    H240608   6.632   5.567   4.794 -0.5014 -0.1784 -0.8880
 6373TIP3   OH240609   0.733   1.837   5.622 -0.4718  0.0566  0.3780
 6373TIP3    H140610   0.732   1.907   5.557  3.2140  2.2886  2.5748
 6373TIP3    H240611   0.758   1.759   5.573  0.4312  1.3446 -1.2532
 6374TIP3   OH240612   3.741   4.200  11.684  0.5065 -0.1694  0.3261
 6374TIP3    H140613   3.820   4.174  11.635  0.6054 -3.2014  1.9734
 6374TIP3    H240614   3.762   4.180  11.775 -1.0265  2.0131  1.1897
 6375TIP3   OH240615   4.120   5.221   0.010 -0.2373  0.1930  0.2812
 6375TIP3    H140616   4.192   5.168   0.045 -0.8290  0.2094  1.5612
 6375TIP3    H240617   4.162   5.284  -0.047  0.6519 -0.5700  0.0862
 6376TIP3   OH240618   1.514   4.554  17.256 -0.0125  0.6538  0.1522
 6376TIP3    H140619   1.596   4.603  17.265 -0.5255  1.5824 -0.1273
 6376TIP3    H240620   1.467   4.571  17.338 -0.1303  0.5068  0.1132
 6377TIP3   OH240621   2.284   2.890  15.514 -0.1879  0.2689  0.2471
 6377TIP3    H140622   2.312   2.982  15.516 -0.4542  0.3702 -0.3835
 6377TIP3    H240623   2.316   2.858  15.429 -0.5572 -0.0745  0.2361
 6378TIP3   OH240624   1.019   0.258  11.103  0.9316  0.4672 -1.1708
 6378TIP3    H140625   0.967   0.334  11.126  0.6218  0.6609 -2.4603
 6378TIP3    H240626   1.106   0.277  11.138  0.5579  0.8743 -0.4511
 6379TIP3   OH240627   1.860   5.593  11.011  0.5445  0.3142  0.2618
 6379TIP3    H140628   1.796   5.543  10.960 -0.4270  1.1184  0.6651
 6379TIP3    H240629   1.921   5.627  10.946 -1.5099  2.5563 -0.6070
 6380TIP3   OH240630   4.244   3.420  14.084 -0.5613 -0.2010  0.0589
 6380TIP3    H140631   4.179   3.484  14.115  0.1870 -0.1388  1.5475
 6380TIP3    H240632   4.326   3.448  14.125  0.6967  0.4345 -2.7547
 6381TIP3   OH240633   6.409   0.362  11.259  0.3372  0.2400 -0.1427
 6381TIP3    H140634   6.370   0.371  11.172  0.9540  0.8090 -0.3705
 6381TIP3    H240635   6.470   0.437  11.265  2.8478 -1.6969 -0.5821
 6382TIP3   OH240636   0.909   1.472  16.176 -0.5694  0.2021 -0.4559
 6382TIP3    H140637   0.851   1.480  16.252 -0.5149 -0.9100 -0.2808
 6382TIP3    H240638   0.851   1.450  16.103 -0.3565 -1.0632 -0.2490
 6383TIP3   OH240639   0.670   3.262  14.748  0.0159  0.4146  0.0727
 6383TIP3    H140640   0.736   3.199  14.719 -1.0938 -0.9638  0.4561
 6383TIP3    H240641   0.641   3.304  14.667 -0.1878 -0.5335 -0.3622
 6384TIP3   OH240642   3.114   6.518  16.938  0.2861 -0.0469 -0.0740
 6384TIP3    H140643   3.024   6.518  16.970  0.2273  0.1658 -0.2306
 6384TIP3    H240644   3.113   6.460  16.862  0.3034 -0.1216 -0.0152
 6385TIP3   OH240645   6.585   1.768   2.614 -0.2752  0.1165 -0.0829
 6385TIP3    H140646   6.641   1.723   2.552 -0.4491  0.2706 -0.3543
 6385TIP3    H240647   6.625   1.752   2.700 -0.1791 -0.3110 -0.2079
 6386TIP3   OH240648   0.905   6.344   1.511  0.5301 -0.3815 -0.6609
 6386TIP3    H140649   0.957   6.389   1.578  1.4013 -2.5376  0.1777
 6386TIP3    H240650   0.815   6.365   1.533  0.8251 -0.7446  1.0059
 6387TIP3   OH240651   0.317   2.510  16.665 -0.1880 -0.1246  0.6370
 6387TIP3    H140652   0.386   2.481  16.724  0.0102 -0.3332  0.3078
 6387TIP3    H240653   0.294   2.598  16.695  1.5022  0.7018 -0.3590
 6388TIP3   OH240654   6.515   0.825   2.991 -0.2824 -0.0593  0.1417
 6388TIP3    H140655   6.592   0.827   3.048 -0.6174  2.2216  0.5384
 6388TIP3    H240656   6.550   0.807   2.904  0.6291  0.2152  0.4488
 6389TIP3   OH240657   1.224   3.104  10.559 -0.0447 -0.2072  0.3076
 6389TIP3    H140658   1.268   3.063  10.633  0.1444 -1.4697 -0.4910
 6389TIP3    H240659   1.176   3.033  10.516 -1.3577  0.7949  0.0748
 6390TIP3   OH240660   6.051   3.405   4.451  0.3071 -0.1555 -0.0302
 6390TIP3    H140661   6.105   3.484   4.457  0.6492 -0.0923 -3.1478
 6390TIP3    H240662   5.968   3.434   4.414 -0.6518 -0.8406  1.4769
 6391TIP3   OH240663   5.051   1.777   5.246  0.3442  0.2018 -0.0365
 6391TIP3    H140664   5.035   1.849   5.185  2.8747 -0.0439 -1.0712
 6391TIP3    H240665   5.036   1.815   5.332  1.8075  2.0578 -0.5561
 6392TIP3   OH240666   5.170   2.961   1.346 -0.0854  0.8327  0.1303
 6392TIP3    H140667   5.123   3.042   1.369  0.5322  1.3171 -0.3081
 6392TIP3    H240668   5.243   2.957   1.408 -1.2619 -0.4524  1.4843
 6393TIP3   OH240669   1.171   3.188  12.794  0.4858  0.0376 -0.0827
 6393TIP3    H140670   1.113   3.175  12.719 -0.7098  3.1558  0.2048
 6393TIP3    H240671   1.113   3.215  12.865  1.7735 -1.5057  1.5966
 6394TIP3   OH240672   5.419   5.249  14.833 -0.0931  0.6347  0.2594
 6394TIP3    H140673   5.381   5.303  14.763  0.5685 -2.1809 -2.3884
 6394TIP3    H240674   5.508   5.281  14.843 -0.1574  0.9860 -0.2867
 6395TIP3   OH240675   1.355   0.307   2.907 -0.4308 -0.4395 -0.2969
 6395TIP3    H140676   1.309   0.223   2.899 -0.4701 -0.7075  2.1684
 6395TIP3    H240677   1.287   0.373   2.896 -0.2124 -0.6494 -3.4036
 6396TIP3   OH240678   2.646   4.166  16.898 -0.3964 -0.3866 -0.0568
 6396TIP3    H140679   2.561   4.198  16.867 -0.5970 -1.2111 -0.3660
 6396TIP3    H240680   2.685   4.125  16.820  1.0969  1.6603 -0.4261
 6397TIP3   OH240681   1.987   5.852   3.287  0.3309 -0.5706  0.2656
 6397TIP3    H140682   1.910   5.909   3.283  0.7383  0.0268  0.7981
 6397TIP3    H240683   1.998   5.820   3.197 -0.7868 -0.9951  0.2777
 6398TIP3   OH240684   5.815   6.625   5.627 -0.7326 -0.1955  0.2573
 6398TIP3    H140685   5.779   6.587   5.708  0.3276 -3.2512 -0.6532
 6398TIP3    H240686   5.760   6.590   5.557 -1.1990  1.8649 -0.4268
 6399TIP3   OH240687   2.584   5.025  14.791  0.0858 -0.3227  0.0938
 6399TIP3    H140688   2.679   5.015  14.791  0.3684  1.8910  0.8280
 6399TIP3    H240689   2.565   5.075  14.712 -0.4160 -0.5263  0.0870
 6400TIP3   OH240690   4.353   4.298  16.075  0.1911 -0.7028  0.8297
 6400TIP3    H140691   4.259   4.315  16.067  0.7250  1.4380 -1.4733
 6400TIP3    H240692   4.384   4.364  16.137  0.5386  0.0082 -0.0996
 6401TIP3   OH240693   4.659   2.923  10.528  0.2667 -0.0685 -0.2485
 6401TIP3    H140694   4.623   3.002  10.488  0.6438  0.1568 -0.1454
 6401TIP3    H240695   4.630   2.928  10.620 -1.1250 -0.8971 -0.6195
 6402TIP3   OH240696   1.232   1.271   5.805  0.1198 -0.5900 -0.0218
 6402TIP3    H140697   1.207   1.184   5.836 -0.4535 -0.3980  0.0669
 6402TIP3    H240698   1.167   1.329   5.844  0.7463 -0.0702  0.2625
 6403TIP3   OH240699   6.356   1.122  16.543  0.0855  0.2265 -0.3728
 6403TIP3    H140700   6.349   1.071  16.624  0.4515  1.8832  0.7214
 6403TIP3    H240701   6.269   1.161  16.531  0.4012  1.0409 -0.0562
 6404TIP3   OH240702   1.965   1.360  12.973  0.2030  0.0941 -0.4388
 6404TIP3    H140703   1.903   1.370  12.901  0.4268 -2.5534 -1.0344
 6404TIP3    H240704   1.925   1.407  13.047 -0.9621  1.1095 -1.6979
 6405TIP3   OH240705   4.529   4.449  11.870  0.2472 -0.3384 -0.2172
 6405TIP3    H140706   4.470   4.472  11.797  1.0423  0.5232 -0.5979
 6405TIP3    H240707   4.595   4.518  11.870  0.6757 -0.7396  0.8651
 6406TIP3   OH240708   4.609   1.903  15.384 -0.5872 -0.3301  0.8478
 6406TIP3    H140709   4.688   1.888  15.437 -0.3965  0.0022  0.6646
 6406TIP3    H240710   4.627   1.860  15.301 -1.4117 -1.9634  1.4953
 6407TIP3   OH240711   6.080   3.859   5.326 -1.0442 -0.3131  0.1401
 6407TIP3    H140712   6.066   3.918   5.252 -0.8957 -1.2939 -0.6760
 6407TIP3    H240713   6.076   3.771   5.288 -0.1491 -0.8017  1.1516
 6408TIP3   OH240714   5.154   0.855  16.737  0.5613  0.4519 -0.1767
 6408TIP3    H140715   5.095   0.811  16.675 -0.5400  0.5461  0.7814
 6408TIP3    H240716   5.161   0.944  16.705 -0.5672  0.6866  0.2128
 6409TIP3   OH240717   4.190   6.366  14.555  0.2179  0.4231 -0.2230
 6409TIP3    H140718   4.224   6.455  14.547  0.7856  0.2778  0.4862
 6409TIP3    H240719   4.104   6.377  14.594  0.7340  0.6025  0.8908
 6410TIP3   OH240720   6.688   5.434   2.394  0.4913  0.1341 -0.2381
 6410TIP3    H140721   6.680   5.411   2.487  0.7981  1.3203  0.0936
 6410TIP3    H240722   6.752   5.373   2.359 -0.2597 -0.8723  0.1334
 6411TIP3   OH240723   0.392   6.665  12.587  0.0918  0.0099 -0.0581
 6411TIP3    H140724   0.299   6.668  12.608  0.1266  1.2176 -0.0403
 6411TIP3    H240725   0.398   6.604  12.513 -0.5886 -0.7650  0.5154
 6412TIP3   OH240726   6.815   3.138   4.474 -0.2743 -0.1407 -0.0606
 6412TIP3    H140727   6.867   3.209   4.436 -0.9706 -0.7513 -2.2056
 6412TIP3    H240728   6.751   3.116   4.407 -0.4857 -2.3731  0.8170
 6413TIP3   OH240729   4.677   5.919   1.566  0.3827 -0.2619  0.3781
 6413TIP3    H140730   4.623   5.989   1.601 -1.3515 -0.3378 -2.0404
 6413TIP3    H240731   4.757   5.963   1.535 -0.3650  0.5471 -0.4249
 6414TIP3   OH240732   5.516   5.811   6.291  0.8052  0.0745 -0.6485
 6414TIP3    H140733   5.489   5.773   6.375 -1.3184 -0.4400 -1.5082
 6414TIP3    H240734   5.531   5.735   6.235  0.7308  0.4378 -1.1551
 6415TIP3   OH240735   0.752   6.369   3.971  0.3215 -0.2651  0.3501
 6415TIP3    H140736   0.727   6.307   4.039  0.9252 -0.4402  0.4109
 6415TIP3    H240737   0.773   6.315   3.895 -2.2379  0.0144 -0.6064
 6416TIP3   OH240738   1.450   3.367   4.023  0.0520  0.3281  0.1666
 6416TIP3    H140739   1.513   3.401   3.959 -1.4823 -0.4024 -1.8066
 6416TIP3    H240740   1.387   3.438   4.034  0.1957  0.3701  0.6920
 6417TIP3   OH240741   6.652   4.252  16.133  0.2279 -0.3309 -0.0170
 6417TIP3    H140742   6.572   4.295  16.165 -0.0047  1.1384 -2.4041
 6417TIP3    H240743   6.624   4.163  16.110 -0.8463  0.2792 -1.1566
 6418TIP3   OH240744   3.020   5.679   0.980 -0.3965 -0.0764 -0.1335
 6418TIP3    H140745   3.114   5.697   0.977 -0.6374  1.3007  0.2095
 6418TIP3    H240746   2.996   5.691   1.072 -0.9930  0.0513 -0.3023
 6419TIP3   OH240747   3.329   2.476   2.890 -0.2645  0.0323 -0.4588
 6419TIP3    H140748   3.300   2.565   2.908  1.7429  0.2893  1.8716
 6419TIP3    H240749   3.295   2.456   2.803 -1.5130  2.7320 -0.6291
 6420TIP3   OH240750   2.772   1.285  12.797 -0.5034 -0.0260  0.1597
 6420TIP3    H140751   2.688   1.323  12.822 -0.7231 -1.7909  2.1868
 6420TIP3    H240752   2.762   1.191  12.811  1.3068 -0.4410 -1.0987
 6421TIP3   OH240753   5.815   2.948   6.156 -0.0859 -0.2888  0.1855
 6421TIP3    H140754   5.861   2.974   6.236 -1.4176 -0.0453  0.8996
 6421TIP3    H240755   5.779   3.029   6.121 -1.7612 -0.7416  0.8116
 6422TIP3   OH240756   0.177   0.012  12.381 -0.0825  0.2912  0.3088
 6422TIP3    H140757   0.197  -0.050  12.451 -0.3006  0.8862  0.9006
 6422TIP3    H240758   0.102  -0.026  12.336  0.1991 -0.2036  0.2543
 6423TIP3   OH240759   4.149   1.752  15.775 -0.0863 -0.7911  0.0658
 6423TIP3    H140760   4.174   1.805  15.700 -2.6509  0.6551  0.1714
 6423TIP3    H240761   4.219   1.687  15.783  1.2600  0.2994 -2.2901
 6424TIP3   OH240762   1.489   1.970  13.361 -0.2287  0.0323 -0.3064
 6424TIP3    H140763   1.516   2.056  13.394  0.3119 -0.9968  2.0036
 6424TIP3    H240764   1.442   1.990  13.280  0.8865  2.4233 -0.4251
 6425TIP3   OH240765   2.008   6.538  14.675 -0.0638 -0.4899  0.1013
 6425TIP3    H140766   2.057   6.487  14.611  0.3127  1.5180 -1.2357
 6425TIP3    H240767   1.945   6.588  14.623 -0.7751  0.0467  1.4454
 6426TIP3   OH240768   5.146   4.898   5.516  0.0740  0.1325  0.3446
 6426TIP3    H140769   5.084   4.846   5.568 -1.6832 -1.4538 -3.2145
 6426TIP3    H240770   5.126   4.877   5.425  5.5838 -0.1183 -1.0024
 6427TIP3   OH240771   4.215   0.255  14.838 -0.6262  0.2799 -0.3176
 6427TIP3    H140772   4.275   0.181  14.825 -0.9153  0.3220 -1.9190
 6427TIP3    H240773   4.129   0.214  14.845 -0.3886  0.1667  2.5955
 6428TIP3   OH240774   2.685   0.900   6.676 -0.0019 -1.0412  0.1922
 6428TIP3    H140775   2.772   0.889   6.637 -0.4324 -1.4030 -0.6870
 6428TIP3    H240776   2.701   0.938   6.762  0.9235  0.8607 -0.7778
 6429TIP3   OH240777   1.102   5.891  11.614 -0.0869 -0.4736 -0.1063
 6429TIP3    H140778   1.150   5.828  11.560  0.2155 -1.2296  1.0093
 6429TIP3    H240779   1.114   5.975  11.571  0.8451 -0.9323 -0.7501
 6430TIP3   OH240780   1.139   0.850   3.036  0.2646  0.5454  0.0109
 6430TIP3    H140781   1.084   0.906   3.089  1.4818  0.2644  1.6004
 6430TIP3    H240782   1.160   0.776   3.093  2.4825  0.7722 -0.4867
 6431TIP3   OH240783   5.899   2.538  10.752  0.3658 -0.1430  0.0565
 6431TIP3    H140784   5.889   2.493  10.835  1.1413  0.1106  0.2906
 6431TIP3    H240785   5.837   2.611  10.757  1.6963  0.9416  1.1643
 6432TIP3   OH240786   0.904   0.166  16.923 -0.4213 -0.0277 -0.2817
 6432TIP3    H140787   0.932   0.257  16.917  0.1982 -0.2883 -1.7315
 6432TIP3    H240788   0.946   0.123  16.848 -1.0398 -1.4140  0.1396
 6433TIP3   OH240789   1.963   2.901   0.753  0.3414  0.3429  0.6214
 6433TIP3    H140790   2.026   2.968   0.777  1.7445 -0.8897  0.4709
 6433TIP3    H240791   1.957   2.907   0.657  1.1222 -0.2830  0.5205
 6434TIP3   OH240792   4.956   4.854   0.004  0.1396  1.4126  0.2724
 6434TIP3    H140793   5.022   4.792  -0.027 -1.6343  0.0206 -0.8580
 6434TIP3    H240794   4.960   4.927  -0.059 -0.1276  0.8268 -0.4373
 6435TIP3   OH240795   4.334   3.972   4.805  0.3553  0.4611 -0.9153
 6435TIP3    H140796   4.384   4.033   4.860 -1.7971  0.8678  0.6688
 6435TIP3    H240797   4.302   4.026   4.733 -0.2284  0.8591 -0.3616
 6436TIP3   OH240798   5.223   2.044  10.438 -0.0218 -0.4184  0.5055
 6436TIP3    H140799   5.158   2.114  10.449  1.1774  0.6705  0.7213
 6436TIP3    H240800   5.273   2.069  10.360  0.5550 -0.9110  0.7149
 6437TIP3   OH240801   4.348   4.010  13.387 -0.1995 -0.2689 -0.1608
 6437TIP3    H140802   4.436   4.016  13.424 -0.1896  0.3548 -0.2830
 6437TIP3    H240803   4.360   3.965  13.303 -0.4158 -3.0764  1.2512
 6438TIP3   OH240804   1.432   3.683   3.707  0.0649  0.2124  0.2870
 6438TIP3    H140805   1.366   3.635   3.757  0.3778  0.1496  0.6392
 6438TIP3    H240806   1.381   3.743   3.652 -0.3049 -0.1504  0.2291
 6439TIP3   OH240807   2.625   5.424   3.807 -0.5837 -0.4391 -0.0445
 6439TIP3    H140808   2.635   5.330   3.823 -0.1052 -0.5442 -0.9357
 6439TIP3    H240809   2.710   5.452   3.774 -0.9158  0.1839 -0.3743
 6440TIP3   OH240810   1.547   0.605  14.537 -0.8251 -0.1769 -0.0285
 6440TIP3    H140811   1.543   0.629  14.630  0.7275  0.1630 -0.0452
 6440TIP3    H240812   1.548   0.509  14.537  1.1076 -0.1724  0.4005
 6441TIP3   OH240813   0.893   1.280  14.476  0.6731 -0.0612 -0.3704
 6441TIP3    H140814   0.815   1.283  14.421 -0.4734 -1.2026  1.1408
 6441TIP3    H240815   0.950   1.216  14.434 -0.5675 -1.5805  0.2254
 6442TIP3   OH240816   0.014   5.476  16.524 -0.1290 -0.3345 -0.1731
 6442TIP3    H140817  -0.036   5.555  16.501 -1.1141 -0.7026  0.6538
 6442TIP3    H240818  -0.005   5.414  16.453 -3.5561 -1.6451  1.7693
 6443TIP3   OH240819   3.197   5.074   5.241  0.3263  0.1007 -0.4802
 6443TIP3    H140820   3.276   5.075   5.295  0.9502  0.4969 -1.3723
 6443TIP3    H240821   3.230   5.066   5.151 -0.7534 -1.9594 -0.7096
 6444TIP3   OH240822   4.461   1.173  14.748 -0.2777  0.1346  0.2242
 6444TIP3    H140823   4.399   1.107  14.718 -0.8659  0.4561  0.7490
 6444TIP3    H240824   4.441   1.186  14.840 -0.0117  0.8768  0.1836
 6445TIP3   OH240825   3.401   4.233   2.569  0.4256 -0.2078 -0.0930
 6445TIP3    H140826   3.332   4.289   2.604  1.8889  2.6501 -1.6171
 6445TIP3    H240827   3.480   4.260   2.616  1.2495 -0.6169 -1.2246
 6446TIP3   OH240828   0.593   5.377  16.384 -0.0483 -0.3400 -0.4372
 6446TIP3    H140829   0.528   5.354  16.450 -0.2433  1.3919 -0.0260
 6446TIP3    H240830   0.645   5.446  16.424 -0.1624  0.7281 -2.0942
 6447TIP3   OH240831   2.297   3.798   5.028  0.0024  0.7245  0.3631
 6447TIP3    H140832   2.277   3.792   4.934  1.8319 -4.2447  0.1272
 6447TIP3    H240833   2.387   3.831   5.031  0.6527 -0.9694  0.2109
 6448TIP3   OH240834   2.125   3.073   0.837 -0.2934 -0.3412 -0.6268
 6448TIP3    H140835   2.196   3.135   0.854  0.4613 -0.6396 -2.5699
 6448TIP3    H240836   2.149   2.996   0.888 -1.4828  1.0931  2.1807
 6449TIP3   OH240837   1.874   6.752   2.038 -0.0066 -0.5459  0.4373
 6449TIP3    H140838   1.847   6.695   2.110  2.2661 -1.6996  0.4235
 6449TIP3    H240839   1.914   6.692   1.974  1.6263  0.9451  0.0326
 6450TIP3   OH240840   0.657   0.792   2.940  0.0827  0.1098  0.0896
 6450TIP3    H140841   0.698   0.876   2.962 -0.1071 -0.4768  2.9419
 6450TIP3    H240842   0.663   0.786   2.845  3.4368  1.6777  0.1381
 6451TIP3   OH240843   2.616   3.874  16.065  0.3210 -0.3434 -0.4122
 6451TIP3    H140844   2.706   3.905  16.076  0.3276 -0.3724 -0.3808
 6451TIP3    H240845   2.596   3.828  16.147  0.5245 -0.9528 -0.7011
 6452TIP3   OH240846   6.669   2.119   6.277 -0.7345 -0.3201  0.6403
 6452TIP3    H140847   6.584   2.164   6.280 -0.0211  1.4482 -2.8135
 6452TIP3    H240848   6.727   2.173   6.331 -0.3773  1.9543 -1.8965
 6453TIP3   OH240849   6.735   4.551  15.360  0.3090  0.2953 -0.1906
 6453TIP3    H140850   6.645   4.518  15.357  0.8185 -1.0872 -0.6083
 6453TIP3    H240851   6.758   4.565  15.269  1.0092 -0.7434 -0.1806
 6454TIP3   OH240852   2.102   1.117   5.502 -0.7039 -0.1390 -0.2680
 6454TIP3    H140853   2.073   1.100   5.412  0.3171 -1.0750 -0.4410
 6454TIP3    H240854   2.062   1.200   5.525 -0.3611  0.4969 -1.8799
 6455TIP3   OH240855   1.109   2.705   3.795 -0.1627 -0.5358  0.4285
 6455TIP3    H140856   1.203   2.718   3.801 -0.4610  0.8780  2.5490
 6455TIP3    H240857   1.095   2.614   3.823  0.4706 -0.4062  1.1858
 6456TIP3   OH240858   1.026   5.147   2.253  0.3020 -0.3909 -0.3266
 6456TIP3    H140859   1.002   5.235   2.224 -1.1027  0.0847  2.1878
 6456TIP3    H240860   1.043   5.100   2.172 -0.8682  1.6451 -1.8191
 6457TIP3   OH240861   5.734   1.463  16.300  0.1569  0.1535 -0.3651
 6457TIP3    H140862   5.695   1.543  16.335 -0.8047 -0.1047 -0.8452
 6457TIP3    H240863   5.673   1.394  16.324  0.2924 -0.2464 -1.1616
 6458TIP3   OH240864   0.437   0.265   0.059 -0.0899  0.6532  0.0116
 6458TIP3    H140865   0.508   0.276   0.122  0.8277  1.7168 -1.1739
 6458TIP3    H240866   0.359   0.251   0.113  0.7384  1.1461  1.3704
 6459TIP3   OH240867   6.451   6.178  12.854  0.1359  0.7142 -0.2979
 6459TIP3    H140868   6.541   6.187  12.823 -0.0471  1.5330 -0.6030
 6459TIP3    H240869   6.452   6.213  12.943  0.4133 -0.5630  0.2050
 6460TIP3   OH240870   2.288   5.600   0.407 -0.1817  0.1879  0.4226
 6460TIP3    H140871   2.311   5.584   0.498  0.4424  1.7886  0.5593
 6460TIP3    H240872   2.334   5.681   0.384 -0.1116 -0.3348 -1.3916
 6461TIP3   OH240873   2.021   3.612   0.945 -0.4873  0.1625  0.6363
 6461TIP3    H140874   1.964   3.547   0.905 -1.4728  0.6474  1.2385
 6461TIP3    H240875   2.050   3.667   0.873  1.8873 -2.0671 -0.1873
 6462TIP3   OH240876   6.586   1.775   5.916 -0.3418 -0.3147  1.0883
 6462TIP3    H140877   6.510   1.811   5.869  0.8093  0.7244 -0.0162
 6462TIP3    H240878   6.574   1.804   6.006 -0.3104  1.4589  0.5476
 6463TIP3   OH240879   0.898   3.826   5.363  0.0470  0.2805 -0.0228
 6463TIP3    H140880   0.833   3.897   5.360  1.4091  1.5700  0.4375
 6463TIP3    H240881   0.951   3.839   5.284 -0.9517 -1.4805 -1.0185
 6464TIP3   OH240882   5.755   0.945   2.498 -0.2425 -0.4592 -0.6369
 6464TIP3    H140883   5.835   0.918   2.544 -0.0881 -0.6707 -1.0232
 6464TIP3    H240884   5.784   0.964   2.408  0.3735  4.8013  0.5185
 6465TIP3   OH240885   4.675   0.738   3.998  0.2486 -0.1133  0.5284
 6465TIP3    H140886   4.679   0.806   3.930 -2.5176  0.5995  0.9938
 6465TIP3    H240887   4.733   0.669   3.966  1.5071  1.5776 -0.9712
 6466TIP3   OH240888   6.033   1.946  10.609  0.0839  0.3374 -0.2921
 6466TIP3    H140889   5.952   1.995  10.625 -0.4087 -0.9864  1.3276
 6466TIP3    H240890   6.098   2.013  10.589 -0.9554  1.5449  0.3274
 6467TIP3   OH240891   3.808   2.769   3.105  0.6037  0.4784 -0.2320
 6467TIP3    H140892   3.836   2.702   3.167  0.2246 -0.4538 -1.0643
 6467TIP3    H240893   3.844   2.851   3.140  0.7482 -0.0999  0.9874
 6468TIP3   OH240894   6.105   6.284   1.324  0.1227  0.2851  1.0187
 6468TIP3    H140895   6.159   6.363   1.333 -0.2191  0.3039  3.1311
 6468TIP3    H240896   6.156   6.215   1.366 -0.6982 -0.0745  1.4467
 6469TIP3   OH240897   1.080   2.882  11.266  0.5999  0.4489 -0.1154
 6469TIP3    H140898   1.102   2.806  11.212 -0.0861  0.5716 -0.5657
 6469TIP3    H240899   1.158   2.937  11.264  1.6024 -0.8639  1.2929
 6470TIP3   OH240900   4.219   0.990  11.004 -0.0793 -0.4199  0.2904
 6470TIP3    H140901   4.298   0.942  11.030 -0.5749 -1.8330 -0.7320
 6470TIP3    H240902   4.250   1.054  10.940  0.4924  0.2127  1.1871
 6471TIP3   OH240903   1.489   1.335  12.829 -0.4265 -0.3457 -0.3634
 6471TIP3    H140904   1.405   1.324  12.872 -0.3404  2.1797  0.5534
 6471TIP3    H240905   1.551   1.352  12.900  0.2085  1.2252 -1.2591
 6472TIP3   OH240906   5.354   4.373  16.876  0.4968 -0.1486  0.4655
 6472TIP3    H140907   5.294   4.347  16.805 -0.7014  0.7256  1.1510
 6472TIP3    H240908   5.389   4.290  16.908 -1.3442 -0.7661  0.9205
 6473TIP3   OH240909   5.761   5.532  14.125  0.1453 -0.5464  0.2670
 6473TIP3    H140910   5.811   5.604  14.163 -0.6121 -0.4794  1.1428
 6473TIP3    H240911   5.751   5.470  14.197  0.3787 -1.3070 -0.3573
 6474TIP3   OH240912   2.398   0.710   2.394  0.4643 -0.2628  0.0823
 6474TIP3    H140913   2.409   0.637   2.333 -0.0235  0.3004 -0.6928
 6474TIP3    H240914   2.303   0.723   2.398  0.5001 -0.2941  0.9603
 6475TIP3   OH240915   2.001   4.920   2.873 -0.1538 -0.3504  0.3899
 6475TIP3    H140916   2.088   4.959   2.879 -0.5067  0.6761 -0.9905
 6475TIP3    H240917   1.943   4.986   2.913 -0.2823 -1.1366  1.5308
 6476TIP3   OH240918   5.462   4.067  16.442  0.6948  0.8525  0.7782
 6476TIP3    H140919   5.482   4.002  16.510  0.3692  0.0072  0.0707
 6476TIP3    H240920   5.497   4.029  16.361  0.7294  1.6752  0.3996
 6477TIP3   OH240921   3.014   2.193  16.538 -0.0494 -0.3921 -0.6962
 6477TIP3    H140922   2.992   2.284  16.522  0.9157  0.0041  0.1351
 6477TIP3    H240923   3.043   2.191  16.630  1.2587 -1.2656 -1.1064
 6478TIP3   OH240924   5.017   6.117  16.800 -0.3000  0.1287  0.1679
 6478TIP3    H140925   5.110   6.143  16.797  0.3701 -2.1434  0.4630
 6478TIP3    H240926   4.988   6.145  16.887  0.0641  1.0002  0.0145
 6479TIP3   OH240927   2.444   5.871   0.271 -0.1534 -0.1892  1.0102
 6479TIP3    H140928   2.531   5.908   0.282 -0.1624 -0.0279  0.5520
 6479TIP3    H240929   2.397   5.936   0.218 -0.9219  0.3037  2.2681
 6480TIP3   OH240930   1.435   4.683   0.823  0.2997  0.3042  0.2270
 6480TIP3    H140931   1.392   4.751   0.874 -0.2078 -1.4047  2.1681
 6480TIP3    H240932   1.432   4.714   0.732 -2.5147  1.5252  0.6944
 6481TIP3   OH240933   4.501   0.283  15.478 -0.0024 -0.6851  0.2062
 6481TIP3    H140934   4.496   0.375  15.453 -0.7027 -1.2709 -1.9272
 6481TIP3    H240935   4.507   0.284  15.574 -0.2693  1.5494  0.2182
 6482TIP3   OH240936   4.831   3.551   6.809 -0.0424 -0.0613 -0.3978
 6482TIP3    H140937   4.872   3.636   6.827 -0.9925  0.1114  1.0064
 6482TIP3    H240938   4.881   3.516   6.735  1.9155  0.6417  0.5595
 6483TIP3   OH240939   4.504   1.811  14.258 -0.0962 -0.5816  0.4568
 6483TIP3    H140940   4.475   1.724  14.284  1.1038 -0.6834  1.4772
 6483TIP3    H240941   4.547   1.798  14.174  0.1475 -0.9851  0.6427
 6484TIP3   OH240942   4.139   2.463   0.611 -0.0106 -0.1463 -0.2624
 6484TIP3    H140943   4.127   2.371   0.633  0.6008  0.1317  1.3565
 6484TIP3    H240944   4.077   2.509   0.668 -0.0563  0.4550 -0.7949
 6485TIP3   OH240945   0.796   2.088   3.177  0.6324  0.3218  0.0214
 6485TIP3    H140946   0.741   2.139   3.236  1.8021  3.1285 -1.1961
 6485TIP3    H240947   0.857   2.042   3.235 -0.7248 -0.0596  1.1701
 6486TIP3   OH240948   2.303   3.726   4.456  0.2506  0.4696 -0.0170
 6486TIP3    H140949   2.257   3.643   4.439  0.3578  0.4160 -0.0470
 6486TIP3    H240950   2.319   3.762   4.369 -0.7501  1.0457  0.0351
 6487TIP3   OH240951   1.635   4.982  12.107  0.5928  0.3302 -0.0555
 6487TIP3    H140952   1.635   4.999  12.013 -0.6403  0.1606 -0.0867
 6487TIP3    H240953   1.581   4.904  12.118  2.3471 -0.8019  0.6002
 6488TIP3   OH240954   3.324   3.575   3.384  0.4888 -0.5186  0.0526
 6488TIP3    H140955   3.256   3.633   3.349 -0.2476 -1.9361 -0.8885
 6488TIP3    H240956   3.319   3.497   3.330  3.4344 -0.3374 -0.5569
 6489TIP3   OH240957   3.277   4.426   0.460 -0.2708 -0.3470 -0.3765
 6489TIP3    H140958   3.224   4.477   0.400  0.0320  0.7953  0.3081
 6489TIP3    H240959   3.362   4.417   0.416 -0.1783  0.1338 -0.2933
 6490TIP3   OH240960   3.561   1.739  13.141  0.5195  0.0899 -0.5786
 6490TIP3    H140961   3.505   1.786  13.202 -0.8457  1.5642 -2.9100
 6490TIP3    H240962   3.566   1.650  13.177 -1.6071  0.4874  0.7826
 6491TIP3   OH240963   5.269   2.996   2.917  0.7719 -0.1210 -0.1394
 6491TIP3    H140964   5.249   2.903   2.915  2.4991 -0.4831 -2.1241
 6491TIP3    H240965   5.339   3.004   2.982 -0.4520  0.0431  1.1817
 6492TIP3   OH240966   1.177   1.424  12.437 -0.3540  0.0415 -0.2384
 6492TIP3    H140967   1.162   1.482  12.512 -0.0813 -0.3284  0.1069
 6492TIP3    H240968   1.090   1.389  12.417 -0.5284  0.6060 -0.4823
 6493TIP3   OH240969   1.040   6.803   0.476  0.1018  0.0579  0.6506
 6493TIP3    H140970   1.091   6.791   0.557 -1.6076  1.4910  1.9830
 6493TIP3    H240971   0.987   6.723   0.471 -0.5805  0.4411  1.5541
 6494TIP3   OH240972   5.607   1.385  13.020  0.1739  0.5379  0.1220
 6494TIP3    H140973   5.654   1.453  12.970 -0.8918  2.3333  1.4759
 6494TIP3    H240974   5.530   1.365  12.966  1.7711 -1.4434 -1.4705
 6495TIP3   OH240975   2.630   0.600   0.089  0.5293 -0.6603  0.3076
 6495TIP3    H140976   2.628   0.584   0.184  1.5666  2.2283  0.8495
 6495TIP3    H240977   2.723   0.608   0.068  0.2593 -0.3235 -0.7942
 6496TIP3   OH240978   2.359   1.743  13.037  0.0517 -0.6828  0.0588
 6496TIP3    H140979   2.366   1.797  12.958  0.1970  0.1109  0.6186
 6496TIP3    H240980   2.318   1.662  13.006  2.7245 -1.5736 -1.4289
 6497TIP3   OH240981   5.161   1.569  14.788  0.2012  0.1655 -0.0376
 6497TIP3    H140982   5.099   1.590  14.719 -0.3179 -0.9166  0.0997
 6497TIP3    H240983   5.240   1.619  14.765 -0.7160  1.5696 -0.1838
 6498TIP3   OH240984   2.544   5.151   2.870  0.0239  0.1552  0.4481
 6498TIP3    H140985   2.611   5.194   2.818  1.2148 -0.6804  1.2514
 6498TIP3    H240986   2.462   5.193   2.845  0.5249 -0.4712 -2.3324
 6499TIP3   OH240987   0.708   0.347  12.050 -0.2729  0.3910 -0.4791
 6499TIP3    H140988   0.668   0.260  12.040 -0.1567  0.1219  1.1716
 6499TIP3    H240989   0.679   0.396  11.973 -1.9212 -0.5068 -0.4579
 6500TIP3   OH240990   0.652   1.251   5.962  0.7318  0.3617 -0.0726
 6500TIP3    H140991   0.558   1.263   5.950  0.6656 -1.1549 -1.1963
 6500TIP3    H240992   0.686   1.340   5.973 -1.2369  0.7584  3.7348
 6501TIP3   OH240993   0.870   4.437   1.722  0.1779 -0.7808 -0.2773
 6501TIP3    H140994   0.782   4.447   1.759  0.1940 -0.4649 -0.3211
 6501TIP3    H240995   0.878   4.510   1.660  1.4114  0.6784  1.5507
 6502TIP3   OH240996   6.134   0.949  16.384  0.2321  0.4143  0.1682
 6502TIP3    H140997   6.102   1.013  16.322  2.2693  1.9151  0.5928
 6502TIP3    H240998   6.176   0.882  16.330 -0.4199  0.3113 -0.2077
 6503TIP3   OH240999   2.912   4.799  13.821  0.5792  0.1093 -0.3229
 6503TIP3    H141000   2.947   4.756  13.900  0.7456  0.8634  0.0165
 6503TIP3    H241001   2.885   4.886  13.851 -0.5713 -0.0694 -0.8310
 6504TIP3   OH241002   4.981   4.941  10.585 -0.2124  0.1289 -0.3511
 6504TIP3    H141003   5.028   5.016  10.620 -2.5893  0.5106  2.2434
 6504TIP3    H241004   4.969   4.960  10.492  0.4619  2.2522 -0.0146
 6505TIP3   OH241005   3.234   0.245  12.385  0.1948  0.0097 -0.2248
 6505TIP3    H141006   3.212   0.210  12.471  0.5728 -0.0973 -0.1708
 6505TIP3    H241007   3.323   0.215  12.368  0.5260  0.9365 -0.1742
 6506TIP3   OH241008   5.963   3.572   6.414 -0.0157 -0.5227  0.5713
 6506TIP3    H141009   5.995   3.660   6.394 -0.5401  0.7205  4.6645
 6506TIP3    H241010   5.913   3.583   6.496 -2.1988 -4.1936 -0.1602
 6507TIP3   OH241011   4.019   3.133  11.740  0.2040 -0.1699  0.2493
 6507TIP3    H141012   3.963   3.170  11.807 -0.6372  0.0049 -0.5373
 6507TIP3    H241013   4.001   3.185  11.662  0.7789 -0.7043 -0.2491
 6508TIP3   OH241014   1.717   3.378   3.066  0.8390  0.4091 -0.3471
 6508TIP3    H141015   1.759   3.397   3.150 -1.0483  1.3458  0.4343
 6508TIP3    H241016   1.632   3.340   3.090  0.6537 -0.1613 -1.8507
 6509TIP3   OH241017   4.799   3.895  13.352 -0.6487 -0.0002 -0.3861
 6509TIP3    H141018   4.810   3.822  13.291 -2.1771  0.3194 -1.0535
 6509TIP3    H241019   4.871   3.884  13.414  0.7321 -0.5306 -2.0228
 6510TIP3   OH241020   0.819   1.763  16.373 -0.0771  0.1659  0.0203
 6510TIP3    H141021   0.891   1.809  16.329 -0.2881 -0.3905 -0.9020
 6510TIP3    H241022   0.788   1.826  16.438  1.4679  0.2863  0.6859
 6511TIP3   OH241023   5.648   4.571  17.008 -0.5405 -0.4702  0.0864
 6511TIP3    H141024   5.585   4.609  16.947 -0.4410 -0.0080  0.2703
 6511TIP3    H241025   5.596   4.512  17.063 -1.0619  0.9199  1.1176
 6512TIP3   OH241026   5.243   5.239   1.704 -0.1971 -0.0961  0.6726
 6512TIP3    H141027   5.164   5.292   1.706 -1.5257 -2.0057  0.5244
 6512TIP3    H241028   5.232   5.177   1.777  0.8497 -0.7946  0.2543
 6513TIP3   OH241029   2.142   5.400  16.875 -0.5127  0.2207  0.2819
 6513TIP3    H141030   2.055   5.380  16.908  0.0830 -2.9605  0.1277
 6513TIP3    H241031   2.199   5.337  16.918  1.5066  1.3735 -0.6275
 6514TIP3   OH241032   4.251   6.738  14.610  0.4861  0.0231 -0.1820
 6514TIP3    H141033   4.255   6.806  14.678  0.8387 -0.9567  0.7786
 6514TIP3    H241034   4.165   6.699  14.621  0.9359 -0.8266  0.3801
 6515TIP3   OH241035   0.625   5.082  16.318  0.0091 -0.0798  0.0654
 6515TIP3    H141036   0.625   5.170  16.356  0.0745  0.2715 -0.7449
 6515TIP3    H241037   0.673   5.029  16.382  0.5045  0.6013  0.2665
 6516TIP3   OH241038   3.065   4.421  12.843  0.5021  0.0015 -0.1615
 6516TIP3    H141039   3.108   4.397  12.925 -0.0990  0.8296  0.4000
 6516TIP3    H241040   3.132   4.407  12.776  0.4346 -2.4569  0.2303
 6517TIP3   OH241041   5.385   4.853   3.357  0.1344  0.1504 -0.4469
 6517TIP3    H141042   5.403   4.794   3.430  0.6837  0.4986 -0.2934
 6517TIP3    H241043   5.403   4.802   3.279  2.0428  0.5551 -0.2910
 6518TIP3   OH241044   4.150   3.932  12.354 -0.1907  0.3653 -0.3504
 6518TIP3    H141045   4.191   4.016  12.334 -0.1445  0.1568 -1.1629
 6518TIP3    H241046   4.087   3.919  12.282  0.3343 -0.6392 -0.6328
 6519TIP3   OH241047   2.953   1.343  16.482  0.5881 -0.5515  0.1915
 6519TIP3    H141048   2.952   1.273  16.547  0.6042 -1.3753 -0.6853
 6519TIP3    H241049   2.861   1.368  16.472  0.6048 -0.3072  0.6620
 6520TIP3   OH241050   0.893   0.875  10.863 -0.3904  1.0000 -0.6954
 6520TIP3    H141051   0.939   0.929  10.798 -1.0012  1.2570 -0.9267
 6520TIP3    H241052   0.921   0.786  10.845  0.8630  1.2620 -0.1236
 6521TIP3   OH241053   2.669   2.123  15.571  0.1273 -0.0000  0.1405
 6521TIP3    H141054   2.742   2.112  15.510  1.5527  1.6462  1.4932
 6521TIP3    H241055   2.595   2.078  15.529  2.2954 -3.1180 -0.4929
 6522TIP3   OH241056   5.962   6.099   1.546 -0.3838  0.8452 -0.1444
 6522TIP3    H141057   5.995   6.114   1.634 -2.3085  1.2202  0.5355
 6522TIP3    H241058   5.988   6.178   1.497 -0.1073  1.0445  0.3197
 6523TIP3   OH241059   3.714   5.664   4.897  0.0169  0.2739  0.9792
 6523TIP3    H141060   3.771   5.623   4.962  1.1085 -1.4049 -0.9893
 6523TIP3    H241061   3.647   5.599   4.879 -0.3853  0.7996  0.5621
 6524TIP3   OH241062   3.719   2.661  12.066  0.4194  0.0303  0.3610
 6524TIP3    H141063   3.807   2.685  12.093  0.8818  0.2657 -1.3033
 6524TIP3    H241064   3.673   2.744  12.056  0.5423  0.0052 -0.4870
 6525TIP3   OH241065   3.609   6.389  14.337  0.3430 -0.6476 -0.2413
 6525TIP3    H141066   3.517   6.395  14.361 -0.0347 -2.2933 -1.2668
 6525TIP3    H241067   3.648   6.336  14.407  0.4240 -0.3590 -0.0668
 6526TIP3   OH241068   5.730   3.609  15.444  0.0704 -0.0642  0.2199
 6526TIP3    H141069   5.644   3.628  15.406 -0.3745 -2.0747  0.1697
 6526TIP3    H241070   5.746   3.682  15.504 -2.4173 -0.4647  1.4444
 6527TIP3   OH241071   4.855   3.133  12.132  0.0140  0.6943  0.5874
 6527TIP3    H141072   4.780   3.192  12.131  2.3857  3.8660  0.9235
 6527TIP3    H241073   4.878   3.124  12.225  0.5327  0.4168  0.4377
 6528TIP3   OH241074   6.565   6.315   1.417 -0.1894 -0.0249  0.3731
 6528TIP3    H141075   6.581   6.242   1.357 -0.1869 -1.1360  1.7048
 6528TIP3    H241076   6.650   6.360   1.424  0.0076 -0.3650  0.1796
 6529TIP3   OH241077   1.974   1.232  15.082 -0.3634 -0.1355  0.0618
 6529TIP3    H141078   1.929   1.247  15.166 -0.1177 -0.5963  0.2747
 6529TIP3    H241079   1.997   1.320  15.052  0.1184 -0.0065  0.7929
 6530TIP3   OH241080   3.173   2.788  13.733  0.1354  0.1420  0.1176
 6530TIP3    H141081   3.166   2.709  13.788 -0.1744 -0.7714 -1.2019
 6530TIP3    H241082   3.266   2.810  13.735  0.6626 -1.7289 -1.4647
 6531TIP3   OH241083   3.153   5.337   4.401  0.0639  0.0502  0.1646
 6531TIP3    H141084   3.233   5.291   4.373 -0.9433 -1.5531 -0.1368
 6531TIP3    H241085   3.120   5.379   4.322  2.1136  3.1425  0.8420
 6532TIP3   OH241086   1.443   3.789  11.792 -0.8999  0.9247  0.1805
 6532TIP3    H141087   1.494   3.826  11.720 -0.9302  2.1444  0.7659
 6532TIP3    H241088   1.508   3.766  11.858 -0.7644 -1.2827 -0.6812
 6533TIP3   OH241089   2.732   3.799  14.587  0.1201  0.1031 -0.0617
 6533TIP3    H141090   2.642   3.810  14.618  0.2167  0.2512  0.1682
 6533TIP3    H241091   2.739   3.858  14.512 -0.0090  0.0073 -0.1480
 6534TIP3   OH241092   3.205   3.125  14.656 -1.1962 -0.2278 -0.2277
 6534TIP3    H141093   3.220   3.138  14.563  0.8362  1.8500  0.3479
 6534TIP3    H241094   3.161   3.204  14.685 -1.3408 -0.6305  0.6649
 6535TIP3   OH241095   1.717   3.570   1.195  0.3681  0.3048  0.1218
 6535TIP3    H141096   1.785   3.633   1.173  1.6456  0.0522  3.1000
 6535TIP3    H241097   1.744   3.489   1.152 -0.7779  1.4437 -2.9174
 6536TIP3   OH241098   3.618   6.368   0.153  0.8015 -0.4205 -0.1209
 6536TIP3    H141099   3.587   6.304   0.217  0.6216  0.0108  0.2300
 6536TIP3    H241100   3.701   6.399   0.188  0.2815  0.4591  0.3602
 6537TIP3   OH241101   5.178   5.576  13.400 -0.4781 -0.0705 -0.0043
 6537TIP3    H141102   5.168   5.653  13.343 -0.5840 -0.0138  0.0909
 6537TIP3    H241103   5.169   5.611  13.488  0.3682 -0.0502  0.0781
 6538TIP3   OH241104   6.500   2.222  15.999 -0.2525 -0.3823  0.1612
 6538TIP3    H141105   6.504   2.313  15.969  0.0160 -0.5561 -0.3423
 6538TIP3    H241106   6.568   2.177  15.948 -0.3905 -0.8632  0.3996
 6539TIP3   OH241107   2.532   1.816  17.152  0.8199 -0.2331  0.5061
 6539TIP3    H141108   2.535   1.791  17.060  1.4005 -2.0008  0.9869
 6539TIP3    H241109   2.459   1.766  17.188  1.2401 -0.3261  1.2308
 6540TIP3   OH241110   0.640   1.976  15.747 -0.2618  0.0445  0.4919
 6540TIP3    H141111   0.611   1.900  15.697 -0.2102 -0.1265  0.7163
 6540TIP3    H241112   0.658   2.043  15.682 -1.6033  0.3064  0.3890
 6541TIP3   OH241113   6.584   1.927  12.713 -0.8137 -0.3641 -0.1598
 6541TIP3    H141114   6.655   1.897  12.769 -0.9036  0.4995  0.4324
 6541TIP3    H241115   6.526   1.975  12.772 -0.3813  1.4641 -1.1753
 6542TIP3   OH241116   0.949   1.832  12.742 -0.4953 -0.0667  0.0786
 6542TIP3    H141117   0.936   1.883  12.822 -2.1394  0.6631 -0.6339
 6542TIP3    H241118   0.864   1.833  12.699 -0.2093 -2.3187 -0.6002
 6543TIP3   OH241119   5.576   5.303   3.023  0.5134  0.2505  0.4579
 6543TIP3    H141120   5.644   5.292   3.090 -0.2186 -0.0478  1.1670
 6543TIP3    H241121   5.624   5.328   2.944  1.2543  2.1614  1.4819
 6544TIP3   OH241122   2.427   2.058   1.817 -0.1796 -0.3630 -0.1791
 6544TIP3    H141123   2.411   2.024   1.729  0.1610  0.2009 -0.4605
 6544TIP3    H241124   2.343   2.046   1.863 -0.1177 -1.3742 -0.3372
 6545TIP3   OH241125   3.970   6.675   1.463 -0.0736 -0.3208 -0.2290
 6545TIP3    H141126   3.882   6.654   1.434  1.0440 -0.1595 -4.0846
 6545TIP3    H241127   3.972   6.771   1.465 -0.6640 -0.3392  2.2390
 6546TIP3   OH241128   4.305   0.767  17.109  0.1158 -0.5617  0.3106
 6546TIP3    H141129   4.330   0.676  17.091 -2.1253 -0.9285 -1.1374
 6546TIP3    H241130   4.219   0.760  17.152 -0.4452  0.8922 -0.5393
 6547TIP3   OH241131   5.422   4.394   5.183  0.2091  0.6914  0.1753
 6547TIP3    H141132   5.470   4.469   5.221 -0.3649  0.5950  1.1084
 6547TIP3    H241133   5.340   4.391   5.232 -0.2196  0.0883 -0.5782
 6548TIP3   OH241134   0.277   1.687  14.073  0.0589  0.4268  0.1601
 6548TIP3    H141135   0.225   1.609  14.097 -0.1770  0.6623  0.4231
 6548TIP3    H241136   0.226   1.729  14.004 -0.4078  0.9910  0.8476
 6549TIP3   OH241137   1.089   1.433   1.344  0.0393  0.5269 -0.0614
 6549TIP3    H141138   1.032   1.386   1.405  0.8427 -1.0311 -0.4898
 6549TIP3    H241139   1.158   1.469   1.399  0.2002 -0.0079  0.0934
 6550TIP3   OH241140   5.278   6.249   5.793 -0.0744 -0.1772  0.0519
 6550TIP3    H141141   5.230   6.286   5.719 -0.1859  0.4845  0.4493
 6550TIP3    H241142   5.254   6.305   5.867  1.6670  0.4449  0.1583
 6551TIP3   OH241143   6.711   0.651  16.231 -0.8303  0.5658  0.3447
 6551TIP3    H141144   6.802   0.621  16.232 -0.7544  0.3992 -3.6704
 6551TIP3    H241145   6.663   0.583  16.277  0.6541 -0.9980 -0.3650
 6552TIP3   OH241146   2.315   4.961   3.351 -0.2312  0.1196  0.0305
 6552TIP3    H141147   2.349   4.873   3.331 -2.9513 -0.7408 -1.0994
 6552TIP3    H241148   2.363   5.019   3.292 -0.4163 -1.0057 -1.2600
 6553TIP3   OH241149   0.168   0.179  14.620  0.4438 -0.2732 -0.3978
 6553TIP3    H141150   0.078   0.162  14.592  0.0269 -0.4506  1.0016
 6553TIP3    H241151   0.164   0.267  14.658  1.1154  0.1822 -1.3630
 6554TIP3   OH241152   4.852   2.262   3.763  0.3989  0.2259 -0.2166
 6554TIP3    H141153   4.771   2.211   3.771  0.1478  0.7297  0.5215
 6554TIP3    H241154   4.866   2.270   3.669 -0.2064 -0.1881 -0.3457
 6555TIP3   OH241155   4.419   3.101  14.800 -0.1577  0.3072  0.1983
 6555TIP3    H141156   4.374   3.039  14.857 -0.1770  0.0478 -0.0984
 6555TIP3    H241157   4.440   3.175  14.857  1.7788 -0.8831  1.0947
 6556TIP3   OH241158   2.935   6.220  14.655 -0.5705  0.3297  0.2263
 6556TIP3    H141159   3.010   6.275  14.677 -0.5404  0.2196  0.3984
 6556TIP3    H241160   2.920   6.236  14.562  1.0008 -1.2699 -0.3176
 6557TIP3   OH241161   0.374   5.889   4.672 -0.2894  0.5135 -0.2196
 6557TIP3    H141162   0.454   5.871   4.621 -0.6973  2.2758 -1.5246
 6557TIP3    H241163   0.351   5.804   4.710  0.8340 -0.5503 -1.8175
 6558TIP3   OH241164   4.578   5.698  14.513 -0.2380  0.1560  0.0957
 6558TIP3    H141165   4.592   5.656  14.429  0.4992  1.9279 -0.7111
 6558TIP3    H241166   4.666   5.706  14.550 -0.5871 -0.8716  1.1747
 6559TIP3   OH241167   5.940   4.694  14.649 -0.2425  0.3255  0.5821
 6559TIP3    H141168   5.938   4.627  14.717 -0.8034 -1.4674 -1.1242
 6559TIP3    H241169   6.028   4.686  14.610 -1.1248 -1.1098 -1.1971
 6560TIP3   OH241170   4.935   4.608   2.748 -0.2903 -0.0794 -0.2300
 6560TIP3    H141171   4.996   4.572   2.683  0.3710 -0.3493  0.5210
 6560TIP3    H241172   4.886   4.675   2.701  2.5758  2.1690 -0.1458
 6561TIP3   OH241173   6.071   6.593   5.369  0.8107 -0.1496  0.2406
 6561TIP3    H141174   6.027   6.555   5.444  1.1969 -0.4098  0.3396
 6561TIP3    H241175   6.058   6.688   5.378 -1.0153 -0.3009 -0.5495
 6562TIP3   OH241176   5.074   6.814  11.728  0.0195  0.5489  0.1963
 6562TIP3    H141177   4.996   6.866  11.711  0.8708  0.8742 -3.2372
 6562TIP3    H241178   5.059   6.731  11.683  0.9368 -0.0631  0.9807
 6563TIP3   OH241179   6.137   1.227  12.726 -0.3807  0.3744 -0.2248
 6563TIP3    H141180   6.073   1.197  12.662  0.7415 -0.8434 -0.7890
 6563TIP3    H241181   6.221   1.223  12.679  0.2772  0.6958  0.9183
 6564TIP3   OH241182   4.709   4.894   3.913  0.5521 -0.0370  0.2222
 6564TIP3    H141183   4.708   4.962   3.845 -3.2110  0.1565  0.3245
 6564TIP3    H241184   4.706   4.812   3.864 -1.2896  0.0824  0.0879
 6565TIP3   OH241185   1.330   3.925  13.524 -0.2056  0.0881  0.2483
 6565TIP3    H141186   1.384   3.904  13.600 -0.4304  0.1585  0.4286
 6565TIP3    H241187   1.379   3.890  13.450 -1.0052 -1.8487  0.6153
 6566TIP3   OH241188   3.695   4.534  15.671 -0.1899  0.5845  0.5402
 6566TIP3    H141189   3.740   4.555  15.753  0.8327 -0.3214  0.2221
 6566TIP3    H241190   3.609   4.501  15.699  0.2408  0.0427  1.2624
 6567TIP3   OH241191   3.535   4.044  15.350  0.7510  0.0186 -0.3778
 6567TIP3    H141192   3.599   3.976  15.372  0.4603  0.4330  1.8507
 6567TIP3    H241193   3.587   4.115  15.311  1.4865 -0.1173  0.3591
 6568TIP3   OH241194   6.384   5.804   4.395 -0.3003 -0.1765  0.3221
 6568TIP3    H141195   6.396   5.773   4.305 -0.1781 -0.6745  0.5114
 6568TIP3    H241196   6.300   5.766   4.422 -1.8465  2.3826 -0.6079
 6569TIP3   OH241197   5.693   2.079  13.521 -0.0875  0.0795  0.3898
 6569TIP3    H141198   5.744   2.138  13.465  0.1828 -1.6827 -1.2563
 6569TIP3    H241199   5.607   2.075  13.478  0.1826 -1.4261 -0.0297
 6570TIP3   OH241200   0.428   6.145   5.487  0.1502 -0.0838  0.9190
 6570TIP3    H141201   0.425   6.055   5.453  1.5704  0.3656 -0.4494
 6570TIP3    H241202   0.354   6.188   5.445  1.5127  0.2956 -1.1964
 6571TIP3   OH241203   3.790   2.353   1.121  0.0772  0.3077 -0.2984
 6571TIP3    H141204   3.696   2.372   1.120  0.2541  1.1480 -1.5977
 6571TIP3    H241205   3.802   2.291   1.049  0.3477 -0.7472  0.6289
 6572TIP3   OH241206   2.391   1.161  15.660  0.4013  0.3345  0.2398
 6572TIP3    H141207   2.425   1.074  15.639 -1.3580 -0.0542 -1.0169
 6572TIP3    H241208   2.333   1.147  15.735  1.5685  0.7399  1.2510
 6573TIP3   OH241209   6.197   3.411  12.116  0.0656  0.2790 -0.2564
 6573TIP3    H141210   6.237   3.425  12.030  2.2929 -0.8425  0.5584
 6573TIP3    H241211   6.104   3.397  12.097  0.5425 -0.0868 -2.5092
 6574TIP3   OH241212   2.055   0.661  14.846 -0.3939 -0.0594  0.2007
 6574TIP3    H141213   2.068   0.728  14.779  2.5446  0.7201  1.4452
 6574TIP3    H241214   2.027   0.709  14.924 -0.6718 -0.5657  0.4204
 6575TIP3   OH241215   4.101   2.433   6.084 -0.0431  0.2751 -0.6048
 6575TIP3    H141216   4.177   2.383   6.114  1.6111  2.5439 -0.8655
 6575TIP3    H241217   4.053   2.454   6.164 -0.2062 -0.8590 -0.3979
 6576TIP3   OH241218   6.182   0.075   4.883 -0.4177 -0.2787  0.0416
 6576TIP3    H141219   6.108   0.026   4.845 -0.4012  0.7743 -1.3933
 6576TIP3    H241220   6.257   0.018   4.872  0.0093  0.8829 -3.5824
 6577TIP3   OH241221   3.815   4.382  13.540 -0.4946  0.1586 -0.7686
 6577TIP3    H141222   3.747   4.331  13.583  1.5297 -1.4240  0.6656
 6577TIP3    H241223   3.768   4.442  13.482 -3.1468  0.0999  1.2408
 6578TIP3   OH241224   6.130   4.452  15.064 -0.3988 -0.0824 -0.1179
 6578TIP3    H141225   6.187   4.383  15.030 -0.3285  0.5319 -1.2440
 6578TIP3    H241226   6.176   4.533  15.047 -1.4358  0.3976 -0.6879
 6579TIP3   OH241227   2.982   4.686  11.059  0.1629 -0.2756  0.1998
 6579TIP3    H141228   3.057   4.746  11.057 -0.3576  0.3819  0.2965
 6579TIP3    H241229   2.995   4.633  11.138 -0.2622  0.8587  1.0400
 6580TIP3   OH241230   6.100   4.956   0.626 -0.5247  0.1123  0.1307
 6580TIP3    H141231   6.184   4.933   0.665  0.0573  2.5294  0.4043
 6580TIP3    H241232   6.035   4.927   0.690  0.0919 -1.5616  0.0231
 6581TIP3   OH241233   1.692   0.792  11.951 -0.1452 -0.3440  0.3739
 6581TIP3    H141234   1.710   0.824  12.039 -1.2623  2.1477 -0.2489
 6581TIP3    H241235   1.598   0.806  11.939  0.2215  0.5383 -1.6471
 6582TIP3   OH241236   4.967   3.372   0.275  0.6601 -0.0746 -0.1666
 6582TIP3    H141237   4.998   3.290   0.314  2.2960  0.2860 -0.6664
 6582TIP3    H241238   4.874   3.357   0.258  0.6187 -1.3153  1.0538
 6583TIP3   OH241239   3.754   4.020   5.332 -0.2962  0.6848  0.2412
 6583TIP3    H141240   3.836   4.017   5.282  0.2075  4.3864  0.7546
 6583TIP3    H241241   3.687   4.044   5.267 -0.4356  0.8505  0.4476
 6584TIP3   OH241242   5.358   5.274   3.989  0.2443 -0.6731 -0.6676
 6584TIP3    H141243   5.282   5.225   4.021  0.1178  0.0075  0.0787
 6584TIP3    H241244   5.421   5.268   4.060  0.2254  0.2563 -0.5755
 6585TIP3   OH241245   4.269   1.066  12.774  0.2424 -0.1907  0.4218
 6585TIP3    H141246   4.302   1.142  12.726  0.2185  0.1428  0.9295
 6585TIP3    H241247   4.242   1.101  12.859 -2.1423 -0.2998 -0.2507
 6586TIP3   OH241248   5.636   5.005  13.824 -0.3532 -0.0292  0.1594
 6586TIP3    H141249   5.649   4.975  13.734 -0.6789  0.0374  0.0905
 6586TIP3    H241250   5.724   5.032  13.852 -0.0843 -0.9334  0.1852
 6587TIP3   OH241251   2.450   0.392   3.952 -0.4534 -0.0164  0.0527
 6587TIP3    H141252   2.503   0.360   3.879 -0.4129 -0.1345  0.1348
 6587TIP3    H241253   2.388   0.452   3.911  0.1760  0.6372  0.0489
 6588TIP3   OH241254   2.007   5.297  12.322 -0.0090 -0.0211 -0.1324
 6588TIP3    H141255   2.055   5.340  12.251 -1.2944 -2.1728 -2.4288
 6588TIP3    H241256   1.981   5.368  12.380  2.0180  1.6921 -1.2365
 6589TIP3   OH241257   4.192   5.379  16.003 -1.0829 -0.0741  0.4730
 6589TIP3    H141258   4.151   5.309  16.053  0.4474 -0.7668  0.7670
 6589TIP3    H241259   4.190   5.349  15.913 -0.7354 -0.3481  0.5561
 6590TIP3   OH241260   0.368   4.089  16.864 -0.4873  0.0933 -0.6149
 6590TIP3    H141261   0.387   4.183  16.861 -2.9443  0.6025 -1.2972
 6590TIP3    H241262   0.417   4.057  16.940 -0.7294  2.1924  0.4555
 6591TIP3   OH241263   3.992   0.720  17.219  0.6108  0.1536  0.1828
 6591TIP3    H141264   4.033   0.737  17.304 -2.0486 -0.8707  1.7239
 6591TIP3    H241265   3.958   0.805  17.191  1.0411  0.3926  0.3819
 6592TIP3   OH241266   3.276   2.196   3.472 -0.3763 -0.0214  0.1967
 6592TIP3    H141267   3.270   2.200   3.568  1.6736 -0.4678  0.3611
 6592TIP3    H241268   3.225   2.271   3.442  0.2509  1.0257  1.6839
 6593TIP3   OH241269   2.894   2.519  13.000 -0.3534  1.2458 -1.0464
 6593TIP3    H141270   2.964   2.517  13.065 -1.4013 -0.8142  0.0585
 6593TIP3    H241271   2.815   2.536  13.051 -0.6269  4.5163 -2.3760
 6594TIP3   OH241272   5.007   0.361   0.062  0.5732 -0.4108  0.0977
 6594TIP3    H141273   5.061   0.290   0.026 -0.6544 -1.1963 -0.2292
 6594TIP3    H241274   4.933   0.367   0.002  1.0225  1.6397 -0.2576
 6595TIP3   OH241275   6.257   0.351  14.259 -0.2698 -0.5820  0.2279
 6595TIP3    H141276   6.235   0.424  14.201  0.5985 -0.2446  0.3101
 6595TIP3    H241277   6.177   0.335  14.309 -0.6001  0.0279 -0.0979
 6596TIP3   OH241278   6.346   1.249  13.956  0.6308 -0.0719 -0.1828
 6596TIP3    H141279   6.335   1.171  13.902 -0.9315 -0.7217  1.0549
 6596TIP3    H241280   6.278   1.309  13.927  0.4816  0.0051  0.3214
 6597TIP3   OH241281   5.499   5.232   4.231  0.4151 -0.5416 -0.5230
 6597TIP3    H141282   5.421   5.241   4.285 -0.0165  1.9446 -1.5091
 6597TIP3    H241283   5.562   5.294   4.268  2.0165 -2.5828  0.3217
 6598TIP3   OH241284   6.375   6.780   2.183  0.2568 -0.1247  0.1682
 6598TIP3    H141285   6.425   6.782   2.101 -0.0306  2.0655  0.0017
 6598TIP3    H241286   6.438   6.807   2.250  0.1559 -0.6438  0.4759
 6599TIP3   OH241287   2.864   5.649  16.796  0.1758 -0.1617  0.2915
 6599TIP3    H141288   2.855   5.575  16.736 -0.6070  0.5947 -0.5513
 6599TIP3    H241289   2.927   5.707  16.753  1.3633 -0.6848  1.3126
 6600TIP3   OH241290   2.499   2.437  15.320  0.4622  0.1310 -0.4899
 6600TIP3    H141291   2.541   2.519  15.346  1.3796 -0.1027 -1.2007
 6600TIP3    H241292   2.483   2.448  15.226 -2.2745  0.7360 -0.0246
 6601TIP3   OH241293   1.389   5.676   3.786  0.2094  0.3085 -0.1538
 6601TIP3    H141294   1.428   5.592   3.760 -0.0951 -0.3761  1.5080
 6601TIP3    H241295   1.464   5.732   3.809  0.3514 -0.1180  0.4530
 6602TIP3   OH241296   4.826   5.194  13.734 -0.3732  0.2628  0.4445
 6602TIP3    H141297   4.909   5.158  13.765  0.5115  1.6331 -0.3036
 6602TIP3    H241298   4.770   5.197  13.811  0.8890  1.0611  1.3338
 6603TIP3   OH241299   2.629   2.336  16.154  0.1640  0.0939 -0.2890
 6603TIP3    H141300   2.608   2.360  16.064  0.6503 -2.3317 -1.0900
 6603TIP3    H241301   2.632   2.419  16.201 -1.8217  1.2510 -2.1310
 6604TIP3   OH241302   6.314   2.962   5.904  0.1062  0.0325 -0.2711
 6604TIP3    H141303   6.387   2.943   5.846  0.6491 -3.1998  1.3693
 6604TIP3    H241304   6.238   2.968   5.846  0.5339 -3.7062 -1.3372
 6605TIP3   OH241305   2.396   1.576  12.238  0.6029  0.0427  0.1956
 6605TIP3    H141306   2.401   1.481  12.227  0.8768  0.1133 -0.3264
 6605TIP3    H241307   2.344   1.606  12.164  1.4054  0.4059 -0.2338
 6606TIP3   OH241308   0.888   2.530  13.965 -0.2112  0.2828 -0.1856
 6606TIP3    H141309   0.972   2.501  14.002 -0.2787 -0.3831 -0.5540
 6606TIP3    H241310   0.887   2.494  13.877 -0.6895  0.6720 -0.3395
 6607TIP3   OH241311   3.050   5.263   2.232  0.2765  0.0059 -0.0243
 6607TIP3    H141312   3.115   5.224   2.290 -1.3339 -0.8395  1.2760
 6607TIP3    H241313   2.971   5.211   2.247 -0.6749  0.9612 -1.6168
 6608TIP3   OH241314   5.432   1.880  13.565 -0.0676  0.6409  0.3399
 6608TIP3    H141315   5.389   1.929  13.635  1.7523  2.2879  0.3560
 6608TIP3    H241316   5.430   1.939  13.489 -1.6304 -0.9580 -0.8938
 6609TIP3   OH241317   1.416   5.833   4.877 -0.0612 -0.3802 -0.2589
 6609TIP3    H141318   1.464   5.755   4.906 -1.1670 -1.2620 -0.7613
 6609TIP3    H241319   1.398   5.817   4.784 -2.9737 -0.9457  0.3739
 6610TIP3   OH241320   1.275   5.502  15.065  0.2417  0.4772  0.4459
 6610TIP3    H141321   1.252   5.537  15.152  0.0795 -0.1498  0.6592
 6610TIP3    H241322   1.348   5.443  15.082  0.0621  0.1788  0.1853
 6611TIP3   OH241323   4.046   2.115   4.805 -0.1931 -0.2993 -0.4475
 6611TIP3    H141324   3.963   2.097   4.761 -0.4874 -1.6921  0.6632
 6611TIP3    H241325   4.022   2.123   4.898  0.7639  0.3243 -0.2525
 6612TIP3   OH241326   2.959   3.172  11.158 -0.5279  0.2487  0.9210
 6612TIP3    H141327   2.904   3.163  11.080  0.1068 -0.1046  0.5121
 6612TIP3    H241328   3.014   3.094  11.157 -0.7022  0.1147  1.8667
 6613TIP3   OH241329   1.122   1.837  15.788 -0.4938 -0.1282 -0.1816
 6613TIP3    H141330   1.128   1.790  15.705 -3.1931 -1.4806  0.3565
 6613TIP3    H241331   1.064   1.911  15.769 -1.0708 -0.4112  0.5049
 6614TIP3   OH241332   6.688   1.422   5.059  0.0324 -0.1055 -0.4555
 6614TIP3    H141333   6.641   1.377   5.129  0.1601  1.0925  0.4303
 6614TIP3    H241334   6.635   1.409   4.981 -1.2303  0.3586  0.3241
 6615TIP3   OH241335   2.153   1.337   3.138  0.0158 -0.1704  0.1048
 6615TIP3    H141336   2.172   1.279   3.065  2.7360 -0.6592  1.1575
 6615TIP3    H241337   2.213   1.411   3.126  0.2210 -0.0776  1.6421
 6616TIP3   OH241338   6.010   4.666   2.729 -0.0972  0.6828  0.3480
 6616TIP3    H141339   6.044   4.605   2.663 -2.5715  0.1129 -0.4621
 6616TIP3    H241340   6.028   4.753   2.694  1.6496  0.4311  0.5638
 6617TIP3   OH241341   6.110   3.112   3.330  0.1987  0.3950  0.7895
 6617TIP3    H141342   6.139   3.039   3.275 -0.1730  0.2772  0.7510
 6617TIP3    H241343   6.102   3.075   3.418 -0.1590  0.3495  0.7364
 6618TIP3   OH241344   0.885   1.692   2.210  0.4567 -0.2900 -0.2816
 6618TIP3    H141345   0.888   1.724   2.300 -0.9135 -0.2899 -0.2325
 6618TIP3    H241346   0.875   1.597   2.219 -1.9516 -0.0835 -0.4043
 6619TIP3   OH241347   2.154   4.521   3.024  0.4130  0.3118  0.0268
 6619TIP3    H141348   2.192   4.602   3.057  0.0252  0.5448 -0.0982
 6619TIP3    H241349   2.098   4.548   2.951 -0.7104  0.0816  0.7831
 6620TIP3   OH241350   5.891   4.255  14.159 -0.3024 -0.2854 -0.0042
 6620TIP3    H141351   5.805   4.294  14.178  0.2627  0.1939  1.6606
 6620TIP3    H241352   5.942   4.326  14.121 -0.1466 -0.1397  0.4731
 6621TIP3   OH241353   3.215   5.432  16.598 -0.1534  0.0398 -0.0334
 6621TIP3    H141354   3.239   5.399  16.685  1.1038  1.4012  0.1515
 6621TIP3    H241355   3.211   5.527  16.608  1.3178  0.3139 -1.7713
 6622TIP3   OH241356   4.340   5.335   2.447 -0.1059  0.4059  0.3042
 6622TIP3    H141357   4.377   5.409   2.494 -0.7900  2.1388 -1.8074
 6622TIP3    H241358   4.256   5.318   2.490 -1.6525  3.2482 -1.4565
 6623TIP3   OH241359   0.061   2.571   0.720 -1.3010  0.0899  0.1932
 6623TIP3    H141360   0.152   2.602   0.717 -1.1984 -0.0830  1.1408
 6623TIP3    H241361   0.015   2.638   0.771 -1.3971 -0.5467  0.9521
 6624TIP3   OH241362   3.786   6.352   2.731  0.1759 -0.0262  0.0362
 6624TIP3    H141363   3.777   6.351   2.636  0.6150 -0.6052 -0.0015
 6624TIP3    H241364   3.741   6.273   2.761  0.7874 -0.3021  0.2357
 6625TIP3   OH241365   2.384   4.574  14.407 -0.1962 -0.2049 -0.2771
 6625TIP3    H141366   2.296   4.609  14.419  0.2732  0.9325 -0.0412
 6625TIP3    H241367   2.397   4.572  14.312 -0.0009  0.8739 -0.2816
 6626TIP3   OH241368   1.067   6.678  14.463  0.0874 -0.2309 -0.0918
 6626TIP3    H141369   1.120   6.669  14.383 -0.1715  0.5168 -0.3509
 6626TIP3    H241370   0.993   6.619  14.449  1.0999 -1.6819  0.4932
 6627TIP3   OH241371   1.882   3.222   0.532  0.0864 -0.2898 -0.2743
 6627TIP3    H141372   1.949   3.281   0.497 -0.6081 -0.1831 -1.4469
 6627TIP3    H241373   1.884   3.146   0.474 -1.5209  0.1673 -0.9378
 6628TIP3   OH241374   6.599   6.034  12.002 -0.2466 -0.4592  0.2831
 6628TIP3    H141375   6.547   6.103  12.043 -1.5832  0.8562 -3.4144
 6628TIP3    H241376   6.535   5.964  11.985  0.3124 -1.0170  0.4560
 6629TIP3   OH241377   5.186   3.772  16.478 -0.0510  0.3893  0.0826
 6629TIP3    H141378   5.251   3.733  16.537 -3.1663 -1.7672  2.2404
 6629TIP3    H241379   5.176   3.862  16.510  0.3447  0.1030  1.0545
 6630TIP3   OH241380   5.323   4.512   4.511 -0.3948  0.1335  0.2911
 6630TIP3    H141381   5.393   4.576   4.505  1.0442 -1.5743 -2.0654
 6630TIP3    H241382   5.243   4.563   4.497  0.8035  1.2746 -2.8189
 6631TIP3   OH241383   2.595   6.086  11.964  0.4128  0.0075 -0.5871
 6631TIP3    H141384   2.545   6.138  12.027  0.6087  1.9843 -2.0056
 6631TIP3    H241385   2.549   6.002  11.961  1.0491 -0.5196  2.9571
 6632TIP3   OH241386   1.727   5.027  16.901  0.8530 -0.0303 -0.2880
 6632TIP3    H141387   1.715   4.932  16.901 -0.3797  0.1137  0.8209
 6632TIP3    H241388   1.790   5.042  16.971  2.1058 -0.1373 -1.3679
 6633TIP3   OH241389   2.068   1.845  14.167 -0.6299 -0.0889  0.4646
 6633TIP3    H141390   2.031   1.931  14.153  2.9683  1.3629 -0.8477
 6633TIP3    H241391   2.023   1.788  14.104  0.4200  1.9195 -2.1914
 6634TIP3   OH241392   2.954   4.774   4.084  0.3735  0.7230  1.0634
 6634TIP3    H141393   2.874   4.789   4.134 -0.4747 -0.4153  0.0923
 6634TIP3    H241394   2.953   4.843   4.017  0.3133  0.8242  1.1671
 6635TIP3   OH241395   4.851   0.663   0.077 -0.4475 -0.0837 -0.7466
 6635TIP3    H141396   4.845   0.604   0.152 -0.8853  2.1118  0.9810
 6635TIP3    H241397   4.920   0.724   0.100  1.3451 -1.0332 -3.3677
 6636TIP3   OH241398   2.108   3.629   6.033  0.2335  0.3456  0.3637
 6636TIP3    H141399   2.090   3.591   6.119  1.4446  0.5925  0.7365
 6636TIP3    H241400   2.164   3.705   6.051 -0.1966  0.8935 -0.5718
 6637TIP3   OH241401   3.277   5.802  15.674  0.1628 -0.2042  0.0354
 6637TIP3    H141402   3.248   5.711  15.669  0.5753 -0.4249  1.3054
 6637TIP3    H241403   3.250   5.830  15.762  0.3973  0.7628 -0.1999
 6638TIP3   OH241404   4.470   5.412   5.958 -0.6576  0.2813  0.2473
 6638TIP3    H141405   4.389   5.451   5.992 -0.6363  1.8387 -1.3950
 6638TIP3    H241406   4.539   5.472   5.987 -0.1570 -0.6205  0.9677
 6639TIP3   OH241407   6.767   1.078   3.635 -0.5383 -0.5763  0.5220
 6639TIP3    H141408   6.804   1.014   3.695  0.2434 -0.3551  0.2775
 6639TIP3    H241409   6.840   1.136   3.613 -1.0997  0.0525  0.2864
 6640TIP3   OH241410   0.982   6.068  17.144  0.7090  0.1262  0.5943
 6640TIP3    H141411   1.026   6.060  17.059  0.3289 -0.1821  0.4219
 6640TIP3    H241412   0.892   6.095  17.122  0.0940 -1.7245  0.7885
 6641TIP3   OH241413   1.872   5.815   2.706 -0.4607 -0.0699  0.1952
 6641TIP3    H141414   1.792   5.800   2.655  1.2594 -0.8732 -2.3821
 6641TIP3    H241415   1.901   5.902   2.678  1.7619 -1.4645 -2.1031
 6642TIP3   OH241416   6.682   4.873  12.716 -0.4850  0.2673 -0.9414
 6642TIP3    H141417   6.608   4.814  12.729 -0.5391  0.7728  1.2576
 6642TIP3    H241418   6.685   4.887  12.622 -4.0301  1.2672 -0.9797
 6643TIP3   OH241419   4.272   4.251  17.277  0.2565 -0.4574 -0.1112
 6643TIP3    H141420   4.199   4.246  17.338  0.5646  0.4339  0.3450
 6643TIP3    H241421   4.309   4.339  17.291  2.4238 -1.4790  0.8677
 6644TIP3   OH241422   6.368   4.404  14.716  0.3280 -0.1834  0.2652
 6644TIP3    H141423   6.462   4.390  14.707  0.5346 -0.0109  2.0579
 6644TIP3    H241424   6.355   4.424  14.809 -1.3508  0.7664 -0.1521
 6645TIP3   OH241425   0.734   0.552   1.317  0.4550  0.1873  0.3132
 6645TIP3    H141426   0.723   0.624   1.254  1.9308  0.4925  0.3966
 6645TIP3    H241427   0.736   0.473   1.263 -0.3257  0.2734  0.1517
 6646TIP3   OH241428   5.464   5.760  15.617  0.2755 -0.1200 -0.5154
 6646TIP3    H141429   5.447   5.736  15.526 -0.4529 -1.5101 -0.0240
 6646TIP3    H241430   5.387   5.729  15.665  1.5370 -1.2051  0.8781
 6647TIP3   OH241431   1.044   1.554  13.251  0.3463 -0.0449  0.3512
 6647TIP3    H141432   0.981   1.570  13.181  2.0272 -1.7115 -1.6213
 6647TIP3    H241433   1.000   1.493  13.310 -1.1815  1.5740  0.9186
 6648TIP3   OH241434   3.784   4.749   2.865 -0.0358  0.0723  0.0917
 6648TIP3    H141435   3.775   4.823   2.805 -0.6830 -1.2636 -1.4991
 6648TIP3    H241436   3.835   4.685   2.815 -2.9217 -2.1558 -0.0817
 6649TIP3   OH241437   2.139   0.112   2.742 -0.4770 -0.2382 -0.1475
 6649TIP3    H141438   2.171   0.177   2.805 -0.2857  2.3345 -2.7950
 6649TIP3    H241439   2.061   0.152   2.703 -0.3353 -1.5783 -1.8622
 6650TIP3   OH241440   4.987   1.458  17.110 -0.6550 -0.2307  0.0223
 6650TIP3    H141441   5.042   1.413  17.046  0.3574 -0.3609  0.9860
 6650TIP3    H241442   4.970   1.393  17.178  0.5698  0.7335  1.2798
 6651TIP3   OH241443   4.233   5.770  11.022  0.0930  0.0372 -0.3537
 6651TIP3    H141444   4.221   5.676  11.013 -1.5776  0.1918  0.0911
 6651TIP3    H241445   4.222   5.805  10.933 -2.0556  0.0900 -0.0770
 6652TIP3   OH241446   6.208   0.640  16.550 -0.2126  0.1581 -0.7850
 6652TIP3    H141447   6.159   0.660  16.470 -0.7090 -1.1636 -0.8157
 6652TIP3    H241448   6.202   0.720  16.602 -0.7117  0.6949 -1.6501
 6653TIP3   OH241449   0.681   4.007   3.015 -0.3566  0.5118  0.1904
 6653TIP3    H141450   0.740   4.075   2.981 -0.8425  0.5046 -0.6871
 6653TIP3    H241451   0.729   3.968   3.088  0.5092  0.8646 -0.1827
 6654TIP3   OH241452   5.323   1.366   5.005 -0.1143 -0.3304  0.0893
 6654TIP3    H141453   5.408   1.407   5.022  1.0483 -2.0697 -1.3465
 6654TIP3    H241454   5.322   1.288   5.061 -0.8053 -0.2818  0.1559
 6655TIP3   OH241455   5.154   1.590  16.529 -0.5919 -0.2994 -0.2362
 6655TIP3    H141456   5.212   1.664  16.513 -1.4115  0.1081 -1.3241
 6655TIP3    H241457   5.151   1.583  16.625  1.4004 -0.4522 -0.1788
 6656TIP3   OH241458   2.169   4.163  16.373 -0.2275 -0.4693  0.0565
 6656TIP3    H141459   2.208   4.185  16.457 -0.3174 -1.3359  0.3336
 6656TIP3    H241460   2.155   4.068  16.377 -4.1936  0.0612  0.7645
 6657TIP3   OH241461   1.868   0.888  12.871 -0.3532 -0.5814 -0.2359
 6657TIP3    H141462   1.869   0.862  12.779 -1.5827 -0.1134 -0.3864
 6657TIP3    H241463   1.779   0.918  12.886  0.1259  0.3054  0.8439
 6658TIP3   OH241464   2.570   6.637   0.527 -0.2668  0.4816 -0.1096
 6658TIP3    H141465   2.491   6.605   0.483  0.0519 -0.2461 -0.1483
 6658TIP3    H241466   2.641   6.582   0.494 -0.0876 -0.3403  1.5931
 6659TIP3   OH241467   6.292   1.757  15.054 -0.8097  0.3168 -0.0858
 6659TIP3    H141468   6.320   1.834  15.104  1.5917 -0.5516 -0.0306
 6659TIP3    H241469   6.287   1.687  15.118  1.6322 -0.6434 -0.8745
 6660TIP3   OH241470   4.863   0.031   2.724  0.1538  0.0964 -0.3250
 6660TIP3    H141471   4.857   0.122   2.752 -0.9831 -0.0629 -0.0079
 6660TIP3    H241472   4.952   0.021   2.692 -0.0359  1.6283 -1.4011
 6661TIP3   OH241473   0.348   0.868   3.228 -0.1749 -0.2802  0.3557
 6661TIP3    H141474   0.395   0.828   3.302 -1.1284 -1.6234  0.2649
 6661TIP3    H241475   0.410   0.865   3.156  1.2364  2.2219  1.3915
 6662TIP3   OH241476   4.234   0.420  16.289  0.0963 -0.2073 -0.0984
 6662TIP3    H141477   4.281   0.504  16.283  0.8283 -0.5517  0.8180
 6662TIP3    H241478   4.227   0.403  16.382 -0.1036 -1.1451 -0.2846
 6663TIP3   OH241479   1.581   1.012  12.867  0.1828 -0.5804 -0.1060
 6663TIP3    H141480   1.550   1.086  12.815  0.7778  0.5227  1.0748
 6663TIP3    H241481   1.519   0.941  12.847  0.1030 -0.0354 -1.8934
 6664TIP3   OH241482   2.054   5.509  11.199  0.0182 -0.0280  0.0886
 6664TIP3    H141483   2.037   5.417  11.222 -2.9169  0.3833 -0.2576
 6664TIP3    H241484   1.980   5.534  11.144  0.5006  2.7231  0.6283
 6665TIP3   OH241485   2.608   4.976  15.702  0.0428  0.1237 -0.6753
 6665TIP3    H141486   2.648   5.053  15.662  0.0405  0.5486  0.1121
 6665TIP3    H241487   2.524   5.007  15.736 -0.3239 -0.4244 -1.0678
 6666TIP3   OH241488   5.975   0.515   4.480 -0.0761 -0.3815 -0.2696
 6666TIP3    H141489   6.037   0.497   4.409  0.4473  0.4643 -0.0265
 6666TIP3    H241490   5.903   0.454   4.463  0.6652 -1.1535 -0.7353
 6667TIP3   OH241491   0.669   1.949  13.901 -0.5777 -0.4343  0.0373
 6667TIP3    H141492   0.638   1.955  13.991 -0.7865  0.0678 -0.0650
 6667TIP3    H241493   0.763   1.969  13.907  0.0966 -3.5112  0.5508
 6668TIP3   OH241494   2.147   6.213  10.690  0.0212 -0.5330  0.1694
 6668TIP3    H141495   2.148   6.143  10.756  1.2107 -0.6799  0.0123
 6668TIP3    H241496   2.064   6.202  10.644 -0.8118 -0.4543  1.6222
 6669TIP3   OH241497   6.080   4.455   0.418 -0.0309  0.6114  0.1902
 6669TIP3    H141498   6.018   4.388   0.447  0.7631  0.3454  1.3365
 6669TIP3    H241499   6.048   4.482   0.332  0.2495 -2.0511 -0.8084
 6670TIP3   OH241500   1.418   5.923  16.437 -0.1613 -0.4123 -0.0983
 6670TIP3    H141501   1.446   5.886  16.353 -1.0431 -0.1873 -0.4965
 6670TIP3    H241502   1.455   6.011  16.438  2.1993 -1.3704  0.9898
 6671TIP3   OH241503   3.871   5.322  16.961  0.1357 -0.1395  0.0454
 6671TIP3    H141504   3.823   5.358  16.887 -0.4931  0.8854  0.9361
 6671TIP3    H241505   3.882   5.230  16.940  2.1746  0.6362 -2.4920
 6672TIP3   OH241506   0.388   4.554  15.214 -0.0202 -0.2010 -0.6090
 6672TIP3    H141507   0.339   4.479  15.181  1.2811 -0.7740 -1.2756
 6672TIP3    H241508   0.480   4.534  15.195  0.4635  0.9943  0.3223
 6673TIP3   OH241509   3.807   6.088   1.714 -0.6522 -0.2985 -0.5620
 6673TIP3    H141510   3.821   6.062   1.623 -0.4989 -0.3054 -0.5363
 6673TIP3    H241511   3.712   6.083   1.726 -0.5941 -1.2292 -0.4384
 6674TIP3   OH241512   2.707   3.824  15.637 -0.0506  0.1968  0.0355
 6674TIP3    H141513   2.667   3.907  15.663  0.0606  0.3593 -0.3200
 6674TIP3    H241514   2.718   3.830  15.542 -2.5285 -1.2982 -0.3893
 6675TIP3   OH241515   2.563   5.491  13.401  0.2550 -0.1072 -0.1526
 6675TIP3    H141516   2.646   5.522  13.434  0.5622 -0.8611 -0.1976
 6675TIP3    H241517   2.542   5.414  13.455 -0.4133  0.0890 -0.1272
 6676TIP3   OH241518   0.959   5.545   5.211 -0.0838  0.0901 -0.4001
 6676TIP3    H141519   0.987   5.609   5.145 -1.0625 -0.3093 -1.2077
 6676TIP3    H241520   0.991   5.461   5.179  1.6352  0.2064  0.9082
 6677TIP3   OH241521   0.904   5.656   1.978  0.4970  0.1821 -0.0704
 6677TIP3    H141522   0.869   5.610   2.054  0.6708 -1.4462 -0.9561
 6677TIP3    H241523   0.826   5.694   1.936  0.6537  3.2663  2.2843
 6678TIP3   OH241524   1.972   2.379  16.417 -0.3555  0.2262 -0.0253
 6678TIP3    H141525   1.925   2.340  16.491 -0.0028  0.6556  0.4317
 6678TIP3    H241526   2.065   2.370  16.441 -0.0785 -2.7152 -1.9538
 6679TIP3   OH241527   1.556   4.790   3.470 -0.6387  0.0582  0.2920
 6679TIP3    H141528   1.516   4.704   3.462 -0.9266 -0.0540  2.5936
 6679TIP3    H241529   1.650   4.773   3.475 -0.6002 -0.0122 -0.6274
 6680TIP3   OH241530   3.535   5.465  15.778 -0.1310 -0.3781  0.2409
 6680TIP3    H141531   3.539   5.375  15.809 -3.4413 -0.9283 -0.6734
 6680TIP3    H241532   3.494   5.513  15.851 -0.4131 -0.0543 -0.1311
 6681TIP3   OH241533   3.515   5.579  12.896 -0.0657  0.2662 -0.3038
 6681TIP3    H141534   3.542   5.494  12.931 -0.5017 -0.0243 -0.6472
 6681TIP3    H241535   3.448   5.610  12.957  0.5199  0.6433  0.1470
 6682TIP3   OH241536   3.828   5.187   1.329 -0.6941 -0.3171 -0.3205
 6682TIP3    H141537   3.764   5.149   1.269 -3.1010  1.6166  0.9352
 6682TIP3    H241538   3.876   5.250   1.274  0.2534 -1.8599 -1.2958
 6683TIP3   OH241539   6.553   1.806  16.401  0.6840 -0.7020  0.2703
 6683TIP3    H141540   6.468   1.769  16.425  0.7526 -1.0091  0.0446
 6683TIP3    H241541   6.532   1.880  16.344  0.5395 -0.2849  0.8572
 6684TIP3   OH241542   0.360   0.293   5.034 -0.6287  0.0961  0.1555
 6684TIP3    H141543   0.265   0.292   5.031 -0.6910  0.8554  1.3804
 6684TIP3    H241544   0.384   0.378   4.996 -0.3928 -0.4599 -0.9608
 6685TIP3   OH241545   1.802   2.016   2.694 -0.3890  0.7432 -0.0792
 6685TIP3    H141546   1.856   1.967   2.633 -0.7787 -1.4720  1.2893
 6685TIP3    H241547   1.712   2.007   2.661 -0.8367 -1.9517  1.6834
 6686TIP3   OH241548   0.011   6.299   5.175 -0.2114  0.1834  0.3787
 6686TIP3    H141549  -0.083   6.287   5.171  0.0077 -1.5236 -0.0043
 6686TIP3    H241550   0.035   6.331   5.088 -0.6113  2.0564  0.9392
 6687TIP3   OH241551   0.622   4.426   4.348 -0.2107  0.2299 -0.2247
 6687TIP3    H141552   0.714   4.422   4.322  0.0827  2.5739  0.3510
 6687TIP3    H241553   0.579   4.358   4.296  1.7276 -0.4362 -0.9770
 6688TIP3   OH241554   2.838   4.763   4.826 -0.2569  0.4958 -0.3572
 6688TIP3    H141555   2.871   4.741   4.739  0.2814  1.9473 -0.5286
 6688TIP3    H241556   2.866   4.853   4.841  0.8246 -0.1644  1.8750
 6689TIP3   OH241557   5.264   2.828  13.010 -0.4047  0.0646  0.7058
 6689TIP3    H141558   5.195   2.785  12.958 -1.0128 -0.9009  2.2906
 6689TIP3    H241559   5.218   2.863  13.086  0.6462  0.6477  1.0835
 6690TIP3   OH241560   6.398   4.968  10.948  0.5058 -0.2512 -0.7955
 6690TIP3    H141561   6.339   5.015  11.007  1.0316  1.9405 -1.9793
 6690TIP3    H241562   6.479   4.960  10.998  0.0693 -0.9001 -0.1758
 6691TIP3   OH241563   0.609   5.008  12.243  0.6259 -0.0703  0.4562
 6691TIP3    H141564   0.562   5.080  12.202  1.6282  0.9423  1.0670
 6691TIP3    H241565   0.690   5.047  12.275  0.0978 -0.9197  2.9632
 6692TIP3   OH241566   4.718   5.402  10.761  0.2338  0.7301  0.0755
 6692TIP3    H141567   4.812   5.384  10.768  0.4797  2.2275  0.8888
 6692TIP3    H241568   4.711   5.497  10.765 -1.2582  0.6837 -0.8998
 6693TIP3   OH241569   3.772   6.039   3.592 -0.3362  0.3822 -0.4938
 6693TIP3    H141570   3.726   5.972   3.642  0.9978  0.3251  0.6905
 6693TIP3    H241571   3.718   6.118   3.603 -1.1623 -0.1384 -0.7344
 6694TIP3   OH241572   1.197   1.617  15.235 -0.4512  0.0826 -0.0177
 6694TIP3    H141573   1.242   1.596  15.317 -1.1785 -0.2239  0.3106
 6694TIP3    H241574   1.220   1.708  15.217 -0.2248  0.1270  0.4930
 6695TIP3   OH241575   1.649   1.864  13.031 -0.2401 -0.5484  0.3198
 6695TIP3    H141576   1.592   1.816  12.970 -0.2817 -0.0114 -0.0616
 6695TIP3    H241577   1.675   1.798  13.096  0.8383 -1.4328 -0.9886
 6696TIP3   OH241578   3.209   1.023  13.063 -0.6390  0.0521  0.2341
 6696TIP3    H141579   3.236   0.996  12.976  0.0020  0.9273  0.1474
 6696TIP3    H241580   3.187   0.942  13.109  0.9455 -0.5747 -0.0981
 6697TIP3   OH241581   4.863   4.412   4.812  0.1248 -0.1729 -0.2196
 6697TIP3    H141582   4.934   4.451   4.762 -0.2085  2.3245  1.1474
 6697TIP3    H241583   4.794   4.395   4.747  0.5445  0.8843 -0.9466
 6698TIP3   OH241584   0.766   4.114   4.951  0.0468  0.3577 -0.0211
 6698TIP3    H141585   0.695   4.163   4.909 -0.4870  0.7832  1.3407
 6698TIP3    H241586   0.726   4.079   5.031  1.2749  0.2983  0.5720
 6699TIP3   OH241587   1.667   4.197   2.093  0.0707  0.0290 -0.4691
 6699TIP3    H141588   1.735   4.166   2.033  0.6335 -0.4899  0.4251
 6699TIP3    H241589   1.686   4.152   2.175  0.6371  2.4135  0.7412
 6700TIP3   OH241590   0.862   2.522  13.012  0.0534 -0.4326 -0.1541
 6700TIP3    H141591   0.934   2.469  13.047  1.7028  1.8126 -0.0301
 6700TIP3    H241592   0.839   2.582  13.083  0.6673  1.4216 -1.4878
 6701TIP3   OH241593   3.933   4.522   2.731  0.5953 -0.1051  0.5102
 6701TIP3    H141594   3.928   4.427   2.743 -2.1316 -0.0731  0.1404
 6701TIP3    H241595   3.938   4.534   2.636 -2.0490  0.1343  0.3534
 6702TIP3   OH241596   5.367   0.969   0.403  0.3357  0.9532 -0.2207
 6702TIP3    H141597   5.344   1.057   0.372  1.1705  1.3340  0.2356
 6702TIP3    H241598   5.379   0.979   0.497  0.2116  0.2975 -0.1363
 6703TIP3   OH241599   4.594   3.574  16.017 -0.2593 -0.2168  0.2320
 6703TIP3    H141600   4.503   3.602  16.019 -0.5146 -0.6261 -2.7293
 6703TIP3    H241601   4.628   3.594  16.104 -3.0860  0.2100  1.2682
 6704TIP3   OH241602   2.343   1.132   6.374 -0.3659 -0.0271  0.7062
 6704TIP3    H141603   2.251   1.157   6.384  0.1153  1.3450  1.7968
 6704TIP3    H241604   2.374   1.119   6.463  0.1822 -1.7339  0.2790
 6705TIP3   OH241605   0.130   1.272   5.849  0.1289  0.4986 -0.0013
 6705TIP3    H141606   0.220   1.283   5.816  1.5368 -4.1805  1.8759
 6705TIP3    H241607   0.113   1.353   5.898  3.7271  1.0656  0.4868
 6706TIP3   OH241608   0.202   0.492  13.095 -0.0469  0.1486 -0.8412
 6706TIP3    H141609   0.176   0.576  13.132 -1.9479 -0.7234 -0.1514
 6706TIP3    H241610   0.293   0.481  13.123 -0.4379  0.9965  0.8362
 6707TIP3   OH241611   2.714   5.466  14.397  0.1115 -0.2388 -0.3245
 6707TIP3    H141612   2.770   5.388  14.390 -1.7860 -1.4414 -2.7642
 6707TIP3    H241613   2.731   5.516  14.317 -0.4754  0.6481  0.0976
 6708TIP3   OH241614   1.541   2.676  14.042 -0.5568  0.1904  0.3878
 6708TIP3    H141615   1.493   2.717  14.114 -0.4628 -0.2807  0.7164
 6708TIP3    H241616   1.473   2.629  13.992 -0.8226  1.5258 -0.5439
 6709TIP3   OH241617   2.019   5.452   3.865 -0.1217 -0.1574  0.3906
 6709TIP3    H141618   2.016   5.417   3.954  0.8375  1.2001  0.9595
 6709TIP3    H241619   2.080   5.395   3.818 -1.9453 -1.9454  0.1070
 6710TIP3   OH241620   1.121   2.212   5.901  0.6308  0.0977  0.4986
 6710TIP3    H141621   1.082   2.263   5.973  2.1739 -0.0321  1.4359
 6710TIP3    H241622   1.179   2.150   5.944  1.8771  0.2817 -0.8924
 6711TIP3   OH241623   6.521   4.066   0.270  0.2770  0.6809  0.4838
 6711TIP3    H141624   6.535   4.019   0.353  2.7635  0.7650  0.1592
 6711TIP3    H241625   6.564   4.151   0.283 -0.1531  1.0653 -0.5604
 6712TIP3   OH241626   1.192   2.325   2.302  0.0602  0.4689 -0.2237
 6712TIP3    H141627   1.202   2.249   2.359  0.9310 -0.0714 -1.0842
 6712TIP3    H241628   1.264   2.318   2.239 -0.2374  1.6485 -0.7186
 6713TIP3   OH241629   4.713   6.530  14.603 -0.3842 -0.2541  0.2180
 6713TIP3    H141630   4.753   6.606  14.645 -2.1610  1.3384 -0.8980
 6713TIP3    H241631   4.766   6.455  14.633  0.9952  1.3238  1.8326
 6714TIP3   OH241632   0.568   0.664  10.573  0.6194 -0.9742 -0.2488
 6714TIP3    H141633   0.591   0.750  10.539  0.8087 -1.7143 -2.0309
 6714TIP3    H241634   0.501   0.682  10.639  0.3686  0.5045 -0.8891
 6715TIP3   OH241635   4.770   6.609   0.294 -0.6172  0.0830  0.7354
 6715TIP3    H141636   4.842   6.597   0.232  0.5365 -1.1924  2.3114
 6715TIP3    H241637   4.707   6.541   0.271  0.5477 -1.4436  1.9903
 6716TIP3   OH241638   5.613   0.969   2.953  0.2366 -0.0755  0.0071
 6716TIP3    H141639   5.625   1.057   2.988  0.5311  0.5402 -1.5907
 6716TIP3    H241640   5.702   0.938   2.935  0.0637 -0.0569 -0.9346
 6717TIP3   OH241641   5.430   6.469   3.634  0.4120  0.4678  0.4236
 6717TIP3    H141642   5.380   6.488   3.714  0.2133 -0.9145  0.6353
 6717TIP3    H241643   5.439   6.554   3.591  1.4345  1.4028  2.4382
 6718TIP3   OH241644   2.905   3.122   3.521 -0.0974  0.2666  0.0182
 6718TIP3    H141645   2.987   3.166   3.546 -0.1335 -0.1885  0.9491
 6718TIP3    H241646   2.879   3.074   3.600 -0.9253 -0.1033 -0.4823
 6719TIP3   OH241647   3.979   5.503   0.439  0.2073 -0.5836  0.4537
 6719TIP3    H141648   4.014   5.446   0.369  1.5103 -0.6419  1.1318
 6719TIP3    H241649   3.949   5.442   0.506 -1.3961 -0.5364 -0.1974
 6720TIP3   OH241650   6.596   3.281  10.881  0.4230  0.6930 -0.6158
 6720TIP3    H141651   6.582   3.309  10.971 -1.3637 -0.2341 -0.5926
 6720TIP3    H241652   6.543   3.202  10.871  1.4081  0.2012 -2.1787
 6721TIP3   OH241653   4.654   4.292   1.488 -0.1111  0.1853 -0.3043
 6721TIP3    H141654   4.567   4.261   1.462 -0.2801 -0.7780  1.3289
 6721TIP3    H241655   4.645   4.312   1.582  1.2192  0.8205 -0.3029
 6722TIP3   OH241656   3.376   3.325  17.232  0.2239 -0.3509  0.6044
 6722TIP3    H141657   3.399   3.414  17.256  0.1718  0.1488 -1.1111
 6722TIP3    H241658   3.440   3.300  17.165 -1.9559 -0.2497 -1.5872
 6723TIP3   OH241659   0.328   2.696  12.734 -1.2241 -0.4214 -0.3222
 6723TIP3    H141660   0.405   2.641  12.719 -2.0594 -1.1384 -2.1009
 6723TIP3    H241661   0.261   2.635  12.765 -0.7756  0.3808  2.3726
 6724TIP3   OH241662   4.652   4.348  12.636  0.0013 -0.4180  0.0769
 6724TIP3    H141663   4.730   4.327  12.687 -0.2033 -1.0969  0.1187
 6724TIP3    H241664   4.580   4.336  12.697 -0.1260  0.3697  0.0845
 6725TIP3   OH241665   2.911   3.578   2.311  0.6513  0.3457 -0.1810
 6725TIP3    H141666   2.833   3.527   2.329  0.3753  1.2572  1.3205
 6725TIP3    H241667   2.907   3.651   2.374  2.2872  0.8359 -0.6189
 6726TIP3   OH241668   6.351   3.274  15.067  0.2996 -0.5626  0.2712
 6726TIP3    H141669   6.269   3.322  15.068 -0.2096 -1.4343  1.8521
 6726TIP3    H241670   6.409   3.325  15.124  1.6365  1.3274 -2.6793
 6727TIP3   OH241671   2.217   3.285  13.548  0.8958  0.1202  0.3244
 6727TIP3    H141672   2.280   3.283  13.476 -0.5180  1.9397 -1.0065
 6727TIP3    H241673   2.141   3.237  13.515  0.5851  0.1974  0.9253
 6728TIP3   OH241674   6.374   6.667  15.076 -0.1806  0.1876  0.2999
 6728TIP3    H141675   6.386   6.725  15.151 -1.1224  2.9017 -1.5313
 6728TIP3    H241676   6.279   6.659  15.066 -0.0551 -2.7612  1.2928
 6729TIP3   OH241677   3.751   3.595   0.760 -0.0006 -0.0552 -0.1943
 6729TIP3    H141678   3.700   3.528   0.716  0.1160 -0.0256 -0.3738
 6729TIP3    H241679   3.698   3.619   0.837 -0.2948  0.0359 -0.4249
 6730TIP3   OH241680   2.933   1.873  16.007 -0.2783 -0.7028  0.3908
 6730TIP3    H141681   3.012   1.824  15.983 -0.5205 -0.2153 -1.4724
 6730TIP3    H241682   2.966   1.956  16.041  0.0408 -0.8649  0.4860
 6731TIP3   OH241683   2.475   6.331   1.011  0.2082 -0.4328 -0.3905
 6731TIP3    H141684   2.399   6.382   0.982 -1.7582 -2.6100  0.7841
 6731TIP3    H241685   2.445   6.286   1.090  3.1731 -0.3088  0.8619
 6732TIP3   OH241686   1.554   6.491   2.951  0.0082 -0.2956  0.0192
 6732TIP3    H141687   1.637   6.539   2.950  0.7726 -1.5365  1.6588
 6732TIP3    H241688   1.573   6.410   2.903 -0.1761 -0.6794  0.5846
 6733TIP3   OH241689   5.778   3.747  12.072  0.4710 -0.5089  0.2177
 6733TIP3    H141690   5.867   3.753  12.107  0.0101  0.7357  1.2296
 6733TIP3    H241691   5.734   3.683  12.128  0.5267 -0.5613  0.1985
 6734TIP3   OH241692   2.051   2.910  15.095  0.4321  0.0277 -0.6567
 6734TIP3    H141693   2.045   2.860  15.013  1.3430 -0.5873 -0.3510
 6734TIP3    H241694   2.142   2.937  15.100  0.3174  0.2969  0.0256
 6735TIP3   OH241695   0.717   2.318  12.300 -0.7646  0.3572 -0.3434
 6735TIP3    H141696   0.711   2.293  12.207 -1.6082 -0.0838 -0.1812
 6735TIP3    H241697   0.626   2.315  12.330 -0.3328 -0.8375  0.8518
 6736TIP3   OH241698   6.584   4.857   1.145 -1.2681 -0.1723 -0.0296
 6736TIP3    H141699   6.510   4.897   1.099 -0.9983  1.2050  0.7042
 6736TIP3    H241700   6.547   4.782   1.190 -1.9601 -0.2636 -0.7458
 6737TIP3   OH241701   4.715   1.402  16.319 -0.0480  0.0888 -0.0247
 6737TIP3    H141702   4.735   1.495  16.317 -0.7952  0.2339 -0.6583
 6737TIP3    H241703   4.662   1.386  16.242 -0.6942 -0.6909  0.5673
 6738TIP3   OH241704   3.484   1.903  14.968  0.0565  0.0517  0.2022
 6738TIP3    H141705   3.541   1.941  14.902 -0.2566 -1.1410 -0.7858
 6738TIP3    H241706   3.397   1.906  14.929  0.0743 -1.9406 -0.0410
 6739TIP3   OH241707   1.032   2.929  12.579  0.5592  0.1787 -0.3968
 6739TIP3    H141708   1.093   2.867  12.540 -1.1146 -0.7434 -1.6481
 6739TIP3    H241709   1.027   2.904  12.671  2.0033  0.2396 -0.2920
 6740TIP3   OH241710   6.690   4.941   0.510  0.4062  0.5709  0.1515
 6740TIP3    H141711   6.600   4.953   0.540  0.5726  0.7762  0.5658
 6740TIP3    H241712   6.740   4.928   0.590  0.1739 -3.3085 -0.2171
 6741TIP3   OH241713   4.192   2.861   6.119 -0.1725 -0.3065 -0.1534
 6741TIP3    H141714   4.131   2.801   6.076 -0.8090 -0.6418  1.1792
 6741TIP3    H241715   4.166   2.948   6.089  0.7479 -0.6800 -2.0910
 6742TIP3   OH241716   3.369   3.595   1.127 -0.0894 -0.2377  0.1695
 6742TIP3    H141717   3.415   3.672   1.159 -0.2695  0.5042 -1.3077
 6742TIP3    H241718   3.309   3.571   1.197  1.0141  0.0792  1.2325
 6743TIP3   OH241719   2.768   5.967  17.082 -0.2547 -0.2058 -0.1305
 6743TIP3    H141720   2.706   6.004  17.145 -1.8679 -0.5441 -1.4824
 6743TIP3    H241721   2.716   5.906  17.029  0.8874  0.5596 -2.2239
 6744TIP3   OH241722   5.101   0.388   1.213 -0.5905  0.5904  0.2654
 6744TIP3    H141723   5.052   0.327   1.157  0.7370 -0.9988  0.8193
 6744TIP3    H241724   5.153   0.440   1.152  0.6919 -0.9980 -0.0193
 6745TIP3   OH241725   0.101   6.505  15.343 -0.4399 -0.0372  0.4201
 6745TIP3    H141726   0.174   6.442  15.343 -2.7698 -2.8747 -0.0631
 6745TIP3    H241727   0.060   6.495  15.429 -2.0895 -0.7762 -0.4160
 6746TIP3   OH241728   0.611   3.570   0.558  0.9199 -0.1782  0.0060
 6746TIP3    H141729   0.630   3.631   0.629 -0.6877  0.5394 -0.1737
 6746TIP3    H241730   0.697   3.552   0.519  1.7272 -0.0411  1.6746
 6747TIP3   OH241731   5.125   0.642   5.235  0.2776 -0.0732  0.4613
 6747TIP3    H141732   5.163   0.669   5.319  0.9264  1.9646 -0.4795
 6747TIP3    H241733   5.031   0.656   5.246  0.3423  0.0341  0.8833
 6748TIP3   OH241734   0.756   3.574  15.406  0.2004 -0.2333 -0.7113
 6748TIP3    H141735   0.818   3.640  15.374 -1.3818  1.3188 -0.6383
 6748TIP3    H241736   0.792   3.491  15.375  2.7667  0.5512  0.0635
 6749TIP3   OH241737   0.289   6.185  12.018  0.1044  0.2332 -0.5637
 6749TIP3    H141738   0.248   6.152  12.097  4.4598 -0.6025  1.5310
 6749TIP3    H241739   0.311   6.107  11.967  0.0166  0.5828 -1.1506
 6750TIP3   OH241740   4.851   6.311   0.948  0.5626 -0.2581  0.4701
 6750TIP3    H141741   4.884   6.289   0.861  1.6430  0.6783  0.6243
 6750TIP3    H241742   4.915   6.273   1.008  0.1868 -0.3173  0.8347
 6751TIP3   OH241743   4.974   1.454   5.378 -0.4537  0.6239 -0.0808
 6751TIP3    H141744   4.933   1.394   5.316  0.0952 -2.4336  2.4199
 6751TIP3    H241745   5.059   1.475   5.337 -0.9951  0.3806 -1.3655
 6752TIP3   OH241746   5.648   6.726   3.108  0.1804  0.0146 -0.8195
 6752TIP3    H141747   5.661   6.814   3.072 -0.5112  0.1840 -0.6664
 6752TIP3    H241748   5.556   6.725   3.135  0.1195 -0.8418 -1.0537
 6753TIP3   OH241749   2.500   6.467   5.494  0.0647  0.0308 -0.7438
 6753TIP3    H141750   2.564   6.527   5.456 -0.7117  2.0716  1.1032
 6753TIP3    H241751   2.548   6.417   5.560 -0.3203  1.8519  0.9330
 6754TIP3   OH241752   3.836   6.447   1.264 -1.0010 -0.2555 -0.3565
 6754TIP3    H141753   3.749   6.453   1.304 -0.9855 -0.2620 -0.3228
 6754TIP3    H241754   3.829   6.371   1.205 -0.2438 -1.8372  1.5359
 6755TIP3   OH241755   2.097   5.348   0.607  0.3850 -0.1910  0.0628
 6755TIP3    H141756   2.126   5.258   0.601  0.8486 -0.1891  2.1281
 6755TIP3    H241757   2.177   5.400   0.617  0.0419  0.3423  0.1079
 6756TIP3   OH241758   5.311   6.430   1.175 -0.5084  0.1883 -0.5735
 6756TIP3    H141759   5.350   6.360   1.227 -0.5976  0.2037 -0.4859
 6756TIP3    H241760   5.295   6.391   1.089 -1.4750 -0.1820 -0.2293
 6757TIP3   OH241761   2.157   0.812  11.650  0.4896  0.1103  0.3581
 6757TIP3    H141762   2.181   0.747  11.715 -0.5879 -0.3966  0.2722
 6757TIP3    H241763   2.062   0.819  11.658  0.3272 -0.0521 -1.2260
 6758TIP3   OH241764   6.011   0.437  13.403  0.1448 -0.3163 -0.1380
 6758TIP3    H141765   5.955   0.503  13.363 -2.4822 -3.3935 -1.8286
 6758TIP3    H241766   6.089   0.434  13.347 -0.2056  0.5863 -0.6753
 6759TIP3   OH241767   3.924   3.829   5.487 -0.1646 -0.0743 -0.1746
 6759TIP3    H141768   3.867   3.835   5.410 -0.8346 -1.6097  0.1902
 6759TIP3    H241769   3.873   3.869   5.557 -0.0963  0.1001 -0.2232
 6760TIP3   OH241770   4.831   2.452  11.823  0.1039 -0.3951  0.4441
 6760TIP3    H141771   4.859   2.495  11.904 -1.8090  1.5966  0.0873
 6760TIP3    H241772   4.824   2.359  11.846 -1.0451  0.2389  2.7550
 6761TIP3   OH241773   6.427   0.378   3.618 -0.0221 -0.0608 -0.4022
 6761TIP3    H141774   6.342   0.337   3.635  0.2357 -0.8325 -0.8945
 6761TIP3    H241775   6.406   0.466   3.589 -0.6291 -0.0401  0.0999
 6762TIP3   OH241776   0.678   1.652  10.962  0.8070 -0.0342 -0.3660
 6762TIP3    H141777   0.687   1.558  10.975  1.0661 -0.0513 -0.6628
 6762TIP3    H241778   0.713   1.668  10.874 -0.1768  0.1994 -0.7177
 6763TIP3   OH241779   3.797   5.288   5.087 -0.0995  0.4050 -0.5812
 6763TIP3    H141780   3.816   5.260   5.177 -4.7446  1.1655  0.7666
 6763TIP3    H241781   3.719   5.238   5.062  0.6621  0.7759 -3.9376
 6764TIP3   OH241782   2.534   4.674   4.103 -0.2844 -0.0273  0.3343
 6764TIP3    H141783   2.450   4.715   4.120 -0.4240  0.0451 -0.5184
 6764TIP3    H241784   2.582   4.682   4.186 -0.2037  2.0818  0.1088
 6765TIP3   OH241785   2.241   4.544  12.974 -0.0570  0.8680 -0.8322
 6765TIP3    H141786   2.312   4.572  12.917 -1.0576  0.1259 -2.4902
 6765TIP3    H241787   2.178   4.616  12.971 -0.2462  0.7003 -0.8802
 6766TIP3   OH241788   4.518   3.443  16.393 -0.8715 -0.5584  0.4753
 6766TIP3    H141789   4.553   3.512  16.336 -1.1294 -0.6075  0.2543
 6766TIP3    H241790   4.461   3.489  16.454 -0.5249 -0.4953  0.7516
 6767TIP3   OH241791   6.263   3.103   4.107 -0.1505 -0.3413  0.3927
 6767TIP3    H141792   6.344   3.117   4.157 -0.5026 -1.2597  1.2425
 6767TIP3    H241793   6.294   3.067   4.023  0.4830  1.8539 -0.3449
 6768TIP3   OH241794   5.893   1.898   3.429 -0.5687 -0.2996 -0.4615
 6768TIP3    H141795   5.889   1.880   3.335  1.6257  0.0071 -0.6358
 6768TIP3    H241796   5.942   1.980   3.435 -1.4486  0.1289  0.9069
 6769TIP3   OH241797   5.689   5.389   6.028 -0.5033  0.1931  0.0312
 6769TIP3    H141798   5.708   5.425   6.115  0.3101 -1.2440  0.4584
 6769TIP3    H241799   5.767   5.340   6.005 -1.7079 -1.5800 -0.3907
 6770TIP3   OH241800   0.484   2.843   2.342 -0.0359 -0.0815 -0.3896
 6770TIP3    H141801   0.448   2.886   2.264 -1.4786  0.3398  0.4950
 6770TIP3    H241802   0.453   2.753   2.336  0.9841 -0.3992 -0.9951
 6771TIP3   OH241803   3.721   0.668   2.749 -0.9131  0.1092  0.0845
 6771TIP3    H141804   3.803   0.621   2.737 -0.4138  1.3310 -1.4051
 6771TIP3    H241805   3.743   0.740   2.809 -0.8291  0.6019 -0.5360
 6772TIP3   OH241806   1.945   3.609  13.494  0.2345 -0.2967  0.0693
 6772TIP3    H141807   1.891   3.544  13.448 -1.3274  0.9976  0.0276
 6772TIP3    H241808   1.993   3.559  13.560  0.1374 -1.7008 -0.8992
 6773TIP3   OH241809   4.045   6.252  17.131 -0.0050 -0.1796  0.1149
 6773TIP3    H141810   4.033   6.347  17.137 -1.4211 -0.3438  0.0518
 6773TIP3    H241811   4.113   6.241  17.064 -1.3686  0.7145 -1.4490
 6774TIP3   OH241812   6.465   1.038   2.139  0.0120  0.4029 -1.1528
 6774TIP3    H141813   6.515   1.116   2.114 -0.9718  1.0438 -1.1208
 6774TIP3    H241814   6.529   0.981   2.180  0.6132  1.4488 -0.6256
 6775TIP3   OH241815   3.018   2.935   0.596  0.2241 -0.2213 -0.0752
 6775TIP3    H141816   3.101   2.978   0.572  1.6695 -2.3206  1.0225
 6775TIP3    H241817   2.954   3.005   0.594  1.9169  1.3592 -1.5141
 6776TIP3   OH241818   5.081   4.029   0.717 -0.0953  0.0264  0.2878
 6776TIP3    H141819   5.104   4.057   0.628 -2.4576  0.5394 -0.2084
 6776TIP3    H241820   5.040   3.943   0.705 -1.8935  0.8147  0.6792
 6777TIP3   OH241821   6.018   3.799   2.481 -0.1629 -0.4903  0.0256
 6777TIP3    H141822   6.093   3.739   2.471 -0.4034 -0.8913  0.5875
 6777TIP3    H241823   6.050   3.882   2.447  1.2035 -0.1421  2.0201
 6778TIP3   OH241824   4.185   2.828  12.108  0.1593  0.1272 -0.7054
 6778TIP3    H141825   4.121   2.860  12.045  0.4938  0.4422 -0.8906
 6778TIP3    H241826   4.268   2.830  12.060  0.6661  1.7861  0.2131
 6779TIP3   OH241827   5.061   2.769  14.014 -0.1144 -0.3245 -0.0242
 6779TIP3    H141828   5.074   2.818  13.933  0.3564 -0.3332  0.0458
 6779TIP3    H241829   5.028   2.834  14.077 -1.0556 -0.4430 -0.3824
 6780TIP3   OH241830   3.848   1.380  15.006  0.6069  0.1132 -0.3260
 6780TIP3    H141831   3.755   1.385  15.029  0.5917 -1.0533 -0.0519
 6780TIP3    H241832   3.879   1.470  15.007  0.3813  0.2377  3.4559
 6781TIP3   OH241833   2.584   0.167  15.352  0.0679 -0.1502 -0.7430
 6781TIP3    H141834   2.571   0.079  15.318 -0.3381 -1.1147  1.8589
 6781TIP3    H241835   2.678   0.183  15.343  0.3638 -1.4049  0.1021
 6782TIP3   OH241836   4.873   1.600   5.608  0.2705 -0.1417 -0.5804
 6782TIP3    H141837   4.945   1.584   5.547 -0.6779 -1.6764 -1.3203
 6782TIP3    H241838   4.892   1.543   5.683  0.9911  1.1297  0.2502
 6783TIP3   OH241839   4.955   2.091  14.355  0.4803  0.3432 -0.1987
 6783TIP3    H141840   4.899   2.117  14.428  0.3646  1.9006 -0.8119
 6783TIP3    H241841   5.030   2.049  14.397  0.1532  0.7220  0.7944
 6784TIP3   OH241842   4.353   2.154  17.211 -0.1460 -0.3872  0.1780
 6784TIP3    H141843   4.411   2.086  17.176 -0.3407 -0.1034 -0.7061
 6784TIP3    H241844   4.408   2.205  17.270  0.6357  0.1634 -1.0006
 6785TIP3   OH241845   0.494   3.926  16.652  0.4484  0.1799 -0.0893
 6785TIP3    H141846   0.485   3.999  16.713 -0.8216  1.1633 -1.4087
 6785TIP3    H241847   0.436   3.858  16.687  0.8319  0.2039  0.5837
 6786TIP3   OH241848   4.414   4.239  15.512 -0.1651 -0.8215 -0.0685
 6786TIP3    H141849   4.458   4.240  15.597  1.3772 -0.9370 -0.8454
 6786TIP3    H241850   4.347   4.170  15.520 -0.9189  0.0651  1.4702
 6787TIP3   OH241851   3.544   6.258  15.508 -0.9460  0.3815  0.0407
 6787TIP3    H141852   3.464   6.217  15.541 -1.8522  1.0755 -1.2165
 6787TIP3    H241853   3.558   6.217  15.423  1.0566 -1.0184  1.0314
 6788TIP3   OH241854   6.038   2.442  11.449 -0.0556  0.3574 -0.2900
 6788TIP3    H141855   6.118   2.391  11.461  0.6004  1.6010  0.7439
 6788TIP3    H241856   6.009   2.422  11.360  2.0677  0.8303 -1.1069
 6789TIP3   OH241857   6.073   2.702  10.618  0.1321 -0.1323 -0.2641
 6789TIP3    H141858   6.038   2.747  10.541 -1.0167 -0.7197 -0.0880
 6789TIP3    H241859   5.999   2.653  10.653  0.7007  0.0030  1.1287
 6790TIP3   OH241860   2.341   2.208  17.163  0.1208 -0.1852  0.6003
 6790TIP3    H141861   2.366   2.229  17.073  0.1447 -0.8438  0.4480
 6790TIP3    H241862   2.281   2.278  17.188  0.2253  0.0781  0.1187
 6791TIP3   OH241863   3.688   2.527   4.618  0.2851  0.2490 -0.8825
 6791TIP3    H141864   3.674   2.434   4.633 -1.2936  0.3004 -1.9107
 6791TIP3    H241865   3.664   2.569   4.700  0.0907 -0.1637 -0.7277
 6792TIP3   OH241866   5.518   3.389   5.472  0.6500 -0.3074 -0.3683
 6792TIP3    H141867   5.493   3.477   5.444  1.6317  0.8045  2.1414
 6792TIP3    H241868   5.466   3.373   5.550 -0.1197 -2.3166 -1.2559
 6793TIP3   OH241869   5.951   0.407  11.400 -0.1375  0.0336 -0.1735
 6793TIP3    H141870   5.970   0.381  11.309  2.9374  0.2911  0.3274
 6793TIP3    H241871   6.032   0.448  11.430 -1.4166  0.7367  2.4347
 6794TIP3   OH241872   0.424   5.819   5.056 -0.2566 -0.1571  0.7187
 6794TIP3    H141873   0.495   5.763   5.087 -1.8916 -1.7109  1.7170
 6794TIP3    H241874   0.469   5.895   5.019  1.9255 -1.0875  1.3488
 6795TIP3   OH241875   3.569   5.606  12.279 -0.5210 -0.2200 -0.6477
 6795TIP3    H141876   3.537   5.688  12.316  0.6004  0.4285 -1.0892
 6795TIP3    H241877   3.572   5.622  12.184  1.4630 -0.1248 -0.5901
 6796TIP3   OH241878   6.697   2.988  13.718  0.1542  0.3395  0.1495
 6796TIP3    H141879   6.628   2.981  13.651  0.1530 -0.2766  0.2093
 6796TIP3    H241880   6.779   2.985  13.667  0.1392  1.3570  0.0545
 6797TIP3   OH241881   3.194   4.009   0.336  0.5593 -0.4881 -0.4570
 6797TIP3    H141882   3.127   4.063   0.295 -1.3620 -1.2442  1.5501
 6797TIP3    H241883   3.276   4.039   0.298 -0.7408  1.7688 -1.5920
 6798TIP3   OH241884   2.937   6.268  13.320  0.6041  0.0433 -0.4657
 6798TIP3    H141885   2.915   6.269  13.413  1.9995 -2.9695 -0.0375
 6798TIP3    H241886   2.884   6.196  13.285  0.4202  0.8786 -1.9335
 6799TIP3   OH241887   6.814   3.874  14.576  0.2146  0.0935  0.3453
 6799TIP3    H141888   6.860   3.820  14.512 -0.3615  0.6051 -0.5246
 6799TIP3    H241889   6.803   3.959  14.532 -2.3421 -0.2918  0.1325
 6800TIP3   OH241890   6.019   5.290   5.503 -0.6714  0.6431  0.3704
 6800TIP3    H141891   6.066   5.293   5.587  1.1582  2.1298 -0.6647
 6800TIP3    H241892   6.074   5.342   5.443 -1.6552 -0.8402 -1.8825
 6801TIP3   OH241893   6.104   0.303   2.510 -0.5782  0.9549  0.3410
 6801TIP3    H141894   6.178   0.341   2.557  1.0251 -1.4150 -0.1679
 6801TIP3    H241895   6.127   0.313   2.417 -0.4000 -0.6619  0.1947
 6802TIP3   OH241896   0.070   3.746  11.660  0.4150  0.7593 -0.2777
 6802TIP3    H141897   0.027   3.831  11.659  0.8497  1.0492  2.4273
 6802TIP3    H241898   0.162   3.766  11.640  0.4412  0.8797 -0.0384
 6803TIP3   OH241899   5.266   4.355   3.145  0.0969  0.5669 -0.2500
 6803TIP3    H141900   5.247   4.264   3.119  0.0248  0.3723  0.4719
 6803TIP3    H241901   5.287   4.399   3.063  2.3946 -0.6526 -0.3784
 6804TIP3   OH241902   2.776   3.825  13.613  0.0872  0.1119 -0.7883
 6804TIP3    H141903   2.741   3.794  13.530  0.7027  0.1370 -1.0577
 6804TIP3    H241904   2.701   3.823  13.673  0.0572 -1.6797 -0.8533
 6805TIP3   OH241905   1.568   2.205  15.836  0.6158 -0.4151 -0.1345
 6805TIP3    H141906   1.581   2.299  15.826 -1.4753 -0.1523 -0.5415
 6805TIP3    H241907   1.566   2.191  15.931  1.8501 -0.1951 -0.0729
 6806TIP3   OH241908   0.963   2.960   3.338 -0.4689  0.0055 -0.1352
 6806TIP3    H141909   1.014   2.892   3.381 -1.7224 -0.7228  0.2195
 6806TIP3    H241910   1.023   3.034   3.329  0.3427 -0.4884  1.1803
 6807TIP3   OH241911   5.929   2.965   5.784  0.4699  0.6532  0.3654
 6807TIP3    H141912   5.970   2.916   5.856 -1.3505 -1.5094 -0.0204
 6807TIP3    H241913   5.985   2.947   5.709 -0.3812 -1.1778  0.1442
 6808TIP3   OH241914   1.930   2.674   0.157  0.1346 -0.2309  0.7305
 6808TIP3    H141915   1.872   2.613   0.202  0.6254 -0.1823  1.4461
 6808TIP3    H241916   1.874   2.749   0.135 -0.5210 -1.0353 -0.3626
 6809TIP3   OH241917   6.284   2.144  13.638  0.1732 -0.4280  0.3807
 6809TIP3    H141918   6.251   2.198  13.566 -0.5145  0.0943  1.0715
 6809TIP3    H241919   6.372   2.118  13.610 -0.0256 -0.1036 -0.5731
 6810TIP3   OH241920   6.002   3.630   5.198  0.0380 -0.5835 -0.7235
 6810TIP3    H141921   5.914   3.633   5.237 -0.2308  0.7853 -1.4432
 6810TIP3    H241922   5.989   3.587   5.114 -0.0334  0.1326 -1.0783
 6811TIP3   OH241923   5.743   4.182   5.579 -0.0421  0.5346  0.0404
 6811TIP3    H141924   5.661   4.152   5.616  0.3930 -0.1373  0.4580
 6811TIP3    H241925   5.759   4.267   5.621  0.5363 -0.3017  1.5220
 6812TIP3   OH241926   6.102   1.577   3.197 -0.7779  0.2895 -0.3986
 6812TIP3    H141927   6.159   1.600   3.123 -1.8793 -0.1127 -1.3839
 6812TIP3    H241928   6.146   1.615   3.273 -0.2660  1.8155 -1.4198
 6813TIP3   OH241929   6.111   3.894  14.466  0.1123 -0.0542  0.0471
 6813TIP3    H141930   6.196   3.876  14.425 -0.7051 -0.4224 -1.4904
 6813TIP3    H241931   6.078   3.808  14.491  0.7895  0.2001  1.8798
 6814TIP3   OH241932   5.567   1.581  11.934  0.3739  0.5832 -0.2857
 6814TIP3    H141933   5.552   1.582  11.839 -0.0275 -3.8302 -0.3860
 6814TIP3    H241934   5.480   1.577  11.972  0.5705  0.2784  0.1441
 6815TIP3   OH241935   4.664   3.781   2.731  0.3271  0.4358 -0.0766
 6815TIP3    H141936   4.635   3.691   2.713 -0.0534  0.3018  1.1262
 6815TIP3    H241937   4.720   3.804   2.657  0.9638 -1.0349 -0.0683
 6816TIP3   OH241938   6.319   2.723   4.201  0.2514  0.0964  0.8047
 6816TIP3    H141939   6.274   2.753   4.122  0.3439 -0.2539  0.6172
 6816TIP3    H241940   6.390   2.785   4.214 -0.5879  0.9526  1.3901
 6817TIP3   OH241941   5.015   3.425  11.921  0.0669  0.6021 -0.3617
 6817TIP3    H141942   4.920   3.416  11.915  0.1090 -1.1021  1.1761
 6817TIP3    H241943   5.048   3.387  11.840 -0.4872 -0.1581 -0.2345
 6818TIP3   OH241944   1.124   0.383  16.406 -0.0971 -0.1618  0.5802
 6818TIP3    H141945   1.200   0.353  16.457 -0.5502 -0.1181  1.2868
 6818TIP3    H241946   1.057   0.317  16.423 -0.6802  0.5539  1.1013
 6819TIP3   OH241947   2.222   6.303   2.694  0.5898 -0.5260  0.1946
 6819TIP3    H141948   2.234   6.381   2.639  2.5343 -2.1245 -1.7020
 6819TIP3    H241949   2.186   6.237   2.635 -1.2742 -1.0512  1.8496
 6820TIP3   OH241950   0.682   3.616   5.349 -0.0937  0.1544  0.5117
 6820TIP3    H141951   0.753   3.681   5.345 -0.4564  0.5333  0.2601
 6820TIP3    H241952   0.633   3.629   5.268  0.7296 -1.4727 -0.2786
 6821TIP3   OH241953   1.526   4.599  12.880  0.3675  0.3191 -0.1254
 6821TIP3    H141954   1.561   4.683  12.911 -0.7698  0.3418  1.1414
 6821TIP3    H241955   1.465   4.623  12.810  0.4159  0.5243 -0.0983
 6822TIP3   OH241956   5.006   4.556   6.558 -0.2745 -0.5033 -0.4757
 6822TIP3    H141957   5.080   4.523   6.507  1.2603  0.8650  0.7984
 6822TIP3    H241958   4.965   4.478   6.594 -1.4330 -1.5074 -3.7811
 6823TIP3   OH241959   2.986   5.931   1.272 -0.1968  0.5629 -0.7552
 6823TIP3    H141960   3.050   5.907   1.339  0.1182  1.8901 -0.5616
 6823TIP3    H241961   3.038   5.969   1.202 -0.5369 -0.7257 -1.7184
 6824TIP3   OH241962   4.892   3.966   3.287  0.4399 -0.0708 -0.0501
 6824TIP3    H141963   4.901   4.035   3.222 -1.4792 -0.0587 -0.3150
 6824TIP3    H241964   4.824   3.908   3.253  1.9357 -2.0532  0.2212
 6825TIP3   OH241965   2.934   6.327   0.141  0.8309 -0.2401 -0.1228
 6825TIP3    H141966   2.945   6.248   0.194 -0.9400 -0.7306 -0.4559
 6825TIP3    H241967   3.019   6.339   0.098  1.1407 -1.9218 -0.0075
 6826TIP3   OH241968   1.731   6.244   2.423 -0.0898  0.0167  0.2294
 6826TIP3    H141969   1.667   6.216   2.357  0.6777  1.8367 -1.3385
 6826TIP3    H241970   1.695   6.324   2.460  0.3967  0.0400  0.6556
 6827TIP3   OH241971   1.960   1.677  13.102 -0.0843  0.4152  0.0575
 6827TIP3    H141972   1.879   1.662  13.150 -0.2330 -2.1052 -0.9011
 6827TIP3    H241973   2.029   1.665  13.168 -0.4113  0.3803  0.3975
 6828TIP3   OH241974   4.866   4.279   0.083  0.2177 -0.4860 -0.0763
 6828TIP3    H141975   4.874   4.353   0.144 -1.7543  1.3465 -1.9378
 6828TIP3    H241976   4.922   4.304   0.010  0.2645 -1.2813 -0.3096
 6829TIP3   OH241977   3.569   6.801  17.047 -0.6489 -0.9638  0.4206
 6829TIP3    H141978   3.498   6.758  17.094  0.9123 -3.0306  0.9529
 6829TIP3    H241979   3.611   6.732  16.997  2.0835 -0.1636  1.4920
 6830TIP3   OH241980   4.888   2.114   1.132 -0.5118  0.1729  0.2424
 6830TIP3    H141981   4.799   2.116   1.166 -0.2741 -0.1816  0.9076
 6830TIP3    H241982   4.943   2.133   1.208  0.0741 -1.3973  0.2459
 6831TIP3   OH241983   3.856   3.357   6.398  0.4629  0.5633 -0.1438
 6831TIP3    H141984   3.887   3.283   6.346  0.0726  0.0041  0.4233
 6831TIP3    H241985   3.777   3.326   6.440  0.8289  0.9857  0.8689
 6832TIP3   OH241986   3.677   0.888  17.282 -0.0301 -0.1229 -0.1224
 6832TIP3    H141987   3.592   0.902  17.241  0.0088  0.0021 -0.1593
 6832TIP3    H241988   3.716   0.975  17.288  0.3921 -0.2607 -0.7482
 6833TIP3   OH241989   3.508   6.018   6.240  0.6221 -0.6100  0.1240
 6833TIP3    H141990   3.455   6.039   6.163  1.7011 -1.2179 -0.8005
 6833TIP3    H241991   3.555   5.937   6.216  1.5613 -0.3762  1.1184
 6834TIP3   OH241992   3.791   5.613  13.723 -0.1069 -0.1744  0.2285
 6834TIP3    H141993   3.811   5.583  13.811  2.2124 -1.5320 -0.7108
 6834TIP3    H241994   3.710   5.567  13.699  0.2018 -1.1371  1.0097
 6835TIP3   OH241995   5.939   4.186  13.727  0.5236 -0.1210  0.4940
 6835TIP3    H141996   5.982   4.260  13.683 -0.1229  1.2162  2.0887
 6835TIP3    H241997   5.856   4.222  13.758 -0.2390 -1.7961  0.4189
 6836TIP3   OH241998   1.089   1.813   3.469 -0.6435  0.5278  0.3561
 6836TIP3    H141999   1.061   1.806   3.378 -1.7253 -1.2383  0.8030
 6836TIP3    H242000   1.185   1.806   3.466 -0.7996 -1.4902 -0.4891
 6837TIP3   OH242001   6.147   5.012  16.417 -0.6315 -0.2570 -0.2661
 6837TIP3    H142002   6.127   4.991  16.326  0.0892 -1.6576 -0.1053
 6837TIP3    H242003   6.234   5.052  16.413 -0.6397 -0.2323 -0.1935
 6838TIP3   OH242004   0.860   2.292   1.395 -0.0438 -0.4960  0.0645
 6838TIP3    H142005   0.940   2.250   1.427 -0.2068 -0.8048  0.0593
 6838TIP3    H242006   0.892   2.369   1.348  0.3439 -1.5059 -1.3635
 6839TIP3   OH242007   5.251   5.760   4.081 -0.3482 -0.6403 -0.0673
 6839TIP3    H142008   5.197   5.785   4.157 -0.6699  1.8133 -1.0586
 6839TIP3    H242009   5.338   5.793   4.103  0.4778 -3.3483  0.9018
 6840TIP3   OH242010   1.876   4.124  14.493  0.1535 -0.4447  0.0322
 6840TIP3    H142011   1.828   4.050  14.532  0.2208  0.1431  1.2732
 6840TIP3    H242012   1.819   4.154  14.422  0.5557 -2.2554 -1.0739
 6841TIP3   OH242013   3.977   1.408  14.550  0.2983 -0.3368  0.1510
 6841TIP3    H142014   3.970   1.503  14.538  1.6402 -0.3492 -0.9078
 6841TIP3    H242015   4.071   1.393  14.560 -0.0460 -1.3681  2.0697
 6842TIP3   OH242016   0.869   5.837  12.283  0.0814 -0.3193 -0.0276
 6842TIP3    H142017   0.890   5.919  12.239 -0.4379  0.2602  0.7738
 6842TIP3    H242018   0.774   5.836  12.288  0.1744  0.7406  3.0811
 6843TIP3   OH242019   5.509   5.634  11.753 -0.5144  0.1016  0.3466
 6843TIP3    H142020   5.547   5.719  11.774 -2.5737  0.7990  1.3692
 6843TIP3    H242021   5.440   5.622  11.818 -0.9831 -1.8445 -0.4915
 6844TIP3   OH242022   1.151   4.418   4.661  0.1737 -0.1818 -0.4777
 6844TIP3    H142023   1.068   4.378   4.690  0.2748  0.3169  0.5206
 6844TIP3    H242024   1.132   4.511   4.659  0.4982 -0.1291 -0.9723
 6845TIP3   OH242025   5.976   6.723   4.365  0.2218 -0.6832  0.3219
 6845TIP3    H142026   6.006   6.704   4.454  0.9801  0.6963  0.3688
 6845TIP3    H242027   5.883   6.743   4.374  0.1199 -1.3105  0.6911
 6846TIP3   OH242028   6.202   0.092   1.900 -0.0737 -0.2028  0.4830
 6846TIP3    H142029   6.245   0.014   1.936  0.1863 -0.5777 -0.6327
 6846TIP3    H242030   6.215   0.085   1.806 -1.2540  0.4831  0.2671
 6847TIP3   OH242031   1.632   5.399   5.115  0.2142  0.4892 -0.2417
 6847TIP3    H142032   1.613   5.312   5.079  1.2630  0.0632  0.2274
 6847TIP3    H242033   1.665   5.382   5.203  0.6323  1.3515 -0.2278
 6848TIP3   OH242034   5.863   2.311  12.567  0.2111 -0.0116 -0.4266
 6848TIP3    H142035   5.900   2.234  12.524  0.4663 -0.2242  0.1697
 6848TIP3    H242036   5.855   2.375  12.497  3.3895  0.6598 -0.2759
 6849TIP3   OH242037   6.694   1.572   2.445 -0.2321  0.2643 -0.3746
 6849TIP3    H142038   6.782   1.544   2.418  0.3178  1.1218  0.4752
 6849TIP3    H242039   6.644   1.490   2.452  0.0947 -0.1088 -2.2433
 6850TIP3   OH242040   6.503   6.512  15.313  0.0200 -0.7483  0.0364
 6850TIP3    H142041   6.554   6.592  15.324 -1.3536  0.2255 -0.5331
 6850TIP3    H242042   6.442   6.512  15.387 -0.7550 -0.6693 -0.5975
 6851TIP3   OH242043   0.544   5.378  15.249 -0.1077  0.4473 -0.3276
 6851TIP3    H142044   0.639   5.373  15.260  0.2033  1.4273 -2.4409
 6851TIP3    H242045   0.528   5.356  15.157 -1.7186  2.4473 -0.5687
 6852TIP3   OH242046   0.892   6.005   2.714 -0.4004  0.3483  0.2816
 6852TIP3    H142047   0.830   6.075   2.734  0.4530  0.5812  2.2653
 6852TIP3    H242048   0.969   6.025   2.767 -0.1118 -2.0226  0.8346
 6853TIP3   OH242049   3.589   6.089   2.384 -0.0675  0.6135  0.2817
 6853TIP3    H142050   3.588   6.022   2.452 -1.0524 -0.8455 -1.1012
 6853TIP3    H242051   3.510   6.071   2.332  0.9131  1.3697 -1.5250
 6854TIP3   OH242052   4.148   5.782  12.790 -0.3262  0.0819  0.0747
 6854TIP3    H142053   4.110   5.723  12.856 -1.8125  0.0958 -0.7309
 6854TIP3    H242054   4.082   5.785  12.721 -0.0404  2.2882 -0.1376
 6855TIP3   OH242055   0.341   0.964   0.477  0.2076 -0.4683  0.8857
 6855TIP3    H142056   0.424   1.010   0.482  0.0997 -0.2920  1.0847
 6855TIP3    H242057   0.277   1.026   0.514  0.3026 -1.3510  2.5853
 6856TIP3   OH242058   2.389   0.642   4.758 -0.0355  0.0721  0.1288
 6856TIP3    H142059   2.421   0.553   4.769 -2.0924 -0.5840  1.0177
 6856TIP3    H242060   2.362   0.647   4.667 -1.4387 -0.7427  0.4895
 6857TIP3   OH242061   4.103   0.684  13.034 -0.1432 -0.2152 -0.2065
 6857TIP3    H142062   4.185   0.635  13.040 -0.4353 -0.4286  2.7522
 6857TIP3    H242063   4.113   0.738  12.956  2.5251 -0.7430 -0.2683
 6858TIP3   OH242064   5.721   3.034  13.356 -0.2285 -0.5099 -0.3488
 6858TIP3    H142065   5.747   3.005  13.443  0.1119 -0.1800 -0.3420
 6858TIP3    H242066   5.633   2.998  13.344 -1.3940  1.6976  1.1847
 6859TIP3   OH242067   1.879   6.385  13.873  0.3050  0.5567  0.3064
 6859TIP3    H142068   1.932   6.309  13.848 -1.7313  0.0483 -2.8958
 6859TIP3    H242069   1.939   6.459  13.870  1.3544 -0.3278 -0.9580
 6860TIP3   OH242070   0.354   1.984   3.960 -0.5767  0.1171  0.7503
 6860TIP3    H142071   0.404   2.065   3.974  0.7140 -0.7481  1.2355
 6860TIP3    H242072   0.305   1.972   4.041 -0.5383  0.2484  0.7935
 6861TIP3   OH242073   3.831   5.030   4.501  0.1433 -0.1388 -0.5996
 6861TIP3    H142074   3.816   5.124   4.507 -1.2670 -0.3105 -1.2059
 6861TIP3    H242075   3.824   4.998   4.591 -2.3935 -0.0744 -0.7347
 6862TIP3   OH242076   3.660   6.729   1.620 -0.3406  0.0800  0.1208
 6862TIP3    H142077   3.646   6.668   1.547 -2.2758 -1.6415  1.8647
 6862TIP3    H242078   3.689   6.674   1.693  0.0581  1.5611  1.1061
 6863TIP3   OH242079   4.402   6.673  10.884 -0.3059 -0.0580  0.0297
 6863TIP3    H142080   4.449   6.623  10.950  0.1502 -0.1296 -0.3476
 6863TIP3    H242081   4.434   6.640  10.801 -2.2743 -1.3121 -0.2734
 6864TIP3   OH242082   3.892   1.919  12.074 -0.0299  0.1973 -0.5454
 6864TIP3    H142083   3.963   1.879  12.124 -0.6809 -0.0799  0.1748
 6864TIP3    H242084   3.935   1.984  12.020  0.8900 -0.5887 -0.7834
 6865TIP3   OH242085   3.320   0.198   3.424 -0.6084 -0.3041  0.1908
 6865TIP3    H142086   3.241   0.251   3.415 -0.1191  0.4631  0.4407
 6865TIP3    H242087   3.367   0.210   3.341 -0.6807 -0.6444  0.0990
 6866TIP3   OH242088   2.519   2.333  10.687 -0.2491 -0.3042 -0.0959
 6866TIP3    H142089   2.429   2.330  10.655 -0.1288 -1.4971 -0.3480
 6866TIP3    H242090   2.515   2.292  10.774  0.0835 -0.5639 -0.2005
 6867TIP3   OH242091   3.989   5.074   1.514 -0.4552 -0.7029  0.4199
 6867TIP3    H142092   3.917   5.114   1.464 -0.2919 -0.8591  0.0567
 6867TIP3    H242093   3.945   5.020   1.580 -0.6848 -2.4097 -1.0932
 6868TIP3   OH242094   4.183   2.796  13.713 -0.9021  0.1640 -0.0074
 6868TIP3    H142095   4.135   2.826  13.636  2.1243  2.3498 -1.1240
 6868TIP3    H242096   4.205   2.876  13.760  0.4074 -0.8916  1.2117
 6869TIP3   OH242097   3.843   0.466  15.484 -0.2098 -0.4279  0.3380
 6869TIP3    H142098   3.831   0.559  15.504  1.2678 -0.0100 -0.6793
 6869TIP3    H242099   3.754   0.430  15.485 -1.0472  1.5130 -1.7844
 6870TIP3   OH242100   2.866   5.980   6.164  0.0288 -0.2997 -0.2393
 6870TIP3    H142101   2.915   5.969   6.083 -0.3191  0.2454 -0.5280
 6870TIP3    H242102   2.932   5.991   6.232  0.3349 -1.3025 -0.3619
 6871TIP3   OH242103   1.864   3.630   5.468  0.0557  0.3054 -0.0597
 6871TIP3    H142104   1.889   3.557   5.525  1.5198  0.8246 -0.0286
 6871TIP3    H242105   1.792   3.673   5.515  0.4568  0.0252  0.8282
 6872TIP3   OH242106   6.186   0.980   2.361 -0.0140 -0.5054 -0.3522
 6872TIP3    H142107   6.242   0.975   2.284  0.1787 -0.7192 -0.1981
 6872TIP3    H242108   6.246   0.991   2.435 -0.2637  1.1192 -0.3677
 6873TIP3   OH242109   3.814   5.868  12.172 -0.3740  0.4374  0.1926
 6873TIP3    H142110   3.763   5.906  12.244  0.4870 -0.0201  1.0499
 6873TIP3    H242111   3.749   5.826  12.116 -1.2277  2.1547 -0.1528
 6874TIP3   OH242112   3.287   2.662  11.392  0.2619 -0.4421  0.3206
 6874TIP3    H142113   3.361   2.705  11.348 -0.6569  1.0270  0.1536
 6874TIP3    H242114   3.245   2.733  11.440 -0.2237 -1.5515  1.5458
 6875TIP3   OH242115   1.256   3.076   3.655  0.1731  0.1482 -0.4511
 6875TIP3    H142116   1.187   3.011   3.640  1.7611 -1.2323 -2.0792
 6875TIP3    H242117   1.221   3.157   3.619 -0.9949 -0.2934 -0.3370
 6876TIP3   OH242118   5.720   4.771  16.508 -0.1884  0.5452 -0.3880
 6876TIP3    H142119   5.702   4.754  16.416  0.0572  1.6383 -0.6435
 6876TIP3    H242120   5.682   4.695  16.554  1.8705 -1.2333 -1.5496
 6877TIP3   OH242121   5.794   3.000  10.479 -0.5711  0.1917  0.1725
 6877TIP3    H142122   5.802   2.998  10.574  1.8359 -1.1502 -0.0085
 6877TIP3    H242123   5.880   2.971  10.447 -1.1340  1.2072 -2.4117
 6878TIP3   OH242124   0.744   4.141   3.890 -0.3922  0.0589  0.3362
 6878TIP3    H142125   0.835   4.170   3.883 -0.9931  1.9941  0.2351
 6878TIP3    H242126   0.710   4.147   3.801 -0.7217 -0.3422  0.4333
 6879TIP3   OH242127   5.554   5.171  11.250 -0.3255  0.0302  0.1857
 6879TIP3    H142128   5.555   5.083  11.289  0.5557 -0.7738 -1.5842
 6879TIP3    H242129   5.506   5.161  11.169 -0.7635  1.3405  0.2724
 6880TIP3   OH242130   3.001   1.418  12.693 -0.1553 -0.3772  0.0359
 6880TIP3    H142131   3.080   1.422  12.747 -1.1378  3.4221  1.3412
 6880TIP3    H242132   2.942   1.361  12.742  0.7584 -0.9807  0.4624
 6881TIP3   OH242133   1.080   5.460  11.134 -0.4372 -0.1446  0.0384
 6881TIP3    H142134   1.168   5.434  11.107 -0.0868  1.4771 -0.4257
 6881TIP3    H242135   1.025   5.439  11.059 -0.1329  0.6110 -0.3979
 6882TIP3   OH242136   1.195   5.455  15.606 -0.1287 -0.6157 -0.4520
 6882TIP3    H142137   1.229   5.383  15.553  2.5357 -1.0877  1.8034
 6882TIP3    H242138   1.202   5.425  15.696  1.9796  2.7743  0.6211
 6883TIP3   OH242139   6.589   1.391  11.382 -0.0476  0.2146  0.0320
 6883TIP3    H142140   6.553   1.394  11.294  0.3528 -2.3895 -0.2581
 6883TIP3    H242141   6.513   1.385  11.439 -0.2481  0.0091 -0.2573
 6884TIP3   OH242142   0.109   3.908   4.971  0.4094 -0.2210  0.0504
 6884TIP3    H142143   0.057   3.933   5.048  0.2654 -0.3562 -0.0024
 6884TIP3    H242144   0.044   3.879   4.907  0.3295  2.4223 -1.0935
 6885TIP3   OH242145   4.102   2.812   2.474  0.3011 -0.3643 -0.2204
 6885TIP3    H142146   4.119   2.721   2.500 -0.5350 -0.3163  0.5166
 6885TIP3    H242147   4.008   2.823   2.487 -0.1078 -0.2411 -2.9963
 6886TIP3   OH242148   4.049   2.242   0.937 -0.1612  0.0038  0.5181
 6886TIP3    H142149   4.109   2.317   0.934 -0.3943  0.1475 -0.8057
 6886TIP3    H242150   4.078   2.186   0.864 -1.4456 -0.0738  0.0641
 6887TIP3   OH242151   4.347   5.122   0.667 -0.5236 -0.3534 -0.8138
 6887TIP3    H142152   4.257   5.141   0.693  0.3488 -0.4126  2.4897
 6887TIP3    H242153   4.401   5.167   0.733  1.7741 -3.9420 -0.1025
 6888TIP3   OH242154   1.261   1.255  16.524 -0.0203 -0.3427  0.2060
 6888TIP3    H142155   1.271   1.345  16.556 -0.6009 -1.2833  3.1450
 6888TIP3    H242156   1.187   1.220  16.573 -0.6623 -2.0343 -1.8850
 6889TIP3   OH242157   3.738   6.213   5.586  0.1399  0.2874 -0.2259
 6889TIP3    H142158   3.696   6.160   5.519  1.2789 -0.2597 -0.5178
 6889TIP3    H242159   3.671   6.276   5.612 -1.6077 -1.9592  0.9046
 6890TIP3   OH242160   0.475   0.803   0.779 -0.2469  0.1804  0.7140
 6890TIP3    H142161   0.447   0.868   0.844 -0.0604 -1.5035  2.5152
 6890TIP3    H242162   0.425   0.826   0.701 -1.1818  1.6832  1.7113
 6891TIP3   OH242163   3.134   0.379  13.840  0.2678  0.0189  0.5486
 6891TIP3    H142164   3.159   0.305  13.785 -0.2363  0.2835 -0.0431
 6891TIP3    H242165   3.042   0.395  13.819  0.5836  1.2963  0.0946
 6892TIP3   OH242166   2.952   3.314   3.104 -0.5403 -0.3028 -0.7520
 6892TIP3    H142167   2.919   3.291   3.191  1.0921 -1.3496 -0.3940
 6892TIP3    H242168   2.878   3.297   3.045 -1.1717 -1.0222  0.2390
 6893TIP3   OH242169   5.220   2.810   1.780  0.2614  0.1158  0.4963
 6893TIP3    H142170   5.279   2.740   1.810  0.8672  0.4982  0.2163
 6893TIP3    H242171   5.198   2.858   1.860  1.2580  0.6650  0.4569
 6894TIP3   OH242172   4.629   0.923  12.763 -0.4655  0.1972  0.5130
 6894TIP3    H142173   4.721   0.924  12.791 -0.8426 -0.9553  1.8353
 6894TIP3    H242174   4.617   1.008  12.720  1.5848 -0.1815 -0.9161
 6895TIP3   OH242175   3.232   5.200   3.757  0.4599 -0.1308  0.5108
 6895TIP3    H142176   3.159   5.172   3.701  1.4390  2.0023 -1.9493
 6895TIP3    H242177   3.309   5.161   3.718  0.9841  0.0492  1.3497
 6896TIP3   OH242178   3.505   6.305   0.533  0.4192  0.4887  0.3860
 6896TIP3    H142179   3.490   6.259   0.451  0.2788 -0.9777  1.2114
 6896TIP3    H242180   3.418   6.319   0.570  0.4610  1.4233  0.1469
 6897TIP3   OH242181   1.894   4.728  13.846 -0.0902  0.0379 -0.1443
 6897TIP3    H142182   1.850   4.707  13.764 -0.9210  0.5198  0.1749
 6897TIP3    H242183   1.911   4.822  13.841 -1.5068  0.3499  0.8885
 6898TIP3   OH242184   0.079   2.535   4.228  0.6146 -0.1696 -0.3551
 6898TIP3    H142185   0.060   2.562   4.138 -0.2468  1.9365  0.4187
 6898TIP3    H242186  -0.007   2.515   4.265  0.8636  0.0544  0.3354
 6899TIP3   OH242187   2.652   1.682  13.084 -0.4084 -0.5393 -0.7226
 6899TIP3    H142188   2.561   1.684  13.052 -0.7020 -0.8012  0.0918
 6899TIP3    H242189   2.705   1.679  13.004 -1.1255 -0.6595 -1.2024
 6900TIP3   OH242190   4.453   0.684  11.354 -0.3665  0.0817  0.5577
 6900TIP3    H142191   4.539   0.650  11.328  0.1476  0.4901  1.7026
 6900TIP3    H242192   4.426   0.629  11.427 -0.3257  1.0037  1.2721
 6901TIP3   OH242193   3.670   1.284  11.569 -0.3015  0.9364 -0.4458
 6901TIP3    H142194   3.668   1.379  11.558 -3.0420  0.8112 -1.6182
 6901TIP3    H242195   3.657   1.250  11.480 -1.5242 -0.4782  0.2609
 6902TIP3   OH242196   1.013   4.869   5.794 -0.0211 -0.2385  0.0099
 6902TIP3    H142197   1.043   4.790   5.750  0.0813 -1.4387  2.1926
 6902TIP3    H242198   0.931   4.892   5.749 -0.2513 -1.7965 -0.3757
 6903TIP3   OH242199   5.196   4.511   0.187  0.3935 -0.3498 -0.5640
 6903TIP3    H142200   5.235   4.538   0.271  0.2360  0.7280 -0.8335
 6903TIP3    H242201   5.191   4.416   0.193  1.9605 -0.4018 -0.0401
 6904TIP3   OH242202   3.064   1.551  16.763  0.4731  0.0896 -0.1845
 6904TIP3    H142203   2.975   1.581  16.745  0.9716  1.3321 -0.6552
 6904TIP3    H242204   3.109   1.558  16.679  0.7179 -1.6294 -0.2186
 6905TIP3   OH242205   6.582   3.635  16.760  0.1819 -0.0715 -0.2440
 6905TIP3    H142206   6.660   3.582  16.743  0.4007  0.3482 -0.5733
 6905TIP3    H242207   6.590   3.709  16.700 -0.5667 -0.1190 -0.4091
 6906TIP3   OH242208   2.756   1.614   0.121  0.1095  0.6619 -0.0343
 6906TIP3    H142209   2.754   1.587   0.213 -0.7348  0.6041 -0.0690
 6906TIP3    H242210   2.727   1.705   0.122 -1.6728  0.1171 -0.4347
 6907TIP3   OH242211   4.363   0.037   5.414  0.3639 -0.4418 -0.2327
 6907TIP3    H142212   4.322   0.095   5.351  1.1928 -0.3245 -0.6651
 6907TIP3    H242213   4.457   0.048   5.401  0.5453 -2.1589 -0.5936
 6908TIP3   OH242214   5.068   4.187   4.042  1.1940 -0.4870 -0.2619
 6908TIP3    H142215   5.057   4.145   4.127  2.6116  0.6996  0.5287
 6908TIP3    H242216   5.001   4.254   4.039  2.2079  0.5819  0.6412
 6909TIP3   OH242217   5.962   3.256  14.769  0.3858  0.4485 -0.2683
 6909TIP3    H142218   5.920   3.173  14.791  2.2557 -0.3356  0.5255
 6909TIP3    H242219   5.961   3.305  14.851 -0.9036  1.2938 -0.7911
 6910TIP3   OH242220   6.199   3.780   4.181  0.1519  0.4009  0.1171
 6910TIP3    H142221   6.277   3.736   4.147  1.6453  2.4716  0.7955
 6910TIP3    H242222   6.130   3.755   4.120  1.5369 -0.7187 -1.0419
 6911TIP3   OH242223   1.184   2.449  13.690 -0.2457  0.2896  0.1066
 6911TIP3    H142224   1.127   2.468  13.616 -0.3927  0.3631  0.2393
 6911TIP3    H242225   1.153   2.365  13.724  0.6620 -0.3871 -0.7321
 6912TIP3   OH242226   2.795   5.846   3.767  0.8210 -0.0250 -0.5281
 6912TIP3    H142227   2.856   5.801   3.709  0.5656 -1.5821  0.3677
 6912TIP3    H242228   2.850   5.895   3.827  1.1233  0.2805 -1.0504
 6913TIP3   OH242229   3.817   5.488  15.523  0.4347  0.0989  0.1393
 6913TIP3    H142230   3.908   5.516  15.518  0.4272 -0.1390 -1.4378
 6913TIP3    H242231   3.774   5.530  15.448 -0.7600  0.2258  0.8775
 6914TIP3   OH242232   4.579   2.502   0.269  0.3717 -0.0873  0.6686
 6914TIP3    H142233   4.660   2.551   0.264  1.0094 -1.3707 -2.3491
 6914TIP3    H242234   4.523   2.540   0.201 -0.4790 -1.1073  0.7760
 6915TIP3   OH242235   2.455   3.368   4.094 -0.1000  0.1356 -0.7251
 6915TIP3    H142236   2.469   3.460   4.113 -0.8828  0.2299 -0.5850
 6915TIP3    H242237   2.541   3.327   4.106 -0.2008  0.4853  1.3446
 6916TIP3   OH242238   5.925   5.868  13.906 -0.1598 -0.3290 -0.1438
 6916TIP3    H142239   5.955   5.902  13.991 -0.3762  0.7815 -0.5032
 6916TIP3    H242240   5.908   5.775  13.922  1.9221 -0.6460  0.4898
 6917TIP3   OH242241   0.129   5.181  12.001  0.7822 -0.3514 -0.3676
 6917TIP3    H142242   0.049   5.158  11.954  0.2699  0.3475  0.1510
 6917TIP3    H242243   0.188   5.108  11.985 -0.8366 -2.1076  1.3619
 6918TIP3   OH242244   5.513   6.588  15.463 -0.2207  0.1539  0.2916
 6918TIP3    H142245   5.507   6.552  15.551 -1.1275 -1.9034 -0.5956
 6918TIP3    H242246   5.565   6.524  15.414 -1.6997  0.1066 -1.2682
 6919TIP3   OH242247   1.587   6.809  14.982  0.1060  0.4269 -0.0086
 6919TIP3    H142248   1.637   6.886  14.958 -0.3588  0.5392 -0.6337
 6919TIP3    H242249   1.642   6.735  14.955  0.3332  0.5356  0.1489
 6920TIP3   OH242250   0.961   4.279   2.274 -0.6945 -0.0065  0.4302
 6920TIP3    H142251   0.955   4.231   2.192  0.3805  2.8978 -1.4151
 6920TIP3    H242252   0.876   4.323   2.282 -0.8083 -0.3086  0.8987
 6921TIP3   OH242253   2.524   5.019  13.392 -0.3875  0.2351 -0.0177
 6921TIP3    H142254   2.507   4.934  13.432 -0.0645  1.1154  2.0385
 6921TIP3    H242255   2.572   4.999  13.311 -1.1854 -1.5680 -0.0616
 6922TIP3   OH242256   6.004   2.556   3.287 -0.0340  0.0912 -0.2549
 6922TIP3    H142257   6.000   2.491   3.357  0.8295 -1.0281 -1.2161
 6922TIP3    H242258   6.042   2.634   3.328  1.2460 -0.8298  0.3334
 6923TIP3   OH242259   6.494   5.175   3.265  0.6417  0.2961 -0.3862
 6923TIP3    H142260   6.523   5.094   3.306  0.7998  1.4100  1.7232
 6923TIP3    H242261   6.509   5.243   3.330  1.0277  2.1296 -2.3283
 6924TIP3   OH242262   2.192   2.620   0.263 -0.2417  0.1912  0.2539
 6924TIP3    H142263   2.161   2.530   0.253 -2.0952  0.6325  1.9848
 6924TIP3    H242264   2.125   2.674   0.221  1.3176  0.7439 -1.6214
 6925TIP3   OH242265   3.252   6.007   3.853  0.3239 -0.6592  0.1982
 6925TIP3    H142266   3.277   6.067   3.923  1.1828 -0.7457 -0.0278
 6925TIP3    H242267   3.285   6.048   3.773 -2.5015  0.4905 -0.4327
 6926TIP3   OH242268   5.231   0.730   2.469 -0.1290  0.2461  0.2152
 6926TIP3    H142269   5.320   0.718   2.437 -0.9334 -1.8307 -1.2991
 6926TIP3    H242270   5.222   0.669   2.542 -0.5298 -0.0762 -0.0974
 6927TIP3   OH242271   1.874   4.857  12.840 -0.1529 -0.5730  0.4899
 6927TIP3    H142272   1.955   4.827  12.881 -0.8135  0.3271  2.5425
 6927TIP3    H242273   1.902   4.928  12.781  0.3949  0.8915  2.4586
 6928TIP3   OH242274   6.149   1.306   2.489 -0.1752 -0.1941 -0.0001
 6928TIP3    H142275   6.168   1.395   2.518  0.0407 -0.3853  0.4503
 6928TIP3    H242276   6.228   1.279   2.441  0.2017 -0.5491  0.8259
 6929TIP3   OH242277   0.639   1.813  11.479  0.4403  0.2127  0.2518
 6929TIP3    H142278   0.550   1.836  11.452  0.3760 -0.9181 -0.5243
 6929TIP3    H242279   0.632   1.800  11.574 -0.5704 -1.3890 -0.0277
 6930TIP3   OH242280   5.976   3.224  14.063  0.2928 -0.3533 -0.3364
 6930TIP3    H142281   6.001   3.184  14.146 -0.5423 -0.2997 -0.0497
 6930TIP3    H242282   6.023   3.307  14.061  1.3607 -0.9594 -0.5332
 6931TIP3   OH242283   6.287   2.298   0.920 -0.3041  0.3156  0.0866
 6931TIP3    H142284   6.222   2.230   0.937  0.1168 -0.9810 -3.2277
 6931TIP3    H242285   6.371   2.252   0.925 -0.0007  0.6258 -1.9570
 6932TIP3   OH242286   5.937   5.811  11.617  0.3832  0.4922  0.4272
 6932TIP3    H142287   5.858   5.865  11.619  0.9256  1.2663  1.6862
 6932TIP3    H242288   6.006   5.870  11.586  0.9880  0.5520  1.8578
 6933TIP3   OH242289   5.783   0.447   1.842  0.2900  0.6350 -0.0520
 6933TIP3    H142290   5.838   0.496   1.903  1.5657 -0.9742  0.1130
 6933TIP3    H242291   5.841   0.425   1.770  0.0493 -1.6766  0.4383
 6934TIP3   OH242292   0.875   4.794  12.635 -0.2736 -0.2767 -0.1222
 6934TIP3    H142293   0.818   4.834  12.569 -0.3633 -0.1007  0.0622
 6934TIP3    H242294   0.961   4.833  12.619 -0.4801  0.4033  0.4101
 6935TIP3   OH242295   3.025   4.998  17.009  0.5547 -0.3224 -0.2519
 6935TIP3    H142296   3.002   5.030  17.096 -0.3728  0.8515 -0.9132
 6935TIP3    H242297   2.945   4.954  16.978  0.6435 -0.1010 -0.8062
 6936TIP3   OH242298   6.276   4.893  16.859  0.0251  0.2094 -0.3442
 6936TIP3    H142299   6.280   4.989  16.866  0.5696  0.1269  0.5093
 6936TIP3    H242300   6.368   4.866  16.852 -0.0903 -0.2953  0.0839
 6937TIP3   OH242301   6.684   3.973  16.721 -1.3491 -0.5094  0.0688
 6937TIP3    H142302   6.777   3.982  16.700 -0.9939 -1.8810  0.9744
 6937TIP3    H242303   6.640   3.971  16.636 -0.4782 -0.5509 -0.3828
 6938TIP3   OH242304   4.559   1.759   3.913 -0.5239 -0.8664 -0.1681
 6938TIP3    H142305   4.556   1.781   4.006  1.3261  0.0255 -0.2976
 6938TIP3    H242306   4.562   1.844   3.868 -2.4466 -1.2633 -1.1108
 6939TIP3   OH242307   4.082   0.550   1.366 -0.2658  0.9473 -0.1242
 6939TIP3    H142308   3.993   0.515   1.364  0.6975 -1.7859  2.3986
 6939TIP3    H242309   4.090   0.593   1.451  1.2808 -0.1054  0.2887
 6940TIP3   OH242310   4.875   4.007  14.489 -0.9730 -0.2580 -0.4296
 6940TIP3    H142311   4.893   3.973  14.401  1.7148  1.9180 -0.7882
 6940TIP3    H242312   4.865   4.102  14.477  0.1405  0.1570  1.7133
 6941TIP3   OH242313   5.945   1.482   5.198  0.0287 -0.1379  0.2912
 6941TIP3    H142314   5.988   1.509   5.117  2.3678 -0.2339  1.4583
 6941TIP3    H242315   5.904   1.561   5.231  0.0308  0.1530 -0.3922
 6942TIP3   OH242316   2.605   3.499   4.405 -0.0261 -0.1709  0.5166
 6942TIP3    H142317   2.600   3.460   4.492  3.4801 -2.8104 -0.3501
 6942TIP3    H242318   2.671   3.568   4.413  1.6210 -1.6005 -0.4049
 6943TIP3   OH242319   6.148   3.056  15.270 -0.4150 -0.9219 -0.3031
 6943TIP3    H142320   6.095   3.077  15.193  0.8153 -1.2399 -1.2524
 6943TIP3    H242321   6.185   2.970  15.250 -0.3213 -1.1361  0.7723
 6944TIP3   OH242322   1.733   6.608  12.632  0.6243  0.0711  0.6619
 6944TIP3    H142323   1.826   6.620  12.651  0.4483 -0.1275  1.6351
 6944TIP3    H242324   1.693   6.690  12.659  0.3586 -0.2583  1.2718
 6945TIP3   OH242325   6.181   1.948  13.338 -0.3056 -0.4501  0.3952
 6945TIP3    H142326   6.210   2.039  13.332  0.4081 -0.7047  0.0004
 6945TIP3    H242327   6.251   1.904  13.386 -0.8232 -0.7186  0.9107
 6946TIP3   OH242328   4.840   3.219   4.344  0.0619 -0.4411  0.1751
 6946TIP3    H142329   4.917   3.174   4.307  0.3070  0.3018 -0.2245
 6946TIP3    H242330   4.770   3.203   4.281  0.3274  0.3270 -0.3090
 6947TIP3   OH242331   1.400   0.643   2.835 -0.7599  0.4423  0.4874
 6947TIP3    H142332   1.378   0.737   2.831  0.5659  0.6875 -1.5345
 6947TIP3    H242333   1.346   0.603   2.767 -2.1728 -0.4730  2.1078
 6948TIP3   OH242334   1.191   0.962   5.085  0.2803 -0.2743  0.3527
 6948TIP3    H142335   1.211   0.873   5.055  2.3215 -0.2259  1.4050
 6948TIP3    H242336   1.111   0.953   5.136  1.1784 -1.7907  1.5613
 6949TIP3   OH242337   4.528   6.729   4.657 -0.2110  0.3762 -0.1108
 6949TIP3    H142338   4.449   6.684   4.687 -0.1008 -1.6824 -2.7324
 6949TIP3    H242339   4.494   6.798   4.598 -0.2021  1.6531  1.3542
 6950TIP3   OH242340   1.313   3.950   0.969 -0.0307 -0.2816  0.1378
 6950TIP3    H142341   1.322   4.029   1.022 -0.2357 -0.8557  1.0415
 6950TIP3    H242342   1.374   3.887   1.008 -0.7071 -0.9391  0.1610
 6951TIP3   OH242343   1.832   1.254  14.555  0.0669 -0.4135  0.1719
 6951TIP3    H142344   1.800   1.342  14.573 -0.1020 -0.4156 -0.1158
 6951TIP3    H242345   1.913   1.247  14.606 -0.2628 -0.3230  0.7161
 6952TIP3   OH242346   3.859   0.347  11.705 -0.0502  0.1911  0.5087
 6952TIP3    H142347   3.807   0.402  11.646  0.0835 -0.0080  0.2028
 6952TIP3    H242348   3.944   0.392  11.711  0.8798 -1.2103 -1.6367
 6953TIP3   OH242349   2.325   3.695   6.438  0.5193  0.0383  0.1655
 6953TIP3    H142350   2.344   3.631   6.369 -0.4031  0.1600 -0.2076
 6953TIP3    H242351   2.341   3.647   6.520 -0.9519 -0.9219 -0.0984
 6954TIP3   OH242352   0.853   1.606  11.540  0.0418 -0.6667  0.0283
 6954TIP3    H142353   0.878   1.637  11.627  3.3747 -0.6649 -0.8790
 6954TIP3    H242354   0.793   1.674  11.507  2.2331  1.6321  0.5923
 6955TIP3   OH242355   5.310   0.668  16.178  0.1449 -0.4299  0.3005
 6955TIP3    H142356   5.350   0.590  16.140 -1.9679 -1.0390 -0.7034
 6955TIP3    H242357   5.216   0.652  16.174 -0.3540  2.5244 -0.7010
 6956TIP3   OH242358   5.115   3.731  12.228 -0.6072 -0.5619 -0.3245
 6956TIP3    H142359   5.201   3.727  12.186  0.1816  0.7504  1.0952
 6956TIP3    H242360   5.068   3.656  12.194  1.8558 -2.5623  0.5146
 6957TIP3   OH242361   4.472   1.111  14.350 -0.0305 -0.0165 -1.0394
 6957TIP3    H142362   4.494   1.159  14.270  0.5887  0.1703 -0.7572
 6957TIP3    H242363   4.386   1.145  14.376 -0.6136 -0.6704 -2.0829
 6958TIP3   OH242364   5.863   4.410   3.309 -0.2871 -0.7030  0.3571
 6958TIP3    H142365   5.848   4.437   3.219 -0.2853 -0.7523  0.3421
 6958TIP3    H242366   5.887   4.318   3.303 -1.1115 -0.9339  0.4706
 6959TIP3   OH242367   6.681   6.090  13.882 -0.1469 -0.1994 -0.1299
 6959TIP3    H142368   6.701   6.094  13.976  0.2646  1.0724 -0.2587
 6959TIP3    H242369   6.698   5.999  13.857  3.2600  0.2516  0.2783
 6960TIP3   OH242370   3.752   4.730  16.540  0.4044  0.7666  0.2463
 6960TIP3    H142371   3.817   4.711  16.608  0.7013 -0.5055 -0.3648
 6960TIP3    H242372   3.795   4.795  16.484 -0.1321  2.3721  1.6721
 6961TIP3   OH242373   4.892   0.154   4.637  1.0320  0.8116 -0.5273
 6961TIP3    H142374   4.855   0.066   4.647 -1.0797  1.6272 -0.9811
 6961TIP3    H242375   4.907   0.184   4.727  0.6136  0.4747 -0.3441
 6962TIP3   OH242376   0.508   6.424   3.693 -0.3382 -0.3378 -0.4341
 6962TIP3    H142377   0.446   6.442   3.763 -0.6249 -0.6351 -0.6063
 6962TIP3    H242378   0.482   6.482   3.622 -0.1752 -0.1822 -0.3659
 6963TIP3   OH242379   5.912   5.696  10.374 -0.0535  0.2902 -0.3792
 6963TIP3    H142380   5.966   5.770  10.347  1.7186 -0.2485  1.5358
 6963TIP3    H242381   5.839   5.735  10.423  2.6506  0.7054  3.5800
 6964TIP3   OH242382   4.112   4.897   2.749 -0.5162 -0.0979 -0.3863
 6964TIP3    H142383   4.109   4.984   2.789 -2.3674 -0.8508  1.1483
 6964TIP3    H242384   4.033   4.893   2.695 -0.6876 -1.0087 -0.0712
 6965TIP3   OH242385   0.056   0.161  16.045 -0.2805 -0.2723 -0.7057
 6965TIP3    H142386  -0.004   0.235  16.047  0.4014  0.2716 -0.0639
 6965TIP3    H242387   0.136   0.193  16.087  0.6946 -0.7718 -2.1325
 6966TIP3   OH242388   0.424   3.602   1.388 -0.0373 -0.5318 -0.3024
 6966TIP3    H142389   0.440   3.523   1.336 -0.5379 -1.5678  1.0750
 6966TIP3    H242390   0.339   3.587   1.429 -0.5203  1.0907 -0.6484
 6967TIP3   OH242391   2.972   6.112  16.991 -0.7396  0.1026 -0.4156
 6967TIP3    H142392   2.936   6.201  16.986 -1.0940  0.0912  1.3763
 6967TIP3    H242393   2.897   6.058  17.018 -0.3600 -0.6233 -0.8062
 6968TIP3   OH242394   5.758   1.662   3.632  0.1655 -0.0715 -0.6505
 6968TIP3    H142395   5.676   1.682   3.586 -1.2450 -2.0927  0.8999
 6968TIP3    H242396   5.742   1.687   3.723  2.5459  2.8194 -0.9412
 6969TIP3   OH242397   6.620   5.864  15.082 -0.6098 -0.6196  0.4081
 6969TIP3    H142398   6.559   5.938  15.091  0.2940  0.1170  0.6049
 6969TIP3    H242399   6.647   5.867  14.990  0.6765  0.3182  0.7966
 6970TIP3   OH242400   1.901   5.347  16.970  0.4149 -0.0183 -0.5238
 6970TIP3    H142401   1.925   5.269  17.021  0.6941 -0.6287 -1.5645
 6970TIP3    H242402   1.894   5.417  17.035  0.8472 -0.7597  0.3408
 6971TIP3   OH242403   0.085   3.591  14.228  0.2180  0.2403  0.2295
 6971TIP3    H142404   0.012   3.584  14.291  0.8153 -1.3003  0.7508
 6971TIP3    H242405   0.058   3.538  14.154  1.3736 -1.4082  0.9736
 6972TIP3   OH242406   1.740   5.248  16.748 -0.0200  0.3433  0.6179
 6972TIP3    H142407   1.730   5.176  16.811  0.3506  1.6817  2.2514
 6972TIP3    H242408   1.806   5.306  16.788 -0.9382  2.0278 -0.2447
 6973TIP3   OH242409   6.406   2.267   3.585  0.1738 -0.6045  0.3090
 6973TIP3    H142410   6.393   2.349   3.537  1.3950 -0.2700  0.5168
 6973TIP3    H242411   6.367   2.284   3.671  0.4130 -0.2425  0.3489
 6974TIP3   OH242412   6.191   0.679  16.275  0.3741 -0.0764 -0.0691
 6974TIP3    H142413   6.261   0.700  16.214 -0.8237  0.8504 -1.1614
 6974TIP3    H242414   6.147   0.604  16.237  0.7102 -0.5990  0.5667
 6975TIP3   OH242415   3.209   6.286   0.645 -0.1163  0.1463 -0.0437
 6975TIP3    H142416   3.212   6.195   0.677  2.2753  0.0795 -0.3789
 6975TIP3    H242417   3.242   6.338   0.718  1.0828  0.4665 -0.8109
 6976TIP3   OH242418   5.147   4.639  17.222  0.0809 -0.1860 -0.3463
 6976TIP3    H142419   5.140   4.578  17.296  1.3887 -0.5600 -0.5062
 6976TIP3    H242420   5.214   4.600  17.166  0.3271  0.9763 -0.8687
 6977TIP3   OH242421   5.404   4.163  16.106  0.1245 -0.0612  0.0888
 6977TIP3    H142422   5.401   4.082  16.054  0.5752 -0.4640  0.6756
 6977TIP3    H242423   5.486   4.204  16.080 -0.4085  0.5280 -0.6747
 6978TIP3   OH242424   3.874   3.219   0.947 -0.5690 -0.6486  0.0868
 6978TIP3    H142425   3.820   3.186   0.875  1.3310 -0.4844 -1.4464
 6978TIP3    H242426   3.947   3.264   0.904  1.1010 -1.3547  2.0889
 6979TIP3   OH242427   1.185   4.503   3.445  0.1874 -0.0392 -0.1320
 6979TIP3    H142428   1.244   4.572   3.415 -1.3750  1.9786  1.2926
 6979TIP3    H242429   1.175   4.445   3.369  1.2229  1.5078 -1.4799
 6980TIP3   OH242430   1.353   1.635   2.993  0.0114 -0.3331  0.0263
 6980TIP3    H142431   1.366   1.715   3.044 -0.6624 -0.4939  0.4675
 6980TIP3    H242432   1.405   1.648   2.914  1.4017 -0.2541  0.9353
 6981TIP3   OH242433   5.347   3.800  10.973  0.1724  0.0731  0.7202
 6981TIP3    H142434   5.299   3.772  11.051 -0.9208  2.3954  0.9099
 6981TIP3    H242435   5.287   3.783  10.901 -0.1257  1.0615  0.7374
 6982TIP3   OH242436   5.889   5.035  16.539  0.3279 -0.0783 -0.7938
 6982TIP3    H142437   5.831   4.960  16.542 -0.3519  0.4328 -0.9511
 6982TIP3    H242438   5.977   4.998  16.529  0.2030 -0.9048  1.1160
 6983TIP3   OH242439   3.919   2.450   6.303 -0.0138  0.2912 -0.0110
 6983TIP3    H142440   3.856   2.420   6.368  0.6128 -2.7069 -0.6847
 6983TIP3    H242441   3.988   2.492   6.353 -1.8128  2.3231  0.8412
 6984TIP3   OH242442   6.093   1.419  13.897 -0.3948 -0.1805 -0.2603
 6984TIP3    H142443   6.106   1.514  13.901 -0.2399 -0.2739  2.9860
 6984TIP3    H242444   6.000   1.407  13.914 -0.1763 -0.6470  0.6373
 6985TIP3   OH242445   2.068   3.634  14.079 -0.2780 -0.2382 -0.2860
 6985TIP3    H142446   2.041   3.693  14.008  0.5296  0.4217 -0.0590
 6985TIP3    H242447   2.164   3.632  14.073 -0.3547 -3.1706 -1.6198
 6986TIP3   OH242448   0.115   1.482   2.421 -0.0945  0.2196 -0.8642
 6986TIP3    H142449   0.152   1.399   2.452 -0.8448  0.4189  0.5967
 6986TIP3    H242450   0.185   1.546   2.434  0.2708 -0.0624 -1.4195
 6987TIP3   OH242451   3.784   0.721   6.102 -0.4417  0.2447  0.0393
 6987TIP3    H142452   3.806   0.807   6.067 -2.1205  0.7814  0.2352
 6987TIP3    H242453   3.786   0.732   6.197 -3.0560  0.7507  0.0735
 6988TIP3   OH242454   4.809   5.004  11.245  0.3569  0.5187 -0.0294
 6988TIP3    H142455   4.834   5.090  11.279  1.1931 -0.5066  2.0754
 6988TIP3    H242456   4.892   4.962  11.221  0.3338 -1.0085  2.3177
 6989TIP3   OH242457   3.597   6.149  13.515 -0.2527 -0.7803  0.6758
 6989TIP3    H142458   3.619   6.067  13.560  0.8076 -0.7522  0.2054
 6989TIP3    H242459   3.614   6.131  13.423  0.7828  0.2392  0.6668
 6990TIP3   OH242460   0.107   4.238  10.929  0.0954  0.3487  0.0016
 6990TIP3    H142461   0.128   4.317  10.880  0.5789  0.3812  0.2562
 6990TIP3    H242462   0.178   4.176  10.908 -0.2244  0.0183 -0.1176
 6991TIP3   OH242463   2.879   0.423  15.075  0.0375 -0.0656  0.2114
 6991TIP3    H142464   2.905   0.330  15.080  1.0430  0.1908 -0.0310
 6991TIP3    H242465   2.798   0.428  15.126  0.3205 -0.9587  0.7724
 6992TIP3   OH242466   6.040   5.298   0.197 -0.0425  0.5838 -0.2146
 6992TIP3    H142467   5.954   5.259   0.186  0.2081 -0.5512  1.5915
 6992TIP3    H242468   6.023   5.385   0.233 -0.4210  0.1321  0.7143
 6993TIP3   OH242469   2.979   5.533   2.201  0.0713 -0.0297  0.1619
 6993TIP3    H142470   2.907   5.562   2.256  0.3254 -0.1989  0.5874
 6993TIP3    H242471   2.997   5.444   2.229 -0.2404 -0.3595 -0.6596
 6994TIP3   OH242472   3.330   4.847   2.897 -0.0589 -0.4095  0.4697
 6994TIP3    H142473   3.364   4.794   2.969  1.4509  2.0801  1.6688
 6994TIP3    H242474   3.399   4.912   2.880 -1.8895  1.2672 -0.8028
 6995TIP3   OH242475   2.419   0.814  13.749 -0.9354  0.9092  0.2708
 6995TIP3    H142476   2.390   0.747  13.688 -0.4656 -0.0946  1.1278
 6995TIP3    H242477   2.491   0.859  13.704 -1.0192  0.6085 -0.1618
 6996TIP3   OH242478   0.344   5.889  13.525  0.7469  0.4418  0.0936
 6996TIP3    H142479   0.412   5.892  13.458 -0.0015  1.5371 -0.6325
 6996TIP3    H242480   0.293   5.969  13.511  1.2013  1.2124  2.6064
 6997TIP3   OH242481   4.846   0.188  11.316 -1.0941 -0.1051  0.0737
 6997TIP3    H142482   4.808   0.247  11.381 -1.6692 -0.4726  0.0721
 6997TIP3    H242483   4.938   0.180  11.341 -1.0468  0.6800  0.1570
 6998TIP3   OH242484   3.011   3.314   2.235  0.2385  0.5196 -0.5169
 6998TIP3    H142485   2.946   3.354   2.177 -0.1928  1.2410  0.4536
 6998TIP3    H242486   2.992   3.350   2.321  0.7828 -0.6748  0.1097
 6999TIP3   OH242487   0.085   6.628   1.237  0.3751  0.1792 -0.6192
 6999TIP3    H142488   0.140   6.706   1.243  1.0144 -0.3884  1.1455
 6999TIP3    H242489   0.028   6.645   1.162  1.6125  1.6264 -1.2656
 7000TIP3   OH242490   0.608   2.144   3.762 -0.6562  0.0408 -0.2236
 7000TIP3    H142491   0.518   2.141   3.730 -1.0268  0.4534  0.7821
 7000TIP3    H242492   0.601   2.131   3.856  0.4839 -1.8200 -0.3732
 7001TIP3   OH242493   3.268   5.551   1.372  0.8252 -0.2484 -0.1505
 7001TIP3    H142494   3.255   5.534   1.466  0.3049 -2.2567 -0.5835
 7001TIP3    H242495   3.362   5.565   1.363  0.6592  1.9485  0.9639
 7002TIP3   OH242496   6.128   2.285  15.119  0.2319 -0.1304  0.4132
 7002TIP3    H142497   6.055   2.279  15.058  0.8192 -0.6564 -0.2422
 7002TIP3    H242498   6.101   2.232  15.194 -0.1691 -0.1031  0.2876
 7003TIP3   OH242499   0.178   4.764   4.819  0.4133 -0.1152  0.0720
 7003TIP3    H142500   0.168   4.794   4.910 -3.8608  2.4792 -1.1004
 7003TIP3    H242501   0.148   4.673   4.820 -2.4999  0.8076  0.7908
 7004TIP3   OH242502   2.505   2.540  15.983  0.5767 -0.6212 -0.2138
 7004TIP3    H142503   2.515   2.495  15.899  1.0238 -1.9621  0.5351
 7004TIP3    H242504   2.575   2.605  15.984 -1.0686  1.2299 -2.0072
 7005TIP3   OH242505   3.037   6.725   3.285  0.1059 -0.1056 -0.4920
 7005TIP3    H142506   3.114   6.670   3.297 -1.3729 -2.6846 -2.2863
 7005TIP3    H242507   3.022   6.726   3.190 -1.4927  1.2049 -0.2621
 7006TIP3   OH242508   5.710   2.398  16.356  0.0750  0.6167  0.6680
 7006TIP3    H142509   5.649   2.472  16.361  0.3234  0.9963 -1.1853
 7006TIP3    H242510   5.791   2.437  16.323  0.2440 -0.4514 -0.2237
 7007TIP3   OH242511   1.840   0.062  13.194  0.1996  0.5097 -0.3986
 7007TIP3    H142512   1.905   0.108  13.248 -0.1524 -0.2134  0.6618
 7007TIP3    H242513   1.829  -0.023  13.237  0.3692 -0.3378 -1.9753
 7008TIP3   OH242514   4.890   4.152   1.836 -0.3048  0.1550 -0.0862
 7008TIP3    H142515   4.882   4.247   1.831  0.8255  0.2365 -0.5931
 7008TIP3    H242516   4.901   4.124   1.745  2.2093 -0.1650  0.2732
 7009TIP3   OH242517   5.005   1.957   4.425  0.2227  0.3040 -0.7446
 7009TIP3    H142518   5.052   1.876   4.447 -0.4646  0.4357  1.3058
 7009TIP3    H242519   4.948   1.973   4.500 -0.0287  2.4336 -1.3516
 7010TIP3   OH242520   6.142   5.358   5.784 -0.0347 -0.4411  0.1398
 7010TIP3    H142521   6.107   5.441   5.750 -1.7380 -0.4081  1.8825
 7010TIP3    H242522   6.217   5.383   5.838 -0.8084  0.0323  1.0166
 7011TIP3   OH242523   5.403   0.083   1.119  0.8218 -0.2543  0.6475
 7011TIP3    H142524   5.312   0.089   1.091  0.5318  0.3980  1.7165
 7011TIP3    H242525   5.403   0.115   1.209  2.0640 -0.5001  0.7469
 7012TIP3   OH242526   4.835   4.227  12.810  0.1045  0.1746 -0.1700
 7012TIP3    H142527   4.767   4.247  12.874 -0.8455  1.2076 -1.4636
 7012TIP3    H242528   4.910   4.280  12.836  0.6088 -1.3664  1.5696
 7013TIP3   OH242529   2.000   6.317  16.689 -0.0845 -0.1013 -0.4484
 7013TIP3    H142530   1.919   6.351  16.651  0.0765  0.2731 -0.4625
 7013TIP3    H242531   2.057   6.301  16.614 -0.4531 -1.1940 -0.5033
 7014TIP3   OH242532   3.864   2.266  13.743 -0.6578  0.1573 -0.1608
 7014TIP3    H142533   3.955   2.295  13.740 -0.5479 -0.1251  0.3411
 7014TIP3    H242534   3.863   2.182  13.698 -1.0517  1.1085 -1.9788
 7015TIP3   OH242535   2.818   3.666  13.947 -0.1235  0.0885 -0.2092
 7015TIP3    H142536   2.723   3.661  13.957  0.0013  1.3324  1.7901
 7015TIP3    H242537   2.852   3.666  14.036  1.6773  1.2297 -0.8569
 7016TIP3   OH242538   3.138   5.173   1.977 -0.0934 -0.0556 -0.6619
 7016TIP3    H142539   3.179   5.253   1.944 -0.9251 -0.3051 -2.3391
 7016TIP3    H242540   3.105   5.197   2.063  1.8593  0.6982 -0.0886
 7017TIP3   OH242541   1.311   1.966  13.089  0.2887  0.2085 -0.2524
 7017TIP3    H142542   1.328   1.872  13.102 -0.1770  0.2954  1.0420
 7017TIP3    H242543   1.352   1.986  13.005  0.1706 -1.2153 -0.6639
 7018TIP3   OH242544   3.679   4.800  12.100  0.2309  0.2233 -0.5311
 7018TIP3    H142545   3.595   4.753  12.095  0.3563 -0.0783  0.0878
 7018TIP3    H242546   3.713   4.798  12.010 -0.7691  0.9849 -0.9295
 7019TIP3   OH242547   1.090   1.583  13.805  0.3177  0.2339 -0.6159
 7019TIP3    H142548   1.065   1.497  13.769 -1.1110  0.2108  0.4122
 7019TIP3    H242549   1.170   1.566  13.854 -0.6335 -0.7687  0.6178
 7020TIP3   OH242550   4.800   3.332  11.287  0.3043 -0.0181 -0.0851
 7020TIP3    H142551   4.882   3.325  11.336  1.1228 -0.4350 -1.4897
 7020TIP3    H242552   4.775   3.241  11.271  0.1185  0.1177 -0.5557
 7021TIP3   OH242553   3.411   0.192  15.364 -0.2537 -0.3727 -0.2461
 7021TIP3    H142554   3.493   0.168  15.320  0.4136  0.6790  0.4061
 7021TIP3    H242555   3.417   0.151  15.450  0.5182  1.4051  0.5615
 7022TIP3   OH242556   3.037   4.251  16.951 -0.0565 -0.7436  0.2231
 7022TIP3    H142557   3.067   4.200  17.026  1.9309 -0.4121 -0.3085
 7022TIP3    H242558   2.955   4.291  16.980  1.2030  0.1981  2.5946
 7023TIP3   OH242559   5.641   3.203  11.983 -0.2545 -0.5819  0.2383
 7023TIP3    H142560   5.637   3.235  12.073  1.4034 -1.1506  0.5235
 7023TIP3    H242561   5.710   3.137  11.984 -0.0462 -0.4112 -1.5051
 7024TIP3   OH242562   0.976   0.708   4.248  0.4112  0.4432 -0.3225
 7024TIP3    H142563   1.031   0.659   4.310  0.2397  0.6092 -0.0380
 7024TIP3    H242564   1.038   0.756   4.194  0.6974 -1.6512 -1.9423
 7025TIP3   OH242565   5.855   4.915   3.675 -0.6518 -0.3885 -0.1606
 7025TIP3    H142566   5.857   4.905   3.580 -1.1644  0.6828 -0.2929
 7025TIP3    H242567   5.804   4.994   3.690 -0.9790 -0.8041  1.0297
 7026TIP3   OH242568   3.514   0.426   0.797 -0.0586  0.2712 -0.3010
 7026TIP3    H142569   3.569   0.482   0.852 -1.7707  1.2192  0.4914
 7026TIP3    H242570   3.425   0.460   0.810 -0.8539 -1.3210 -1.4392
 7027TIP3   OH242571   0.039   3.931   2.210 -0.2912 -0.4704  0.6984
 7027TIP3    H142572  -0.055   3.919   2.207 -0.1507 -1.3490 -0.9178
 7027TIP3    H242573   0.051   4.026   2.204 -1.0818 -0.3232  1.4143
 7028TIP3   OH242574   6.209   2.700  16.934  0.8426 -0.0450  0.4944
 7028TIP3    H142575   6.208   2.743  16.848  1.2594 -1.9165 -0.4644
 7028TIP3    H242576   6.296   2.719  16.969  1.0776 -0.2239  0.0119
 7029TIP3   OH242577   4.940   4.536  15.420  0.4165  0.3075  0.8156
 7029TIP3    H142578   4.872   4.471  15.404  1.0338  0.5248 -3.0494
 7029TIP3    H242579   4.893   4.614  15.449 -0.7474 -0.3427  0.6687
 7030TIP3   OH242580   6.083   3.324  12.904  0.2751 -0.1655  0.1185
 7030TIP3    H142581   6.006   3.381  12.910  0.2189 -0.2109 -0.1609
 7030TIP3    H242582   6.122   3.326  12.991 -0.7302 -1.1106  0.5996
 7031TIP3   OH242583   3.850   4.278   1.371  0.0360 -0.2321 -0.1530
 7031TIP3    H142584   3.855   4.254   1.463  0.2949  0.0445 -0.0934
 7031TIP3    H242585   3.838   4.194   1.325  0.4024 -0.4206  0.0927
 7032TIP3   OH242586   0.047   0.821  14.141 -0.8207 -0.5375 -0.4696
 7032TIP3    H142587   0.070   0.734  14.108 -0.3538 -0.5172 -0.2026
 7032TIP3    H242588   0.065   0.880  14.067 -3.6515 -0.9634 -1.5591
 7033TIP3   OH242589   4.581   5.010  13.243 -0.1582 -0.1324 -0.2012
 7033TIP3    H142590   4.546   4.954  13.313  0.0904 -1.7722 -1.3787
 7033TIP3    H242591   4.550   5.098  13.266 -1.9787 -0.9938  0.7440
 7034TIP3   OH242592   5.060   1.862  10.557  0.4679  0.1800  0.3077
 7034TIP3    H142593   4.987   1.923  10.567  2.1097  2.0725  1.2249
 7034TIP3    H242594   5.126   1.912  10.510  1.8740 -0.8848  1.1226
 7035TIP3   OH242595   6.223   1.885   6.095 -0.3161 -0.6797 -0.5705
 7035TIP3    H142596   6.152   1.911   6.154 -1.7539 -3.2475 -1.0979
 7035TIP3    H242597   6.267   1.813   6.140  0.4947 -0.6484 -1.2955
 7036TIP3   OH242598   2.024   1.655   1.176  0.3840 -0.2816 -0.0680
 7036TIP3    H142599   2.118   1.662   1.158  0.6036  1.6794  1.6553
 7036TIP3    H242600   1.986   1.732   1.133 -0.2739 -0.4120  0.2723
 7037TIP3   OH242601   4.196   2.284   0.171  0.0870  0.3719  0.1709
 7037TIP3    H142602   4.185   2.279   0.076  2.2352 -1.3924 -0.0162
 7037TIP3    H242603   4.232   2.199   0.196  0.0999  1.0260  2.4924
 7038TIP3   OH242604   2.634   1.359   0.315 -0.4679  0.6319  0.0535
 7038TIP3    H142605   2.575   1.420   0.360  0.6507  1.4898  0.4011
 7038TIP3    H242606   2.590   1.339   0.232 -2.1038 -0.2088  1.1037
 7039TIP3   OH242607   1.577   5.707  14.702 -0.1065  0.3753  0.0261
 7039TIP3    H142608   1.650   5.670  14.751 -0.1794  2.0749  1.4635
 7039TIP3    H242609   1.575   5.656  14.620 -0.4966 -3.0509  2.0816
 7040TIP3   OH242610   4.118   2.808   5.703 -0.2907 -0.4590 -0.2578
 7040TIP3    H142611   4.135   2.864   5.627 -2.7714 -1.7193 -1.8057
 7040TIP3    H242612   4.192   2.747   5.705 -0.8726 -1.2786 -2.5073
 7041TIP3   OH242613   0.962   3.827   1.943  0.2687 -0.0547  0.2527
 7041TIP3    H142614   0.935   3.787   1.861  1.2674  0.3714 -0.2972
 7041TIP3    H242615   0.881   3.840   1.992 -0.0816 -2.7885  0.4784
 7042TIP3   OH242616   3.853   2.522  12.906 -0.4041  0.0418  0.0049
 7042TIP3    H142617   3.847   2.444  12.961  2.9256 -0.2105  0.0759
 7042TIP3    H242618   3.833   2.594  12.965 -1.8837 -0.5880  0.3117
 7043TIP3   OH242619   5.652   4.815   4.748  0.6765 -0.0160 -0.0292
 7043TIP3    H142620   5.646   4.911   4.745 -0.5004 -0.0955 -3.7692
 7043TIP3    H242621   5.736   4.795   4.707  0.6966 -0.5829  0.2902
 7044TIP3   OH242622   4.828   3.293   1.545  0.2685 -0.1620  0.6129
 7044TIP3    H142623   4.861   3.323   1.630 -0.5742 -2.6472  1.8553
 7044TIP3    H242624   4.735   3.278   1.559  0.2317 -1.1402 -0.5897
 7045TIP3   OH242625   2.262   4.035  15.233 -0.2760 -0.0761 -1.0671
 7045TIP3    H142626   2.250   3.942  15.217 -1.4562  0.0105 -0.6895
 7045TIP3    H242627   2.176   4.074  15.220 -0.1897  0.7096  0.4785
 7046TIP3   OH242628   5.493   2.222   0.588 -0.2216 -0.1620  0.3698
 7046TIP3    H142629   5.480   2.199   0.680  1.6144  0.9920  0.9534
 7046TIP3    H242630   5.405   2.238   0.555 -1.0293 -2.0002  1.5234
 7047TIP3   OH242631   5.305   4.359  12.969 -0.0939  0.5347 -0.2321
 7047TIP3    H142632   5.238   4.416  13.008 -0.2461  1.8589 -2.3233
 7047TIP3    H242633   5.362   4.336  13.042 -2.5125 -0.1722  1.4966
 7048TIP3   OH242634   6.232   4.715   4.928  0.0565 -0.3485  0.5273
 7048TIP3    H142635   6.246   4.700   4.835 -0.7870 -0.2121  0.3821
 7048TIP3    H242636   6.320   4.710   4.966 -0.1490 -6.1877  0.6005
 7049TIP3   OH242637   4.671   5.058  13.565  0.1521 -0.6778  0.0201
 7049TIP3    H142638   4.729   5.072  13.489 -0.5847  0.6191 -0.3275
 7049TIP3    H242639   4.711   5.110  13.635 -1.4699  1.5977 -0.6899
 7050TIP3   OH242640   1.035   6.155   5.210 -0.0951  0.8831  0.1270
 7050TIP3    H142641   1.004   6.244   5.197 -0.7545  0.4094 -1.5846
 7050TIP3    H242642   0.962   6.109   5.251 -0.1110  0.8547  0.0657
 7051TIP3   OH242643   2.941   2.151  13.194  0.0884 -0.2190  0.3587
 7051TIP3    H142644   2.946   2.079  13.131 -0.7263  0.9700 -1.0933
 7051TIP3    H242645   2.949   2.108  13.280 -1.6044 -2.1710 -0.4099
 7052TIP3   OH242646   1.085   4.400   6.544 -0.3517  0.2211 -0.5657
 7052TIP3    H142647   1.068   4.332   6.610  0.6028  0.7699  0.2567
 7052TIP3    H242648   1.126   4.471   6.593  0.3394  0.6496 -1.7437
 7053TIP3   OH242649   0.781   0.239   1.906  0.3405 -0.7994  0.2128
 7053TIP3    H142650   0.705   0.246   1.848  0.5844 -0.0891 -0.0313
 7053TIP3    H242651   0.745   0.211   1.990 -0.5449  2.0702  0.8328
 7054TIP3   OH242652   0.854   1.536   5.113  0.5917 -0.2309  0.0905
 7054TIP3    H142653   0.933   1.532   5.058  1.9874  1.5272  1.8945
 7054TIP3    H242654   0.877   1.485   5.191 -0.8565 -1.4951 -0.2864
 7055TIP3   OH242655   4.832   6.370   3.638  0.1420  0.1290 -0.5617
 7055TIP3    H142656   4.766   6.433   3.607  2.0184  1.9336 -0.9381
 7055TIP3    H242657   4.882   6.347   3.559  0.6836 -0.3938 -0.0719
 7056TIP3   OH242658   3.709   5.865  16.594 -0.6739 -0.2704  0.0350
 7056TIP3    H142659   3.709   5.915  16.676 -0.7228  2.0434 -1.3551
 7056TIP3    H242660   3.761   5.787  16.614  0.2755  0.8200  1.9346
 7057TIP3   OH242661   0.712   5.026   0.390 -0.6978 -0.1775 -0.4567
 7057TIP3    H142662   0.759   4.950   0.424  0.9471  0.9371 -0.1754
 7057TIP3    H242663   0.757   5.047   0.308 -0.3735  1.1909  0.0538
 7058TIP3   OH242664   5.956   5.714  15.970  0.1518  0.0263  1.0034
 7058TIP3    H142665   5.917   5.801  15.960  0.0138 -0.1488 -0.0813
 7058TIP3    H242666   5.897   5.668  16.030 -1.1371 -0.1210 -0.3476
 7059TIP3   OH242667   2.177   4.462   3.427 -0.1648  0.4150 -0.6372
 7059TIP3    H142668   2.159   4.545   3.384  0.7824  0.8619 -0.1916
 7059TIP3    H242669   2.100   4.445   3.481 -0.0470  1.3554 -0.1733
 7060TIP3   OH242670   2.081   6.712   5.320  0.7114  0.0181  0.0362
 7060TIP3    H142671   2.090   6.781   5.254  1.1249  0.1221  0.1999
 7060TIP3    H242672   2.161   6.718   5.372 -0.4495  1.1810  1.7472
 7061TIP3   OH242673   1.876   2.012   3.944 -0.6769 -0.6059 -0.0230
 7061TIP3    H142674   1.791   1.975   3.921 -1.4366  1.0281  0.0742
 7061TIP3    H242675   1.923   1.940   3.987 -2.3967 -1.2269  0.8387
 7062TIP3   OH242676   1.476   2.557   4.690  0.1200 -0.3780 -0.2183
 7062TIP3    H142677   1.542   2.583   4.626 -0.3080  0.4793 -0.3042
 7062TIP3    H242678   1.523   2.497   4.749  0.8220 -0.2277 -0.6214
 7063TIP3   OH242679   3.562   0.218   5.453 -0.4041 -0.3510  0.2381
 7063TIP3    H142680   3.616   0.298   5.455  0.8762 -1.1047 -2.1695
 7063TIP3    H242681   3.598   0.163   5.522 -0.1646  0.4566  0.7651
 7064TIP3   OH242682   2.768   0.026   5.344  0.2073  0.5804 -0.1178
 7064TIP3    H142683   2.801   0.091   5.282 -0.1894  0.9906  0.1008
 7064TIP3    H242684   2.673   0.038   5.344  0.0307 -0.6919 -0.8491
 7065TIP3   OH242685   5.756   5.228  12.258 -0.3394 -0.2694  0.4556
 7065TIP3    H142686   5.831   5.273  12.296 -0.1191 -0.2424 -0.0046
 7065TIP3    H242687   5.754   5.143  12.303 -0.7430  0.1869  1.3009
 7066TIP3   OH242688   5.323   5.642   4.429  1.2507 -0.2370 -0.0241
 7066TIP3    H142689   5.367   5.658   4.512 -0.9698  0.3439  1.0667
 7066TIP3    H242690   5.273   5.722   4.412  1.1067 -0.6324 -1.5591
 7067TIP3   OH242691   5.217   3.407   2.381 -0.4097  0.6393  0.0786
 7067TIP3    H142692   5.199   3.319   2.415 -2.2696  0.5384 -1.1018
 7067TIP3    H242693   5.280   3.392   2.310 -0.9261  0.2203 -0.2987
 7068TIP3   OH242694   6.302   0.607   3.468  0.4475  0.1905  0.1916
 7068TIP3    H142695   6.228   0.639   3.416  0.1406 -0.1423  0.4237
 7068TIP3    H242696   6.331   0.684   3.518 -1.0027 -0.1522  1.6021
 7069TIP3   OH242697   6.166   2.940   4.391 -0.3129 -0.2841 -0.1116
 7069TIP3    H142698   6.116   3.015   4.422 -0.3730  0.7437 -2.6056
 7069TIP3    H242699   6.125   2.915   4.308  1.7695 -0.9464 -0.9859
 7070TIP3   OH242700   6.005   2.583  16.520 -0.0468  0.3897  0.3683
 7070TIP3    H142701   5.978   2.669  16.553 -1.3286  1.0452 -2.2299
 7070TIP3    H242702   5.931   2.525  16.540  0.8157 -0.1352  2.1180
 7071TIP3   OH242703   6.708   2.591   1.757  0.2541 -0.1162  0.0238
 7071TIP3    H142704   6.659   2.524   1.804  1.8812 -2.1997 -1.1663
 7071TIP3    H242705   6.695   2.571   1.665  1.0580  0.9886 -0.3404
 7072TIP3   OH242706   4.560   1.138  13.172  0.0950  0.0825  0.1811
 7072TIP3    H142707   4.600   1.163  13.256  0.5344  0.2252 -0.0713
 7072TIP3    H242708   4.610   1.061  13.145 -0.8051 -0.6748  0.6215
 7073TIP3   OH242709   6.465   6.085  14.819 -0.1344  0.1514 -0.3107
 7073TIP3    H142710   6.430   6.011  14.769  0.4305 -0.8462  0.7519
 7073TIP3    H242711   6.537   6.117  14.766 -1.1887  0.7654 -1.4020
 7074TIP3   OH242712   4.812   6.791  14.786 -0.4642 -0.0042  0.2608
 7074TIP3    H142713   4.902   6.770  14.760 -1.5309 -0.5267 -3.2194
 7074TIP3    H242714   4.816   6.881  14.818  1.5255 -0.5120  1.5336
 7075TIP3   OH242715   5.466   6.008   2.737 -0.4104  0.6038  0.0843
 7075TIP3    H142716   5.503   6.094   2.755  0.4315  0.3536 -0.4039
 7075TIP3    H242717   5.515   5.948   2.793 -1.9034  0.5991  1.4261
 7076TIP3   OH242718   5.614   0.584  14.015 -0.6189 -0.0798 -0.4975
 7076TIP3    H142719   5.608   0.657  13.953 -0.4391  1.4251  1.2464
 7076TIP3    H242720   5.696   0.599  14.062 -0.8270 -1.1293  0.2103
 7077TIP3   OH242721   2.341   1.161  12.059 -0.5000 -0.1144 -0.0842
 7077TIP3    H142722   2.319   1.070  12.039 -1.1668  0.2590 -1.1173
 7077TIP3    H242723   2.268   1.193  12.112  0.7627 -0.7936  2.1183
 7078TIP3   OH242724   4.587   4.367  12.926  0.0010 -0.2883 -0.1944
 7078TIP3    H142725   4.616   4.457  12.911 -0.0531  0.2017  2.5369
 7078TIP3    H242726   4.497   4.365  12.894 -0.6229  1.1262  1.4498
 7079TIP3   OH242727   0.435   6.241   0.896 -0.0551 -0.0035  0.0125
 7079TIP3    H142728   0.474   6.197   0.972  0.4531 -1.1402 -0.8925
 7079TIP3    H242729   0.510   6.274   0.846 -0.3988  1.0027  0.1402
 7080TIP3   OH242730   0.801   6.530   3.173 -0.2076 -0.4590 -0.2042
 7080TIP3    H142731   0.789   6.435   3.168 -1.6712 -0.2443 -0.9003
 7080TIP3    H242732   0.756   6.556   3.253 -1.1861 -0.1600 -0.8361
 7081TIP3   OH242733   4.337   6.359  14.315  0.3091 -0.1622 -0.5104
 7081TIP3    H142734   4.397   6.434  14.314 -0.4816  0.4818 -0.1587
 7081TIP3    H242735   4.301   6.359  14.404 -1.1152  0.1748 -1.0916
 7082TIP3   OH242736   5.791   6.204   3.913 -0.2837 -0.0381  0.6256
 7082TIP3    H142737   5.771   6.120   3.954  0.1520  0.0616  1.0497
 7082TIP3    H242738   5.709   6.231   3.872  0.1127 -1.6713 -1.3158
 7083TIP3   OH242739   5.355   1.061   3.120 -0.2273 -0.2687 -0.6290
 7083TIP3    H142740   5.395   1.108   3.046 -0.9082 -1.0951 -1.5459
 7083TIP3    H242741   5.350   0.970   3.090 -3.0946 -0.1338 -0.6890
 7084TIP3   OH242742   3.565   3.739   6.521  0.5121 -0.1569  0.2510
 7084TIP3    H142743   3.589   3.823   6.480  0.1910  0.0482  0.4788
 7084TIP3    H242744   3.639   3.718   6.578 -0.4585  1.2172  2.0840
 7085TIP3   OH242745   0.545   6.760   5.552  0.2333  0.3708  0.2103
 7085TIP3    H142746   0.584   6.803   5.628  0.1336 -1.6564  1.4459
 7085TIP3    H242747   0.458   6.800   5.544  0.2762  0.6533  1.1157
 7086TIP3   OH242748   3.158   0.577  15.940  0.1761  0.0645  0.0408
 7086TIP3    H142749   3.092   0.628  15.988 -1.7362 -1.7305 -0.5694
 7086TIP3    H242750   3.234   0.634  15.936 -0.2845  1.0331  3.4589
 7087TIP3   OH242751   1.016   5.567  17.166 -0.7343  0.0276 -0.6246
 7087TIP3    H142752   1.096   5.516  17.177  0.4006  1.8273 -0.3436
 7087TIP3    H242753   0.945   5.505  17.185  0.5254 -1.8929 -2.0258
 7088TIP3   OH242754   3.866   5.167   2.522  0.6920 -0.2870  0.2883
 7088TIP3    H142755   3.822   5.142   2.441  0.5666  0.6045  0.0811
 7088TIP3    H242756   3.936   5.226   2.494  0.6484  0.0191  0.8295
 7089TIP3   OH242757   3.621   5.347  16.218 -0.3103 -0.4511  0.2929
 7089TIP3    H142758   3.596   5.260  16.187  2.1867 -1.1837  0.2738
 7089TIP3    H242759   3.642   5.396  16.138  1.6440 -0.9159  0.5092
 7090TIP3   OH242760   2.402   4.727   1.019  0.1749 -0.9916 -0.1232
 7090TIP3    H142761   2.351   4.702   0.942 -0.5998 -1.8182  0.6564
 7090TIP3    H242762   2.337   4.737   1.089  1.1902 -3.0688  1.1433
 7091TIP3   OH242763   2.924   4.938   6.007 -0.7037 -0.6970  0.1956
 7091TIP3    H142764   2.829   4.948   6.015 -0.9442 -1.5766 -1.2071
 7091TIP3    H242765   2.935   4.887   5.926  0.9175 -1.3667  0.8199
 7092TIP3   OH242766   6.480   1.801  13.774 -0.5172  0.1576 -0.3009
 7092TIP3    H142767   6.502   1.751  13.695 -1.5139  0.9376 -1.0776
 7092TIP3    H242768   6.541   1.768  13.841 -0.6479 -1.5300 -1.0033
 7093TIP3   OH242769   2.587   2.885   4.409  0.2413  0.0864  0.1137
 7093TIP3    H142770   2.640   2.937   4.349  1.9105 -1.1159  0.5313
 7093TIP3    H242771   2.561   2.947   4.478 -1.2824  1.3463 -1.5567
 7094TIP3   OH242772   5.148   1.080   6.061 -0.6770 -0.0956 -0.3924
 7094TIP3    H142773   5.171   1.123   6.144  0.2723  0.1852 -0.7947
 7094TIP3    H242774   5.113   1.150   6.007  1.3978  0.3247 -1.2517
 7095TIP3   OH242775   3.958   0.735  13.254 -0.3851 -0.3397  0.0775
 7095TIP3    H142776   3.989   0.729  13.163  0.6205  0.5293  0.3489
 7095TIP3    H242777   3.995   0.658  13.297  1.7077  0.8267  0.4635
 7096TIP3   OH242778   6.586   0.265   1.181 -0.1515  0.3569  1.0130
 7096TIP3    H142779   6.496   0.231   1.186 -0.1379  0.0238 -0.6295
 7096TIP3    H242780   6.589   0.310   1.097  0.7232  1.8885  1.8458
 7097TIP3   OH242781   0.524   5.194  16.625 -0.6045  0.2946 -0.0535
 7097TIP3    H142782   0.563   5.277  16.653  0.5486 -0.4593  0.6112
 7097TIP3    H242783   0.465   5.171  16.697  1.1303 -0.8186  1.0490
 7098TIP3   OH242784   5.852   5.280  13.082 -0.1855 -0.1841 -0.3301
 7098TIP3    H142785   5.926   5.331  13.048  1.1466 -1.3142  0.8228
 7098TIP3    H242786   5.801   5.343  13.133  1.6987 -0.0703  1.4780
 7099TIP3   OH242787   5.140   5.982   3.799  0.1839 -0.0231  0.2906
 7099TIP3    H142788   5.230   5.952   3.806 -0.0934 -0.4917  1.9651
 7099TIP3    H242789   5.118   5.971   3.706  1.3520 -1.3003  0.1612
 7100TIP3   OH242790   0.235   3.784   2.814  0.0564 -0.0184  0.3735
 7100TIP3    H142791   0.190   3.764   2.896 -1.2579  0.3268 -0.2528
 7100TIP3    H242792   0.179   3.848   2.770  1.9652  1.6536  0.3113
 7101TIP3   OH242793   0.869   2.733   2.554  0.0058 -0.3809 -0.4663
 7101TIP3    H142794   0.872   2.790   2.478  1.0118 -0.2437 -0.3292
 7101TIP3    H242795   0.939   2.669   2.540  0.7145  0.1167  0.7000
 7102TIP3   OH242796   4.457   1.925   5.680 -0.3795 -0.1305 -0.0158
 7102TIP3    H142797   4.363   1.936   5.688 -0.5137 -2.0953  1.4569
 7102TIP3    H242798   4.469   1.834   5.654  1.0230  0.7770 -2.7813
 7103TIP3   OH242799   5.054   5.234  14.729 -0.4351  0.1848 -0.0197
 7103TIP3    H142800   5.143   5.197  14.736 -0.0123  1.3583  0.9337
 7103TIP3    H242801   5.023   5.239  14.819 -0.3089  2.5606 -0.0832
 7104TIP3   OH242802   1.437   6.724   4.143  0.1734 -0.5791  0.1168
 7104TIP3    H142803   1.384   6.647   4.123  0.2616 -0.5953 -0.0632
 7104TIP3    H242804   1.374   6.795   4.157  0.0333 -0.9916  1.6689
 7105TIP3   OH242805   6.545   0.669   2.650 -0.7793 -0.7063 -0.4999
 7105TIP3    H142806   6.590   0.595   2.692  0.1804 -0.6201 -1.3520
 7105TIP3    H242807   6.520   0.635   2.564 -2.9966 -0.9806  0.2152
 7106TIP3   OH242808   2.257   4.734  17.231  0.1421  0.1064 -0.1257
 7106TIP3    H142809   2.178   4.701  17.273 -0.5668  1.1854 -0.6114
 7106TIP3    H242810   2.325   4.669  17.254 -0.6850 -0.3907  0.9481
 7107TIP3   OH242811   5.356   4.419  11.846  0.2835  0.1551  0.1636
 7107TIP3    H142812   5.417   4.375  11.787  0.4770 -0.7105  0.9900
 7107TIP3    H242813   5.380   4.511  11.840 -0.2714  0.2020 -1.7538
 7108TIP3   OH242814   3.409   5.339  14.403  0.7103 -0.6788 -0.0612
 7108TIP3    H142815   3.445   5.280  14.336  0.3562  1.2986 -2.0574
 7108TIP3    H242816   3.337   5.384  14.359  2.4718  2.9844  0.5949
 7109TIP3   OH242817   4.170   1.995  15.924  0.1622 -0.7966 -0.9204
 7109TIP3    H142818   4.179   1.907  15.887  0.5966 -1.4043  0.5952
 7109TIP3    H242819   4.092   2.031  15.882 -0.2743 -2.0766 -1.2167
 7110TIP3   OH242820   0.959   0.366  12.322 -0.5247  0.3022 -0.6717
 7110TIP3    H142821   1.008   0.394  12.245  1.3422  0.6395  0.6077
 7110TIP3    H242822   0.910   0.289  12.293  1.2156 -0.3916 -1.8497
 7111TIP3   OH242823   1.286   0.520   4.159  0.4544 -0.4482  0.3791
 7111TIP3    H142824   1.361   0.476   4.119 -1.0721 -2.0391 -0.7984
 7111TIP3    H242825   1.278   0.481   4.245  1.3178  0.1370  0.7296
 7112TIP3   OH242826   3.344   2.427   5.411 -0.5810 -0.2526  0.2765
 7112TIP3    H142827   3.391   2.424   5.327 -0.2692  0.7398  0.4146
 7112TIP3    H242828   3.300   2.342   5.416  0.2692 -0.7436 -0.3876
 7113TIP3   OH242829   1.691   2.940  15.798 -0.0346  0.2413 -0.6854
 7113TIP3    H142830   1.713   2.912  15.886 -2.9086  2.3112  0.7842
 7113TIP3    H242831   1.748   3.016  15.782 -1.4501  1.6095  0.5612
 7114TIP3   OH242832   4.047   3.255  15.033  0.3533 -0.3606  0.1222
 7114TIP3    H142833   3.972   3.305  15.001  0.6006 -1.6417 -2.5879
 7114TIP3    H242834   4.061   3.287  15.122 -1.2049  2.3973 -0.5799
 7115TIP3   OH242835   3.922   2.533   4.908 -0.6507  0.3017 -0.1707
 7115TIP3    H142836   4.014   2.551   4.894 -0.6110  0.2261 -0.0079
 7115TIP3    H242837   3.887   2.516   4.821  0.1337 -2.7642  0.0785
 7116TIP3   OH242838   4.952   5.018   3.420  0.3281  0.5245  0.2653
 7116TIP3    H142839   4.919   5.108   3.427  0.5920  0.6435 -0.0072
 7116TIP3    H242840   5.047   5.027   3.425  0.6224  0.6648 -3.6332
 7117TIP3   OH242841   1.539   6.069   4.603 -0.7211 -0.0949  0.5635
 7117TIP3    H142842   1.615   6.103   4.555 -0.3706 -1.4737  0.1283
 7117TIP3    H242843   1.546   6.109   4.690 -0.7589  1.5694 -0.1773
 7118TIP3   OH242844   2.736   6.167   2.020  0.1720  0.2285 -0.0021
 7118TIP3    H142845   2.773   6.119   2.095 -1.5056 -1.4702 -0.2372
 7118TIP3    H242846   2.771   6.121   1.943  1.0246  1.3108 -0.2778
 7119TIP3   OH242847   6.591   2.114  17.249 -0.0859 -0.2037 -0.9651
 7119TIP3    H142848   6.654   2.123  17.320  0.9837 -2.1703 -1.6205
 7119TIP3    H242849   6.569   2.204  17.225  0.9367  0.4903  0.6135
 7120TIP3   OH242850   5.781   2.414   2.972  0.1037 -0.1883 -0.1600
 7120TIP3    H142851   5.775   2.321   2.990  0.9689 -0.3004 -0.3906
 7120TIP3    H242852   5.694   2.439   2.942 -0.0791 -0.9615 -0.2797
 7121TIP3   OH242853   5.626   0.003  12.028 -0.2476 -0.2504 -0.1591
 7121TIP3    H142854   5.702   0.000  12.086  0.7157 -0.9664 -1.4307
 7121TIP3    H242855   5.552  -0.018  12.084  0.7923 -1.8963  0.6257
 7122TIP3   OH242856   3.555   0.861   0.333 -0.0394  0.0470 -0.4592
 7122TIP3    H142857   3.521   0.786   0.284 -1.4591 -0.0660  0.6652
 7122TIP3    H242858   3.650   0.848   0.333 -0.3184 -2.3324  0.5952
 7123TIP3   OH242859   0.801   3.309   6.149 -0.0790 -0.5948 -0.2997
 7123TIP3    H142860   0.801   3.353   6.234 -0.3844  1.4353 -1.3159
 7123TIP3    H242861   0.715   3.266   6.145 -0.5906  0.3796 -0.1101
 7124TIP3   OH242862   3.460   4.273  13.206  0.0056 -0.2044  0.1737
 7124TIP3    H142863   3.424   4.190  13.172 -0.7871 -0.1184  0.7776
 7124TIP3    H242864   3.441   4.270  13.300 -0.9623  1.1375  0.0210
 7125TIP3   OH242865   3.909   1.512  16.206  0.3811  0.3904 -0.3967
 7125TIP3    H142866   3.848   1.584  16.218  0.6768  0.4652  0.7004
 7125TIP3    H242867   3.992   1.554  16.181  0.8411  0.5204  1.2886
 7126TIP3   OH242868   0.628   4.312  14.344  0.3296  0.2309  0.7343
 7126TIP3    H142869   0.628   4.302  14.249  0.3749 -0.0172  0.7618
 7126TIP3    H242870   0.595   4.401  14.358  0.0422  0.1632  0.4989
 7127TIP3   OH242871   2.375   1.030   5.061  0.6308 -0.5071  0.2439
 7127TIP3    H142872   2.456   0.995   5.023  0.7159  0.1331 -0.1705
 7127TIP3    H242873   2.387   1.125   5.060 -0.5153 -0.3609 -0.7016
 7128TIP3   OH242874   3.973   5.225  16.523  0.2659 -0.1444 -0.2045
 7128TIP3    H142875   3.886   5.194  16.549  1.1524 -2.0447  0.6015
 7128TIP3    H242876   3.990   5.300  16.581 -1.4504  1.2455 -1.4349
 7129TIP3   OH242877   3.868   3.102   0.546 -0.6002  0.4920  0.1680
 7129TIP3    H142878   3.776   3.129   0.534 -0.4354 -0.2121 -2.9277
 7129TIP3    H242879   3.918   3.179   0.520 -0.2855  0.9499  2.0731
 7130TIP3   OH242880   6.551   5.990   5.393  0.5561 -0.1425  0.5770
 7130TIP3    H142881   6.553   6.036   5.476 -1.8802 -0.4894  0.8804
 7130TIP3    H242882   6.538   5.898   5.416 -0.9421 -0.1456 -0.1547
 7131TIP3   OH242883   6.180   2.877  11.521 -0.2892  0.0634 -0.0864
 7131TIP3    H142884   6.099   2.827  11.509 -1.9410  2.3722  1.0653
 7131TIP3    H242885   6.157   2.966  11.497  1.7231  0.8891  0.9328
 7132TIP3   OH242886   4.534   3.192   3.185  0.4318  0.4110  0.5800
 7132TIP3    H142887   4.575   3.162   3.266  0.0200 -0.2043  0.5624
 7132TIP3    H242888   4.444   3.212   3.210 -0.4691 -2.4166 -0.3023
 7133TIP3   OH242889   3.127   3.351   0.855  0.3372  0.3421  0.2072
 7133TIP3    H142890   3.064   3.291   0.893 -0.3476  0.5726 -0.5417
 7133TIP3    H242891   3.128   3.329   0.761  2.0252 -0.2555  0.3413
 7134TIP3   OH242892   2.934   3.884   3.960 -0.6578  0.0249  0.1226
 7134TIP3    H142893   2.968   3.831   4.032 -0.7708 -0.3348 -0.0890
 7134TIP3    H242894   2.893   3.821   3.901  0.4505  0.1986 -0.8362
 7135TIP3   OH242895   4.052   1.369   5.617 -0.2064  0.1274  0.7876
 7135TIP3    H142896   3.966   1.404   5.641 -0.9234 -1.3190  0.4119
 7135TIP3    H242897   4.097   1.358   5.701 -0.2864  1.1436  0.9674
 7136TIP3   OH242898   3.393   4.795   1.314  0.4248 -0.1266  0.4772
 7136TIP3    H142899   3.415   4.738   1.388 -1.7170 -1.4005  0.1740
 7136TIP3    H242900   3.338   4.740   1.257 -0.1452  1.6647 -0.7304
 7137TIP3   OH242901   6.368   6.167   3.090  0.1900 -0.0576  0.3223
 7137TIP3    H142902   6.459   6.177   3.062  0.4787  1.1181  1.6110
 7137TIP3    H242903   6.352   6.073   3.088  1.3860 -0.2560 -0.0987
 7138TIP3   OH242904   0.625   5.537   4.756  0.1751 -0.3883  0.1828
 7138TIP3    H142905   0.558   5.473   4.734 -1.5853  1.2685  0.6277
 7138TIP3    H242906   0.622   5.542   4.852  0.5703  0.0721  0.1706
 7139TIP3   OH242907   1.411   3.585   4.765  0.4114 -0.5293 -0.0965
 7139TIP3    H142908   1.433   3.667   4.722 -0.3071  0.3092  1.1043
 7139TIP3    H242909   1.490   3.531   4.756  1.2565  0.6747 -0.0032
 7140TIP3   OH242910   1.863   4.367   5.584  0.3934  0.2753  0.1549
 7140TIP3    H142911   1.956   4.377   5.565  0.7475 -1.7720  0.7393
 7140TIP3    H242912   1.858   4.292   5.643 -1.5613  0.8090  0.6972
 7141TIP3   OH242913   6.198   3.501  14.987  0.0211 -0.2762  0.3914
 7141TIP3    H142914   6.146   3.581  14.976 -0.2166 -0.4324  0.3625
 7141TIP3    H242915   6.256   3.499  14.911 -0.1380 -0.2508  0.2678
 7142TIP3   OH242916   4.293   4.182  13.589  0.8460  0.1443  0.3107
 7142TIP3    H142917   4.309   4.096  13.549  1.3340 -0.1042  1.0469
 7142TIP3    H242918   4.197   4.189  13.590  0.8208  0.0245 -0.6319
 7143TIP3   OH242919   3.347   3.363  13.358  0.0350  0.2595 -0.7109
 7143TIP3    H142920   3.292   3.439  13.338 -0.1105 -0.1837 -2.0284
 7143TIP3    H242921   3.286   3.291  13.371  0.2293  0.1031 -0.6567
 7144TIP3   OH242922   2.813   5.614  13.624  0.5693  0.7722 -0.1468
 7144TIP3    H142923   2.866   5.628  13.702 -0.3843  0.1584  0.6201
 7144TIP3    H242924   2.861   5.549  13.573  0.1143 -0.4821  0.9894
 7145TIP3   OH242925   3.485   0.943   4.393 -0.1361  0.2587  0.1529
 7145TIP3    H142926   3.528   1.006   4.334 -0.7690  1.1601  0.6274
 7145TIP3    H242927   3.401   0.926   4.350 -0.0741 -0.0579  0.1608
 7146TIP3   OH242928   0.580   6.388  11.314 -0.1095 -0.2024  0.1796
 7146TIP3    H142929   0.590   6.483  11.314 -1.3017 -0.0649 -0.7383
 7146TIP3    H242930   0.667   6.355  11.336  0.9264  1.0375 -1.8364
 7147TIP3   OH242931   4.340   4.452   1.565  0.4856 -0.5470 -0.2285
 7147TIP3    H142932   4.369   4.379   1.510  0.2523 -0.5440 -0.3541
 7147TIP3    H242933   4.409   4.460   1.631  0.7779 -0.5372 -0.5317
 7148TIP3   OH242934   0.087   4.671   2.443  0.3307 -0.8936 -0.1387
 7148TIP3    H142935   0.107   4.764   2.440  0.7026 -1.0053 -1.4828
 7148TIP3    H242936  -0.004   4.665   2.413  1.0896 -1.1612 -2.5457
 7149TIP3   OH242937   2.592   2.180   3.375 -0.1689  0.4163 -0.4353
 7149TIP3    H142938   2.551   2.255   3.418  0.2547  0.2361  0.2917
 7149TIP3    H242939   2.673   2.215   3.338  0.1935  0.2466  0.1933
 7150TIP3   OH242940   3.117   6.620   5.777 -0.5366  0.2767 -0.3865
 7150TIP3    H142941   3.151   6.614   5.688 -1.3602  1.1048 -0.7599
 7150TIP3    H242942   3.059   6.544   5.786 -2.6179  1.6798 -1.5069
 7151TIP3   OH242943   5.241   6.707  12.590  0.0370  0.1103 -0.5579
 7151TIP3    H142944   5.223   6.614  12.577  0.5670  0.1021 -1.2689
 7151TIP3    H242945   5.313   6.726  12.530  1.7961  0.3318  1.5308
 7152TIP3   OH242946   5.220   3.308   3.877  0.6817  0.2057  0.7273
 7152TIP3    H142947   5.198   3.253   3.952 -0.5492 -0.3979 -0.0607
 7152TIP3    H242948   5.195   3.396   3.904 -0.2115 -0.0818  0.8499
 7153TIP3   OH242949   0.069   0.344   4.767  0.5529 -0.2518  0.5200
 7153TIP3    H142950   0.051   0.312   4.678  2.5812 -1.4058  0.4861
 7153TIP3    H242951   0.077   0.264   4.819  0.7010  0.3714  1.4630
 7154TIP3   OH242952   1.391   1.452   3.301  0.2535  0.6923 -0.1701
 7154TIP3    H142953   1.484   1.451   3.280  0.0199  1.1438 -1.3015
 7154TIP3    H242954   1.348   1.475   3.218 -0.7585  1.9396  0.6777
 7155TIP3   OH242955   4.028   1.593  11.537  0.0889 -0.0735 -0.1370
 7155TIP3    H142956   4.058   1.547  11.615 -0.4425  0.1835  0.2132
 7155TIP3    H242957   3.987   1.673  11.569  0.0451  0.1283 -0.6869
 7156TIP3   OH242958   3.313   6.007   0.788 -0.2112  0.2833 -0.4963
 7156TIP3    H142959   3.247   6.014   0.719  0.4846 -1.1539 -1.3338
 7156TIP3    H242960   3.300   5.919   0.825 -0.6731  1.0763  1.3266
 7157TIP3   OH242961   2.465   3.432   5.394  0.2644 -1.4554 -0.0566
 7157TIP3    H142962   2.509   3.506   5.436 -0.7565 -0.7913 -0.1240
 7157TIP3    H242963   2.372   3.445   5.415  0.0190 -2.4311 -0.5163
 7158TIP3   OH242964   0.120   4.886   2.798  0.6857  0.1113 -0.3600
 7158TIP3    H142965   0.181   4.949   2.836  0.4947 -0.4965  0.9956
 7158TIP3    H242966   0.159   4.800   2.818  0.1124 -0.2400 -0.7258
 7159TIP3   OH242967   0.263   5.835  14.937 -0.0682 -0.2162  0.0228
 7159TIP3    H142968   0.261   5.787  15.020  2.1021 -1.0532 -0.3769
 7159TIP3    H242969   0.340   5.892  14.944 -0.2682  0.2115 -1.1583
 7160TIP3   OH242970   5.356   4.632   2.601  0.5627  0.3510 -0.2117
 7160TIP3    H142971   5.294   4.560   2.607  1.5460 -0.3588  2.0240
 7160TIP3    H242972   5.391   4.627   2.513 -0.6575 -0.8362 -0.6407
 7161TIP3   OH242973   0.840   0.881  11.921 -0.0168 -0.2755  0.2258
 7161TIP3    H142974   0.866   0.811  11.981  0.9232  1.3328  1.7462
 7161TIP3    H242975   0.787   0.837  11.854 -1.5987 -2.0566  2.5544
 7162TIP3   OH242976   5.521   4.506   6.372 -0.0754  0.2088  0.0904
 7162TIP3    H142977   5.607   4.548   6.375 -0.3306  0.7195  0.2459
 7162TIP3    H242978   5.461   4.576   6.347 -0.4038 -0.2151 -0.3081
 7163TIP3   OH242979   5.159   6.124  12.652 -0.5104 -0.2722 -0.1621
 7163TIP3    H142980   5.098   6.050  12.656 -0.7182 -0.0584  0.9691
 7163TIP3    H242981   5.168   6.143  12.559 -2.1378 -0.3549 -0.3579
 7164TIP3   OH242982   2.855   3.552  15.131 -0.5656  0.3157  0.7458
 7164TIP3    H142983   2.821   3.491  15.197  1.3695 -0.0351  1.4470
 7164TIP3    H242984   2.917   3.500  15.080  0.7465  1.5488  1.0407
 7165TIP3   OH242985   4.908   1.712  11.187 -0.4570 -0.2014 -0.0882
 7165TIP3    H142986   4.875   1.721  11.098  0.7252 -0.7344 -0.5889
 7165TIP3    H242987   4.992   1.668  11.177 -0.9373 -1.5127  1.4002
 7166TIP3   OH242988   4.089   5.759  15.483  0.6675 -0.1889  0.2147
 7166TIP3    H142989   4.103   5.673  15.523  1.6515 -0.4457 -0.6617
 7166TIP3    H242990   4.098   5.820  15.555  0.6390 -0.7754  0.7225
 7167TIP3   OH242991   3.779   0.090  15.980  0.0339  0.0899 -0.2106
 7167TIP3    H142992   3.799   0.113  16.070  1.3441 -0.3658 -0.3812
 7167TIP3    H242993   3.858   0.112  15.931 -0.5094 -0.0817 -1.1789
 7168TIP3   OH242994   2.362   6.496   0.687  0.6580 -0.0250 -0.3224
 7168TIP3    H142995   2.295   6.526   0.748  2.9995 -0.8582  2.8261
 7168TIP3    H242996   2.403   6.576   0.654 -0.3068  0.4324 -0.4215
 7169TIP3   OH242997   1.786   2.828  10.474  0.0352 -0.1663  0.0695
 7169TIP3    H142998   1.722   2.812  10.543 -0.0361 -1.1806 -0.2189
 7169TIP3    H242999   1.779   2.922  10.456 -0.1863  0.0421  1.1911
 7170TIP3   OH243000   3.095   2.039  11.183  0.7349 -0.2015 -0.8754
 7170TIP3    H143001   3.081   2.094  11.260  0.7286 -0.5233 -0.6473
 7170TIP3    H243002   3.188   2.017  11.186  0.6796 -0.4267 -0.8201
 7171TIP3   OH243003   5.007   1.641  14.550 -0.3086 -0.4890 -0.4473
 7171TIP3    H143004   4.912   1.650  14.543 -0.5488 -1.1004  1.6075
 7171TIP3    H243005   5.027   1.563  14.499 -1.2757 -1.8480  1.1872
 7172TIP3   OH243006   4.247   0.162   1.417  0.1166  0.3916  0.8056
 7172TIP3    H143007   4.153   0.148   1.401 -0.0420  0.4788  1.6173
 7172TIP3    H243008   4.251   0.250   1.456  0.5295  0.3501  0.8568
 7173TIP3   OH243009   1.164   2.031  12.039 -0.1977 -0.3919 -0.1026
 7173TIP3    H143010   1.167   1.979  12.119  0.9147  0.9664  0.7705
 7173TIP3    H243011   1.253   2.030  12.006 -0.5350 -0.4759 -1.0182
 7174TIP3   OH243012   6.464   4.512   4.263 -0.0128  0.6405  0.3118
 7174TIP3    H143013   6.460   4.521   4.358 -0.8890  0.4817  0.2952
 7174TIP3    H243014   6.378   4.543   4.232 -0.5787 -1.3973 -0.2543
 7175TIP3   OH243015   5.802   0.886  13.365  0.2805  0.4241 -0.0759
 7175TIP3    H143016   5.867   0.956  13.352 -0.6115  1.4677  1.0350
 7175TIP3    H243017   5.719   0.932  13.373 -0.1833 -0.7050  1.7393
 7176TIP3   OH243018   3.746   2.359  14.009  0.3164 -0.6652  0.0210
 7176TIP3    H143019   3.720   2.289  13.950 -0.5782 -0.0610 -0.3100
 7176TIP3    H243020   3.815   2.407  13.962  0.3138 -0.7884 -0.1051
 7177TIP3   OH243021   5.945   6.185  16.483 -0.2117 -0.3085  0.5327
 7177TIP3    H143022   5.986   6.099  16.489 -0.2721 -0.2775  1.6155
 7177TIP3    H243023   5.939   6.203  16.389 -0.4678 -1.6117  0.2894
 7178TIP3   OH243024   5.648   4.970  10.837 -0.3939  0.2664 -0.3684
 7178TIP3    H143025   5.610   4.887  10.811  0.4365 -1.1169  2.6145
 7178TIP3    H243026   5.738   4.950  10.861  0.1053  2.1978 -0.4809
 7179TIP3   OH243027   3.362   6.375  13.803  0.1098  0.4955 -0.0437
 7179TIP3    H143028   3.426   6.445  13.813  0.8412  0.0758 -1.6177
 7179TIP3    H243029   3.414   6.294  13.807 -0.5047  0.1084  0.1545
 7180TIP3   OH243030   0.578   4.277   5.282  0.6724 -0.1274 -0.3127
 7180TIP3    H143031   0.596   4.308   5.371  2.0077 -1.0878 -0.2213
 7180TIP3    H243032   0.497   4.226   5.290  1.2104 -0.8621  0.5134
 7181TIP3   OH243033   0.654   2.343   0.224 -0.9580  0.1382 -0.2605
 7181TIP3    H143034   0.725   2.398   0.258 -0.1040 -1.6826  1.0261
 7181TIP3    H243035   0.602   2.322   0.302 -0.4810 -1.9508 -0.4730
 7182TIP3   OH243036   6.709   1.483   4.444 -0.6678 -0.5156 -0.0948
 7182TIP3    H143037   6.718   1.572   4.476 -1.7434  0.1480 -1.5886
 7182TIP3    H243038   6.799   1.454   4.427 -0.2975  0.1725  0.6503
 7183TIP3   OH243039   1.633   4.770   2.967 -0.3674  0.5305  0.2488
 7183TIP3    H143040   1.598   4.699   2.912  1.1039  0.6121 -0.8112
 7183TIP3    H243041   1.660   4.837   2.905 -0.4238  1.4240  1.1875
 7184TIP3   OH243042   2.344   3.836   3.951 -0.0958  0.0627 -0.1608
 7184TIP3    H143043   2.409   3.851   3.883 -0.9309  2.3905 -0.4997
 7184TIP3    H243044   2.287   3.768   3.916 -0.0433  0.6805 -1.4742
 7185TIP3   OH243045   1.117   2.105   6.437  0.2127  0.2475  0.0693
 7185TIP3    H143046   1.204   2.069   6.451  0.5119  1.1633  0.6023
 7185TIP3    H243047   1.101   2.161   6.513 -1.1330 -0.4598  0.3287
 7186TIP3   OH243048   2.406   2.086   0.955  0.3458  0.0049  0.0287
 7186TIP3    H143049   2.425   2.101   0.863  0.3325  0.8196  0.1575
 7186TIP3    H243050   2.443   2.162   1.000 -3.1341  1.6532  0.2953
 7187TIP3   OH243051   2.751   5.045  11.559  0.5585  0.0001  0.4468
 7187TIP3    H143052   2.667   5.003  11.579  0.2484  1.0715  1.4529
 7187TIP3    H243053   2.817   4.985  11.592  0.1631 -0.3865  0.5438
 7188TIP3   OH243054   2.944   5.284   5.662 -0.5180  0.1206  0.2761
 7188TIP3    H143055   2.993   5.325   5.733  0.9509  1.2999 -1.3836
 7188TIP3    H243056   2.999   5.295   5.585 -2.1670 -0.9701 -1.0984
 7189TIP3   OH243057   4.566   1.238  15.509  0.1009 -0.2904  0.5505
 7189TIP3    H143058   4.648   1.241  15.461 -0.6307  2.3618 -0.5925
 7189TIP3    H243059   4.501   1.208  15.445 -1.0246  3.9954 -0.4459
 7190TIP3   OH243060   6.136   6.064   4.474  0.6816 -0.6418  0.5529
 7190TIP3    H143061   6.152   6.031   4.563  3.2044 -1.6033 -0.2196
 7190TIP3    H243062   6.122   5.985   4.422  2.8094 -0.3211 -0.5603
 7191TIP3   OH243063   2.553   3.091  13.957 -0.3229 -0.1592 -0.3910
 7191TIP3    H143064   2.587   3.135  14.035 -2.1965 -0.4073  0.5756
 7191TIP3    H243065   2.500   3.157  13.912  1.1275  0.1303 -1.7405
 7192TIP3   OH243066   1.306   0.913   2.828 -0.3929  0.5286 -0.0316
 7192TIP3    H143067   1.254   0.969   2.770 -0.7785  1.4868  1.2227
 7192TIP3    H243068   1.243   0.878   2.891  0.0166 -0.5540 -0.2003
 7193TIP3   OH243069   5.636   2.222   5.793 -0.2840  0.3011 -0.4399
 7193TIP3    H143070   5.542   2.226   5.811 -0.3087  1.5901 -0.8578
 7193TIP3    H243071   5.676   2.275   5.862  0.1366 -0.1359 -0.3415
 7194TIP3   OH243072   3.465   6.150   0.297 -0.4184  0.0998 -0.0042
 7194TIP3    H143073   3.405   6.096   0.245  0.9489 -2.6140  1.1328
 7194TIP3    H243074   3.494   6.093   0.368 -0.3160  2.9515  2.3291
 7195TIP3   OH243075   0.308   2.585  13.898  0.3255 -0.5049 -0.1407
 7195TIP3    H143076   0.322   2.622  13.985 -0.6937 -0.2507 -0.0841
 7195TIP3    H243077   0.382   2.525  13.886  1.5008  0.8632  0.1236
 7196TIP3   OH243078   2.669   6.170  16.192  0.1686  0.4316  0.4115
 7196TIP3    H143079   2.724   6.136  16.121  0.1877  0.0721  0.5951
 7196TIP3    H243080   2.712   6.251  16.219 -0.3476  1.0549 -0.6063
 7197TIP3   OH243081   4.166   0.466   4.908 -0.0318 -0.5111  0.0423
 7197TIP3    H143082   4.170   0.548   4.957 -0.1880 -1.0273  0.9228
 7197TIP3    H243083   4.102   0.483   4.839 -1.9749 -0.7055  1.7553
 7198TIP3   OH243084   5.877   2.884  14.516 -0.1729 -0.5493  0.4979
 7198TIP3    H143085   5.850   2.861  14.605 -1.8017 -0.4475  0.0609
 7198TIP3    H243086   5.886   2.801  14.471  0.3534 -0.5879  0.6691
 7199TIP3   OH243087   4.881   1.883  11.415  0.2083  0.5606  0.4113
 7199TIP3    H143088   4.968   1.912  11.443 -0.2632  0.6543  1.7942
 7199TIP3    H243089   4.899   1.809  11.357  1.1972  0.2498  1.0949
 7200TIP3   OH243090   6.263   0.319   2.297 -0.3377 -0.2958  0.7047
 7200TIP3    H143091   6.357   0.315   2.312 -0.5654 -1.3813  1.9098
 7200TIP3    H243092   6.240   0.411   2.311  0.5306 -0.0291  0.3982
 7201TIP3   OH243093   1.108   4.531   5.436 -0.1859  0.6172  0.3875
 7201TIP3    H143094   1.103   4.594   5.364  0.4652  1.0128  0.6754
 7201TIP3    H243095   1.193   4.487   5.424 -0.3395  0.2719  0.5697
 7202TIP3   OH243096   2.706   2.483   5.034  0.1590 -0.0645 -0.0088
 7202TIP3    H143097   2.777   2.421   5.050 -1.1327 -1.9826 -1.5522
 7202TIP3    H243098   2.750   2.559   4.995  1.4540 -0.9753 -0.3583
 7203TIP3   OH243099   4.636   1.461  12.553  0.2027  0.3423  0.1344
 7203TIP3    H143100   4.569   1.422  12.496  0.5798 -0.1419  0.0184
 7203TIP3    H243101   4.691   1.513  12.494  0.3651  0.1496  0.1170
 7204TIP3   OH243102   3.079   2.514   5.311 -0.5073  0.1823  0.6444
 7204TIP3    H143103   3.020   2.474   5.374  0.3300 -1.8245  0.2077
 7204TIP3    H243104   3.167   2.499   5.346 -0.0039 -1.3153 -1.1289
 7205TIP3   OH243105   2.606   5.662   4.857  0.1084 -0.0819  0.3150
 7205TIP3    H143106   2.673   5.594   4.853  1.3400  1.1797 -1.1701
 7205TIP3    H243107   2.530   5.622   4.815  0.6469 -0.7395 -0.0504
 7206TIP3   OH243108   1.361   0.354   0.592 -0.4845 -0.1145  0.0376
 7206TIP3    H143109   1.307   0.305   0.654 -0.1196  0.0784  0.5151
 7206TIP3    H243110   1.425   0.291   0.561  0.7781  0.3656  1.6065
 7207TIP3   OH243111   5.364   1.812  16.420  0.2299 -0.8857 -0.3568
 7207TIP3    H143112   5.361   1.907  16.428  1.0304 -0.8195 -0.7292
 7207TIP3    H243113   5.389   1.782  16.507  0.9337 -0.6894 -0.4877
 7208TIP3   OH243114   4.658   4.630  12.867  0.2125  0.6150 -0.0797
 7208TIP3    H143115   4.607   4.689  12.923  0.9580  2.0278 -0.8435
 7208TIP3    H243116   4.733   4.683  12.839 -0.1675 -0.0185 -2.4633
 7209TIP3   OH243117   3.792   3.693   3.501 -0.3846  0.0743 -0.0824
 7209TIP3    H143118   3.715   3.742   3.472 -0.1049  1.0456  0.8121
 7209TIP3    H243119   3.864   3.727   3.448 -0.5477 -0.7893 -0.8743
 7210TIP3   OH243120   4.093   1.096  10.466 -0.0288  0.3098  0.4294
 7210TIP3    H143121   4.156   1.041  10.512  1.1480  0.0968 -1.3595
 7210TIP3    H243122   4.140   1.178  10.451  0.0825 -0.0936 -1.5186
 7211TIP3   OH243123   5.231   4.801   0.714 -0.1640 -0.1617 -0.3907
 7211TIP3    H143124   5.314   4.789   0.760  0.7159 -0.6743 -2.0683
 7211TIP3    H243125   5.205   4.713   0.687 -1.7601 -0.1261  0.9458
 7212TIP3   OH243126   0.275   6.198  13.444 -0.1927 -0.7400 -0.0220
 7212TIP3    H143127   0.326   6.258  13.390 -0.8169 -0.1792  0.0136
 7212TIP3    H243128   0.200   6.174  13.389 -0.6120 -0.4906  0.4502
 7213TIP3   OH243129   3.531   3.577  13.178 -0.8472  0.1008 -1.1082
 7213TIP3    H143130   3.523   3.561  13.272  0.3155 -0.4967 -1.0960
 7213TIP3    H243131   3.529   3.672  13.169  2.2518  0.3130 -0.1388
 7214TIP3   OH243132   4.515   4.788   2.421  0.0794 -0.6444 -0.4929
 7214TIP3    H143133   4.522   4.880   2.447  1.4345 -0.9614  0.3061
 7214TIP3    H243134   4.458   4.749   2.488  0.0055 -0.5178 -0.4816
 7215TIP3   OH243135   5.892   2.747  14.217 -0.4480 -0.2268 -0.2504
 7215TIP3    H143136   5.812   2.730  14.168 -0.3744  1.7239 -1.0978
 7215TIP3    H243137   5.956   2.684  14.184 -0.2739  1.3337 -3.0233
 7216TIP3   OH243138   6.197   2.082  12.274 -0.0878 -0.3564 -0.5427
 7216TIP3    H143139   6.241   2.123  12.200  0.9092  0.9031  0.7135
 7216TIP3    H243140   6.105   2.104  12.262  0.3471  1.7917 -0.2238
 7217TIP3   OH243141   1.201   1.719   1.287  0.4157 -0.1494 -0.7036
 7217TIP3    H143142   1.142   1.648   1.311 -2.8175  3.2332  1.7923
 7217TIP3    H243143   1.267   1.721   1.357 -0.5629  0.4401  0.2153
 7218TIP3   OH243144   2.077   6.598  13.853 -0.6040  0.0264 -0.1555
 7218TIP3    H143145   2.053   6.659  13.783 -0.2464  0.4881  0.1222
 7218TIP3    H243146   2.162   6.563  13.828 -0.5212  0.1159  0.0002
 7219TIP3   OH243147   3.310   1.468   4.181 -0.3172  0.5350 -0.1200
 7219TIP3    H143148   3.240   1.445   4.242 -0.5821 -0.2638 -0.7252
 7219TIP3    H243149   3.390   1.441   4.226 -0.4295  0.9677  0.3478
 7220TIP3   OH243150   4.081   4.128   0.263 -0.1918 -0.2148 -0.2976
 7220TIP3    H143151   4.004   4.073   0.277  0.1397 -0.2928  1.3314
 7220TIP3    H243152   4.136   4.112   0.340  1.1976  0.2680 -1.1604
 7221TIP3   OH243153   0.418   3.867   0.101 -0.0437  0.2137  0.6407
 7221TIP3    H143154   0.355   3.834   0.165 -0.6700 -0.2444 -0.2111
 7221TIP3    H243155   0.420   3.801   0.032 -0.1201  1.1909 -0.3058
 7222TIP3   OH243156   6.791   0.877  14.952 -0.0741  0.2707  0.5414
 7222TIP3    H143157   6.715   0.858  14.898  0.1509 -1.4281  0.8182
 7222TIP3    H243158   6.784   0.817  15.026  1.5124  0.1292  0.5869
 7223TIP3   OH243159   5.097   2.416   1.923  0.4649 -0.0279 -0.4094
 7223TIP3    H143160   5.087   2.356   1.848  1.1502  1.8655 -2.0645
 7223TIP3    H243161   5.061   2.499   1.893  0.1357  0.5950  1.6231
 7224TIP3   OH243162   6.499   0.013  14.410  0.2998  1.2263 -0.2951
 7224TIP3    H143163   6.523  -0.077  14.432  0.8422  1.6161  0.7301
 7224TIP3    H243164   6.444   0.042  14.483  0.2986  1.7978 -0.5191
 7225TIP3   OH243165   1.346   2.349  14.754  0.0785  0.2618  0.0544
 7225TIP3    H143166   1.354   2.338  14.849  2.2690 -0.2083 -0.1596
 7225TIP3    H243167   1.361   2.262  14.718 -1.3318  0.3213 -0.7072
 7226TIP3   OH243168   5.851   3.227   2.706 -0.4143 -0.2947 -0.1706
 7226TIP3    H143169   5.774   3.265   2.665 -0.0879 -1.5928 -2.0434
 7226TIP3    H243170   5.924   3.284   2.680 -0.7845  1.3209  2.1498
 7227TIP3   OH243171   4.654   0.399   2.730  0.2292  0.4441 -0.6345
 7227TIP3    H143172   4.597   0.456   2.677  0.4585  1.1482 -0.1319
 7227TIP3    H243173   4.684   0.332   2.669 -0.8629  0.2658 -0.9938
 7228TIP3   OH243174   2.451   1.580  11.887 -0.2748 -0.1281 -0.1958
 7228TIP3    H143175   2.431   1.607  11.798 -0.7524 -0.5859 -0.2310
 7228TIP3    H243176   2.489   1.493  11.878 -1.8610 -0.8880  0.1543
 7229TIP3   OH243177   1.632   1.205   3.059 -0.5192 -0.0476  0.2422
 7229TIP3    H143178   1.573   1.275   3.086 -1.8993 -1.4227  0.8709
 7229TIP3    H243179   1.691   1.194   3.134 -1.1353 -0.4230  0.6869
 7230TIP3   OH243180   2.655   6.491  14.720 -0.4683 -0.1166 -0.2127
 7230TIP3    H143181   2.695   6.477  14.634  1.5055  2.0748  0.3186
 7230TIP3    H243182   2.599   6.568  14.708 -0.9763 -0.4197  0.2096
 7231TIP3   OH243183   4.811   1.615  13.250  0.0947 -0.2937 -0.3317
 7231TIP3    H143184   4.720   1.605  13.220 -0.1873 -0.7764  0.6573
 7231TIP3    H243185   4.849   1.527  13.241  0.1633 -0.3233  0.1859
 7232TIP3   OH243186   6.774   1.866   6.416  0.1036 -0.1401  0.1437
 7232TIP3    H143187   6.682   1.867   6.442  0.1846 -1.3779  0.5011
 7232TIP3    H243188   6.786   1.948   6.368 -1.3851 -0.3217 -0.5776
 7233TIP3   OH243189   1.743   4.142  13.119 -0.2768 -0.3782 -0.1633
 7233TIP3    H143190   1.801   4.069  13.137  0.5424  0.1601 -0.5771
 7233TIP3    H243191   1.768   4.172  13.032 -0.1328  0.8285  0.2790
 7234TIP3   OH243192   5.386   6.768  12.307 -0.1941  0.1631 -0.4951
 7234TIP3    H143193   5.321   6.794  12.241  0.2254 -0.4243 -1.1385
 7234TIP3    H243194   5.423   6.851  12.337 -1.2375  0.5010 -0.1323
 7235TIP3   OH243195   2.835   6.012  13.246 -0.1072 -0.8508  0.0865
 7235TIP3    H143196   2.797   6.033  13.161 -2.2171 -0.1039  1.1696
 7235TIP3    H243197   2.809   5.921  13.262 -0.6998 -0.6210  0.4386
 7236TIP3   OH243198   0.659   5.727  12.905  0.1600  0.0668 -0.1050
 7236TIP3    H143199   0.647   5.789  12.833  1.5395  2.5788  1.7574
 7236TIP3    H243200   0.750   5.739  12.932 -0.3310 -0.8211  2.0547
 7237TIP3   OH243201   2.288   5.477   1.116  0.7223 -0.7972  0.5446
 7237TIP3    H143202   2.328   5.555   1.155 -0.8448  1.7273 -2.6645
 7237TIP3    H243203   2.362   5.428   1.081  1.6544 -0.2512  1.7061
 7238TIP3   OH243204   3.124   0.193  11.522 -0.4611  0.0840 -0.1882
 7238TIP3    H143205   3.049   0.219  11.469 -0.4857 -0.9744 -0.6867
 7238TIP3    H243206   3.092   0.121  11.577  0.6055 -1.5611 -1.6409
 7239TIP3   OH243207   2.370   0.278   5.077 -0.2579  0.3167 -0.3918
 7239TIP3    H143208   2.305   0.222   5.033 -1.1180  1.2475 -0.3247
 7239TIP3    H243209   2.408   0.221   5.144 -1.1099 -0.2073 -0.3330
 7240TIP3   OH243210   3.776   5.515  12.529  0.1583  0.5064 -0.1858
 7240TIP3    H143211   3.733   5.572  12.465  1.6075  0.3511 -1.3355
 7240TIP3    H243212   3.860   5.493  12.489  0.5715 -0.6184  1.2378
 7241TIP3   OH243213   2.098   2.376  14.117 -0.0544 -0.8140  0.1057
 7241TIP3    H143214   2.062   2.459  14.086  0.5666 -0.6584 -0.1997
 7241TIP3    H243215   2.143   2.339  14.041 -1.0075 -1.8133  0.0155
 7242TIP3   OH243216   3.035   2.880  13.153 -0.4934 -0.3350  0.5427
 7242TIP3    H143217   3.050   2.786  13.160  1.1082 -0.1688 -0.4219
 7242TIP3    H243218   3.111   2.919  13.198  0.1738  0.5130 -1.3015
 7243TIP3   OH243219   4.815   4.082   2.611  0.1778  0.4307  0.2875
 7243TIP3    H143220   4.733   4.032   2.608  0.2401  0.3693 -0.4212
 7243TIP3    H243221   4.807   4.144   2.539  1.7749 -1.1360 -1.2668
 7244TIP3   OH243222   0.166   0.077   3.631  0.1168  0.3500  0.1222
 7244TIP3    H143223   0.136   0.065   3.541 -1.4315 -0.5120  0.7392
 7244TIP3    H243224   0.219   0.157   3.627 -1.7987  1.6260 -1.1388
 7245TIP3   OH243225   6.051   5.767   3.162 -0.5194 -1.0750  0.1405
 7245TIP3    H143226   6.034   5.674   3.175 -0.0825 -0.9314  1.7841
 7245TIP3    H243227   6.120   5.789   3.224  1.9753 -0.4375 -2.7271
 7246TIP3   OH243228   6.070   2.772   5.933 -0.2169  0.2627  0.2267
 7246TIP3    H143229   6.126   2.697   5.911 -0.5858  0.2390 -0.6639
 7246TIP3    H243230   6.098   2.797   6.021  2.0285  1.0009 -0.6456
 7247TIP3   OH243231   5.409   5.590   4.697  0.2933 -0.8043 -0.0124
 7247TIP3    H143232   5.386   5.635   4.778 -0.7840 -0.4286 -0.5146
 7247TIP3    H243233   5.501   5.611   4.683 -0.1471  1.1001 -0.1319
 7248TIP3   OH243234   3.076   2.429  14.657  0.3034 -0.1413 -0.2706
 7248TIP3    H143235   3.034   2.389  14.581 -1.9866  0.1035  0.8568
 7248TIP3    H243236   3.067   2.523  14.642  1.6635 -0.0539 -0.6651
 7249TIP3   OH243237   0.119   0.250   4.474 -0.1677 -0.0671 -0.1753
 7249TIP3    H143238   0.080   0.250   4.387 -0.9182  0.8279  0.1476
 7249TIP3    H243239   0.151   0.340   4.486 -0.5770 -0.0339  0.6976
 7250TIP3   OH243240   5.829   6.469  17.282  0.1544  0.6516 -0.4148
 7250TIP3    H143241   5.754   6.416  17.308 -0.8300  2.3143  0.2680
 7250TIP3    H243242   5.900   6.442  17.340 -0.0818 -0.4841 -0.6432
 7251TIP3   OH243243   3.706   1.161   0.126  0.1401  0.4366 -0.3236
 7251TIP3    H143244   3.687   1.221   0.198  0.0360  1.0979 -0.9000
 7251TIP3    H243245   3.621   1.121   0.106  0.6734 -1.8305  1.7681
 7252TIP3   OH243246   6.431   4.776  17.182  0.1333  0.6579  0.0940
 7252TIP3    H143247   6.428   4.700  17.124  0.3085  0.3669  0.4602
 7252TIP3    H243248   6.394   4.745  17.265 -0.3009  1.1259  0.0789
 7253TIP3   OH243249   0.756   4.723  11.845  0.0310  0.3088  0.2884
 7253TIP3    H143250   0.726   4.652  11.790 -1.8608  1.7829 -0.6344
 7253TIP3    H243251   0.693   4.727  11.917  1.3489 -0.3068  1.5150
 7254TIP3   OH243252   2.939   3.947   0.157  0.1183 -0.7361  0.0881
 7254TIP3    H143253   2.971   3.872   0.209  0.0543 -1.4920 -0.9413
 7254TIP3    H243254   3.018   3.981   0.115  0.3384  0.5318  1.4806
 7255TIP3   OH243255   3.597   1.732   4.540 -0.0647 -0.0706  0.8065
 7255TIP3    H143256   3.595   1.716   4.446  0.0563  1.8387  0.4486
 7255TIP3    H243257   3.507   1.722   4.569 -0.2819  0.3712  0.2878
 7256TIP3   OH243258   5.554   3.410   2.430  0.1462  0.2514  0.0070
 7256TIP3    H143259   5.560   3.315   2.418 -2.3944  0.4607 -4.1963
 7256TIP3    H243260   5.549   3.422   2.524  2.6786 -3.6112  0.7662
 7257TIP3   OH243261   6.755   4.545  11.695 -0.0836 -0.1546  0.6284
 7257TIP3    H143262   6.746   4.639  11.708 -3.3728 -0.4579  1.0889
 7257TIP3    H243263   6.752   4.533  11.600  0.5836  0.2107  0.5597
 7258TIP3   OH243264   0.217   6.798   4.268  0.2415 -0.3766  0.0628
 7258TIP3    H143265   0.159   6.843   4.328 -2.4222 -2.4417 -0.8939
 7258TIP3    H243266   0.272   6.743   4.324 -0.4450 -0.3477  0.7638
 7259TIP3   OH243267   4.587   3.297   6.547  0.8982  0.2150 -0.0165
 7259TIP3    H143268   4.591   3.286   6.453  0.7487 -0.0427  0.0085
 7259TIP3    H243269   4.573   3.209   6.582 -2.4347  0.7132  0.0499
 7260TIP3   OH243270   1.446   0.567  17.060  0.7474  0.5043 -0.7720
 7260TIP3    H143271   1.423   0.649  17.103  0.3622  0.4009 -0.7745
 7260TIP3    H243272   1.422   0.580  16.969  2.1346  0.9455 -1.0880
 7261TIP3   OH243273   5.859   5.929  15.795 -0.3621  0.0846 -0.0762
 7261TIP3    H143274   5.783   5.986  15.810 -0.3472  0.4483 -1.3595
 7261TIP3    H243275   5.933   5.988  15.789 -0.4887  0.0301 -2.4282
 7262TIP3   OH243276   4.696   3.330   4.587 -0.0542  0.0422 -0.0548
 7262TIP3    H143277   4.715   3.280   4.508  1.4761  0.9751 -0.3076
 7262TIP3    H243278   4.605   3.358   4.576  0.1921  0.3132 -1.5751
 7263TIP3   OH243279   0.443   1.775  13.266 -0.4146 -0.4316 -0.0859
 7263TIP3    H143280   0.538   1.785  13.273 -0.3741  0.8119 -2.1772
 7263TIP3    H243281   0.410   1.864  13.254 -1.9483 -0.7623  1.4380
 7264TIP3   OH243282   6.019   0.913  16.660 -0.4576  0.7099  0.7187
 7264TIP3    H143283   6.038   0.902  16.567  0.2911  0.3907  0.9027
 7264TIP3    H243284   6.011   1.007  16.673  1.7436  0.9055  0.7611
 7265TIP3   OH243285   5.656   5.995   0.446 -0.3821  0.1338 -0.0469
 7265TIP3    H143286   5.708   5.950   0.512  0.8894  2.3589  0.5056
 7265TIP3    H243287   5.587   6.039   0.496 -0.1900  0.7549 -0.3175
 7266TIP3   OH243288   6.039   6.444   0.213  0.0054 -0.3736  0.1357
 7266TIP3    H143289   6.053   6.361   0.168 -0.5551  0.4871 -1.6793
 7266TIP3    H243290   6.110   6.500   0.181 -0.4531  0.2702  0.2385
 7267TIP3   OH243291   0.825   5.356  17.223 -0.3790  0.2053 -0.5449
 7267TIP3    H143292   0.788   5.321  17.304  1.2223 -0.4677 -0.0733
 7267TIP3    H243293   0.753   5.401  17.180 -0.8621  1.9798  2.0642
 7268TIP3   OH243294   3.336   1.924   3.385 -0.6880  0.1201  0.2307
 7268TIP3    H143295   3.288   2.007   3.394 -0.2120  0.3189  1.0120
 7268TIP3    H243296   3.283   1.873   3.324 -0.1345  1.6314 -1.5833
 7269TIP3   OH243297   6.212   0.975   5.090  0.1972  0.0684 -0.4261
 7269TIP3    H143298   6.124   0.944   5.109  0.2886  1.2507  2.1465
 7269TIP3    H243299   6.203   1.025   5.008 -1.5807  0.4314 -0.0239
 7270TIP3   OH243300   2.339   4.050   3.577  0.4151 -0.2116  0.0361
 7270TIP3    H143301   2.331   4.104   3.656  1.9644  1.8014 -1.1466
 7270TIP3    H243302   2.263   4.072   3.524 -0.0929 -0.8204  0.5000
 7271TIP3   OH243303   6.387   6.056   5.174  0.2538 -0.6664  0.1400
 7271TIP3    H143304   6.448   6.018   5.237 -1.3324 -0.6567  1.7173
 7271TIP3    H243305   6.301   6.044   5.214 -0.6391  0.8090 -1.2824
 7272TIP3   OH243306   6.276   4.301  14.473  0.0850 -0.6763  0.1105
 7272TIP3    H143307   6.331   4.353  14.532 -0.2126 -1.6680  1.2871
 7272TIP3    H243308   6.338   4.246  14.425  0.2905 -0.2248 -0.1461
 7273TIP3   OH243309   0.875   4.656  16.425 -0.2319 -0.6800  0.5365
 7273TIP3    H143310   0.919   4.595  16.367  0.2598  0.1216  0.0486
 7273TIP3    H243311   0.918   4.740  16.408 -1.4216 -0.0401  0.6162
 7274TIP3   OH243312   3.445   6.600  16.824 -0.0732  0.3572 -0.0851
 7274TIP3    H143313   3.416   6.691  16.827  1.7152  0.9331  0.2717
 7274TIP3    H243314   3.408   6.566  16.742  1.7126  2.2698 -1.7317
 7275TIP3   OH243315   5.079   3.771   1.791 -0.1783  0.0093 -0.0985
 7275TIP3    H143316   5.135   3.755   1.715  1.5514  0.0729  1.1438
 7275TIP3    H243317   5.110   3.709   1.858 -0.5711  1.1027  1.1166
 7276TIP3   OH243318   1.151   4.581  11.931  0.1826  0.3067 -0.0993
 7276TIP3    H143319   1.111   4.498  11.906 -0.0090 -0.1645  1.7279
 7276TIP3    H243320   1.176   4.622  11.848 -1.8300 -0.5056 -1.1247
 7277TIP3   OH243321   1.044   6.399   0.188 -0.1715  0.0120  0.0070
 7277TIP3    H143322   1.069   6.377   0.278  1.1809  0.3237 -0.2781
 7277TIP3    H243323   1.126   6.392   0.139 -0.7121  0.8099 -1.0145
 7278TIP3   OH243324   5.714   3.218  11.383 -0.5379  0.2118  0.0397
 7278TIP3    H143325   5.700   3.160  11.309  1.3147 -1.0004  0.5924
 7278TIP3    H243326   5.627   3.231  11.420 -1.2506 -0.5620 -1.3107
 7279TIP3   OH243327   1.232   2.565  16.917  0.0018  0.0329 -0.3380
 7279TIP3    H143328   1.154   2.548  16.864  0.5295  0.1097 -1.1427
 7279TIP3    H243329   1.222   2.656  16.946  1.2323  1.0465 -2.9218
 7280TIP3   OH243330   6.400   2.041  14.350 -0.3798 -0.4575 -0.1118
 7280TIP3    H143331   6.455   1.963  14.344  0.0016 -0.1577 -0.4733
 7280TIP3    H243332   6.318   2.015  14.309 -0.7032 -1.0730  0.8937
 7281TIP3   OH243333   5.710   4.295  14.804  0.9835 -0.0823  0.1394
 7281TIP3    H143334   5.639   4.334  14.855  0.0555 -2.5728  0.8560
 7281TIP3    H243335   5.688   4.315  14.713  0.2038  0.5203  0.4542
 7282TIP3   OH243336   6.310   3.442   6.208 -0.0200  0.0473 -0.1513
 7282TIP3    H143337   6.287   3.535   6.209 -1.0767 -0.1652 -2.2063
 7282TIP3    H243338   6.399   3.439   6.174  0.5812  0.3962  1.3537
 7283TIP3   OH243339   2.047   0.898  14.207  0.2622 -0.5458 -0.6319
 7283TIP3    H143340   1.997   0.845  14.268  0.9845 -1.9253 -1.2014
 7283TIP3    H243341   2.005   0.884  14.122 -0.6736  1.2757 -0.4907
 7284TIP3   OH243342   2.199   5.488  14.536 -0.3303 -0.3246 -0.6960
 7284TIP3    H143343   2.276   5.508  14.481 -1.4421 -2.2214 -3.0464
 7284TIP3    H243344   2.139   5.560  14.520  1.3116  1.7505  2.0024
 7285TIP3   OH243345   4.863   3.410   4.115 -0.4320  0.3899 -0.4697
 7285TIP3    H143346   4.887   3.336   4.171  0.1227  1.3076  0.5296
 7285TIP3    H243347   4.822   3.473   4.175 -1.0434  0.8277 -1.3404
 7286TIP3   OH243348   2.460   6.243  14.939  0.1721  0.5192 -0.4124
 7286TIP3    H143349   2.518   6.169  14.956 -0.0221  0.6836  1.0396
 7286TIP3    H243350   2.400   6.211  14.872 -0.7486 -1.1075  1.1415
 7287TIP3   OH243351   4.913   1.729   4.124 -0.3475  0.3451  0.7279
 7287TIP3    H143352   4.831   1.690   4.153 -0.9123  2.5025  2.1488
 7287TIP3    H243353   4.965   1.737   4.203  0.5927  0.5411  0.1002
 7288TIP3   OH243354   5.235   0.676   3.846  0.2480  0.0892 -0.0849
 7288TIP3    H143355   5.264   0.676   3.938 -0.6676 -1.3211  0.2202
 7288TIP3    H243356   5.164   0.739   3.843  0.8562  0.7877 -0.0227
 7289TIP3   OH243357   5.722   6.813  13.958 -0.0626  0.7119 -0.0407
 7289TIP3    H143358   5.713   6.908  13.964 -0.4035  0.6955 -0.2911
 7289TIP3    H243359   5.790   6.800  13.892  0.1142  0.7835  0.1234
 7290TIP3   OH243360   3.252   2.795  14.132  0.2041  0.4185 -0.3144
 7290TIP3    H143361   3.336   2.783  14.088  0.0356  2.2065 -1.1451
 7290TIP3    H243362   3.267   2.761  14.221  1.7806  0.6886 -0.4586
 7291TIP3   OH243363   4.609   3.263  12.103 -0.4579  0.4733 -0.0574
 7291TIP3    H143364   4.552   3.187  12.117 -0.2332  0.2820 -0.1717
 7291TIP3    H243365   4.549   3.337  12.094 -0.8078 -0.0703 -2.4872
 7292TIP3   OH243366   3.220   4.310  15.455  0.1628  0.1500 -0.3981
 7292TIP3    H143367   3.208   4.402  15.479  0.9145  0.6078 -1.7148
 7292TIP3    H243368   3.141   4.288  15.406 -1.0722 -0.5954  1.8566
 7293TIP3   OH243369   2.788   6.257   5.605  0.3493  0.0079 -0.1406
 7293TIP3    H143370   2.803   6.198   5.678 -1.1009 -0.1838  0.0140
 7293TIP3    H243371   2.799   6.203   5.527 -1.9024 -0.7279  0.0141
 7294TIP3   OH243372   2.387   2.569  11.313  0.2937 -0.3809 -0.3020
 7294TIP3    H143373   2.433   2.636  11.364 -3.2653  1.2706  0.9203
 7294TIP3    H243374   2.384   2.493  11.370  2.6115 -0.9713 -0.9167
 7295TIP3   OH243375   2.636   4.348  10.677 -0.9197  0.0563  0.0994
 7295TIP3    H143376   2.541   4.340  10.675 -1.0403  1.1675  0.8133
 7295TIP3    H243377   2.668   4.270  10.632 -2.0872 -1.6735  2.2127
 7296TIP3   OH243378   6.245   0.585  14.141  0.4146 -0.2278  0.1537
 7296TIP3    H143379   6.278   0.610  14.054 -0.2306 -0.4611 -0.1637
 7296TIP3    H243380   6.282   0.650  14.200 -0.5814  1.0052 -0.5492
 7297TIP3   OH243381   3.749   3.430  12.149  0.9163 -0.5631  0.2800
 7297TIP3    H143382   3.842   3.441  12.171  0.2885  0.5963  2.5185
 7297TIP3    H243383   3.703   3.485  12.212 -1.3648 -1.9173 -0.1531
 7298TIP3   OH243384   5.362   3.675  16.664  0.1035  0.0718 -1.1573
 7298TIP3    H143385   5.437   3.643  16.714  0.3418  2.8014  0.3514
 7298TIP3    H243386   5.296   3.606  16.671  0.9039 -0.4738  1.1718
 7299TIP3   OH243387   6.683   3.375   2.925  0.2497 -0.6390  0.0054
 7299TIP3    H143388   6.643   3.346   3.007  1.8962  1.4716  1.6175
 7299TIP3    H243389   6.659   3.467   2.918  1.7676 -0.2892 -0.8378
 7300TIP3   OH243390   1.772   2.563  15.860  0.0563  0.0597  0.5600
 7300TIP3    H143391   1.858   2.601  15.842  0.1332 -0.2446  0.2809
 7300TIP3    H243392   1.725   2.568  15.777  0.8786 -2.5489 -0.1216
 7301TIP3   OH243393   1.433   6.761   3.830  0.2153 -0.3026  0.3190
 7301TIP3    H143394   1.396   6.760   3.918  0.1597  0.6017  0.3096
 7301TIP3    H243395   1.517   6.716   3.839  0.4688  0.2817  0.9573
 7302TIP3   OH243396   0.689   6.673  11.134  0.1245 -0.0090  0.2490
 7302TIP3    H143397   0.713   6.765  11.122  0.0256 -0.2415 -1.9823
 7302TIP3    H243398   0.647   6.670  11.220  1.4502  1.7524  0.9757
 7303TIP3   OH243399   2.884   3.297  13.988  0.3274  0.4492 -0.0648
 7303TIP3    H143400   2.830   3.254  14.054 -0.9730 -1.0904 -2.0413
 7303TIP3    H243401   2.822   3.328  13.922  1.6716  0.5262 -1.3393
 7304TIP3   OH243402   1.657   2.992   2.439  0.0329  0.3974 -0.3284
 7304TIP3    H143403   1.726   3.055   2.457 -1.2666  1.7469  0.0503
 7304TIP3    H243404   1.621   3.020   2.354  0.4942 -0.8062 -0.9427
 7305TIP3   OH243405   3.719   0.722  10.585  0.9475 -0.3921 -0.0984
 7305TIP3    H143406   3.687   0.804  10.550 -2.4525 -1.3800  0.5600
 7305TIP3    H243407   3.706   0.729  10.680  1.6257 -1.2962  0.0782
 7306TIP3   OH243408   6.202   5.604  11.128  0.5523  0.0853 -0.5102
 7306TIP3    H143409   6.273   5.596  11.064  1.3385 -0.0945  0.3820
 7306TIP3    H243410   6.245   5.600  11.213 -0.5240  0.0463  0.0425
 7307TIP3   OH243411   2.022   1.869   2.472 -0.5882 -0.3075 -0.0453
 7307TIP3    H143412   2.075   1.947   2.485  1.8013 -1.8968  0.0366
 7307TIP3    H243413   1.985   1.879   2.384 -1.3251  1.4591  0.4310
 7308TIP3   OH243414   3.060   5.060   3.589  0.3396 -0.3877 -0.7004
 7308TIP3    H143415   2.977   5.032   3.628 -0.8757  3.4174 -0.2444
 7308TIP3    H243416   3.034   5.104   3.508  1.8902  0.7541 -0.6038
 7309TIP3   OH243417   5.919   3.222  16.465 -0.1831  0.5913 -0.4531
 7309TIP3    H143418   5.830   3.235  16.435 -0.7090 -2.4929 -0.3486
 7309TIP3    H243419   5.915   3.239  16.560 -0.9349 -0.7777 -0.2331
 7310TIP3   OH243420   4.739   6.598   2.734  0.4255  0.0278  0.1582
 7310TIP3    H143421   4.764   6.687   2.709 -0.3029 -0.1636 -1.3080
 7310TIP3    H243422   4.784   6.583   2.817  2.2359  1.0090 -0.6121
 7311TIP3   OH243423   4.532   2.758   1.996  0.1863 -0.2009 -0.2565
 7311TIP3    H143424   4.532   2.753   2.092  0.0170 -1.0010 -0.2943
 7311TIP3    H243425   4.492   2.843   1.977  0.9404  0.3058  0.3938
 7312TIP3   OH243426   5.421   6.247   6.604 -0.4076 -0.5219  0.2635
 7312TIP3    H143427   5.489   6.314   6.610 -1.2126  0.2458  0.9475
 7312TIP3    H243428   5.364   6.275   6.533 -1.1402 -0.0934  0.9998
 7313TIP3   OH243429   5.014   6.397  12.094  0.5236  0.0440 -0.1549
 7313TIP3    H143430   5.089   6.455  12.101 -0.5007  1.3243  0.2810
 7313TIP3    H243431   4.983   6.408  12.004  0.3344  0.1394 -0.0767
 7314TIP3   OH243432   2.775   0.153   0.951 -0.0023  0.0939 -0.0098
 7314TIP3    H143433   2.795   0.221   0.886 -0.8129 -0.4634 -0.8572
 7314TIP3    H243434   2.859   0.109   0.965  0.5539  1.3128  0.6177
 7315TIP3   OH243435   2.933   4.146   2.511  0.0718  0.6172 -0.1855
 7315TIP3    H143436   3.016   4.119   2.549 -1.6781 -0.6261  2.9719
 7315TIP3    H243437   2.930   4.241   2.523  0.0065  0.3677  1.9239
 7316TIP3   OH243438   2.911   4.404   2.150  0.2926  0.2171 -0.4151
 7316TIP3    H143439   2.928   4.450   2.068  1.4931 -1.3141 -1.0532
 7316TIP3    H243440   2.865   4.324   2.124 -1.3759  0.7896  0.6381
 7317TIP3   OH243441   2.555   5.439   2.990  0.8017 -0.2475 -0.1906
 7317TIP3    H143442   2.595   5.411   3.072 -0.7855  0.2110  0.7699
 7317TIP3    H243443   2.476   5.486   3.017  0.4540  0.2225 -1.9704
 7318TIP3   OH243444   0.181   6.635   3.387  0.3722  0.4007  0.5785
 7318TIP3    H143445   0.098   6.659   3.429 -0.9374 -2.4648 -0.2622
 7318TIP3    H243446   0.156   6.605   3.300  2.1395 -1.7122  0.7561
 7319TIP3   OH243447   4.827   6.674  16.714 -0.2575  0.1079  0.3643
 7319TIP3    H143448   4.883   6.608  16.756  1.2883  0.3176 -1.2940
 7319TIP3    H243449   4.769   6.704  16.784  0.2395 -1.6935  1.5968
 7320TIP3   OH243450   0.215   6.522  11.609  0.4962 -0.2284  0.6963
 7320TIP3    H143451   0.169   6.478  11.681  0.7998  0.3186  1.2347
 7320TIP3    H243452   0.285   6.461  11.584 -0.9688 -1.3858 -0.6194
 7321TIP3   OH243453   0.773   2.830  16.368 -0.1714  0.2840  0.3999
 7321TIP3    H143454   0.850   2.793  16.411 -1.9647 -1.8779  1.8885
 7321TIP3    H243455   0.771   2.787  16.282  0.5177  0.6733  0.1867
 7322TIP3   OH243456   2.774   1.985  17.220 -0.3440 -0.8574 -0.2949
 7322TIP3    H143457   2.687   1.954  17.246 -2.4033  2.3912 -2.9990
 7322TIP3    H243458   2.797   1.932  17.144  0.6430 -2.5196  1.1124
 7323TIP3   OH243459   4.904   4.130   6.116  0.0015 -0.5213 -0.6560
 7323TIP3    H143460   4.951   4.114   6.198 -1.9449 -1.8078  0.2622
 7323TIP3    H243461   4.840   4.198   6.139  0.5048  0.2592 -1.5376
 7324TIP3   OH243462   6.819   5.695  15.170  0.0160  0.4087  0.3585
 7324TIP3    H143463   6.780   5.620  15.215  0.6999 -1.1445 -1.5151
 7324TIP3    H243464   6.747   5.755  15.156 -0.9293 -0.7151  0.3367
 7325TIP3   OH243465   2.389   4.486   0.653 -0.0229  0.0063  0.1560
 7325TIP3    H143466   2.324   4.557   0.658 -0.5320 -0.2097 -2.5112
 7325TIP3    H243467   2.418   4.487   0.562  0.3380 -2.8872  0.1913
 7326TIP3   OH243468   4.988   1.694  16.139  0.2952  0.3286  0.3191
 7326TIP3    H143469   4.988   1.647  16.055  2.4598  0.6215  0.1255
 7326TIP3    H243470   5.060   1.654  16.188 -0.9005  0.2197  2.0263
 7327TIP3   OH243471   2.728   5.947   0.825  0.0636  0.5454  0.4460
 7327TIP3    H143472   2.782   5.871   0.805  0.3277  0.3870  1.7187
 7327TIP3    H243473   2.669   5.918   0.895 -0.4497  1.2353  0.3117
 7328TIP3   OH243474   3.261   3.573   4.146 -0.3959  0.4462 -0.4501
 7328TIP3    H143475   3.299   3.534   4.225 -0.9814  1.6021  0.4185
 7328TIP3    H243476   3.304   3.527   4.074 -2.7420 -3.5244  0.4696
 7329TIP3   OH243477   5.158   2.135   5.966  0.2212  0.4122 -0.3812
 7329TIP3    H143478   5.134   2.114   5.876  0.0191  1.7838 -0.6627
 7329TIP3    H243479   5.130   2.059   6.017 -1.8737  0.6211 -1.1501
 7330TIP3   OH243480   4.862   5.974  12.118  0.1705  0.3664  0.0282
 7330TIP3    H143481   4.827   6.062  12.128 -2.5739 -0.5859 -0.7470
 7330TIP3    H243482   4.881   5.966  12.024  0.3690  0.1216  0.0863
 7331TIP3   OH243483   6.687   2.440  14.287 -0.4257  0.1263 -0.2376
 7331TIP3    H143484   6.714   2.471  14.201 -0.5537 -1.6121 -0.9375
 7331TIP3    H243485   6.592   2.447  14.287 -0.5334 -1.1425 -0.7733
 7332TIP3   OH243486   1.651   0.505   2.820 -0.0202 -0.0078 -0.5498
 7332TIP3    H143487   1.601   0.582   2.847 -0.1992 -0.1182 -0.5663
 7332TIP3    H243488   1.588   0.451   2.772  0.2500  0.1031 -1.0346
 7333TIP3   OH243489   2.487   5.096  17.253  0.2180 -0.2245 -0.6405
 7333TIP3    H143490   2.454   5.072  17.166  0.1279  0.8523 -0.9060
 7333TIP3    H243491   2.579   5.118  17.238  0.2127 -0.0768 -0.4519
 7334TIP3   OH243492   3.244   1.283   6.089  0.4707  0.6088 -0.1202
 7334TIP3    H143493   3.193   1.203   6.100  0.3249  0.9267  1.6481
 7334TIP3    H243494   3.333   1.253   6.072  0.3680  0.0716  0.2758
 7335TIP3   OH243495   3.262   2.667   4.157 -0.2109  0.8888 -0.5473
 7335TIP3    H143496   3.329   2.735   4.144  1.3464 -0.4167  0.4137
 7335TIP3    H243497   3.310   2.585   4.148 -2.0571 -0.0985 -1.5989
 7336TIP3   OH243498   4.536   5.724   5.959 -0.1306 -0.2516 -0.3192
 7336TIP3    H143499   4.453   5.740   6.005 -0.8618 -1.1902 -1.2933
 7336TIP3    H243500   4.578   5.810   5.955 -1.3692  0.3638 -0.4069
 7337TIP3   OH243501   1.093   5.146   2.802  0.5301  0.2250  0.2794
 7337TIP3    H143502   1.147   5.067   2.791 -0.2216 -0.2465 -0.0299
 7337TIP3    H243503   1.089   5.159   2.897  1.4115  0.4186  0.2917
 7338TIP3   OH243504   5.362   2.387  12.157  0.1162 -0.1751 -0.8779
 7338TIP3    H143505   5.292   2.414  12.098  1.6462  0.5619 -2.3981
 7338TIP3    H243506   5.387   2.468  12.202 -0.4561 -0.5703  0.1748
 7339TIP3   OH243507   1.264   0.248  13.063  0.3206  0.4743  0.4291
 7339TIP3    H143508   1.220   0.171  13.028  0.0049  0.5364  0.6848
 7339TIP3    H243509   1.294   0.221  13.150  0.9216  0.3837  0.1917
 7340TIP3   OH243510   0.613   5.767  12.230  0.3618  0.5669  0.8629
 7340TIP3    H143511   0.622   5.742  12.138  1.0858 -1.1895  1.3994
 7340TIP3    H243512   0.540   5.715  12.263  1.4222 -0.3647  1.8004
 7341TIP3   OH243513   3.487   1.649   0.795  0.2654  0.1063  0.2328
 7341TIP3    H143514   3.466   1.742   0.786  2.7517  0.6305 -0.5242
 7341TIP3    H243515   3.449   1.624   0.879 -2.2489  1.2696 -0.5130
 7342TIP3   OH243516   6.261   4.171  13.634 -0.0986 -0.0838 -0.3136
 7342TIP3    H143517   6.287   4.195  13.545 -0.7800 -2.0417 -1.0801
 7342TIP3    H243518   6.174   4.209  13.646  0.6592  1.5438  0.1227
 7343TIP3   OH243519   0.624   3.762   0.768  0.5062 -0.5172 -0.1894
 7343TIP3    H143520   0.550   3.750   0.828  0.5847  0.1775  0.0511
 7343TIP3    H243521   0.584   3.794   0.687  0.5498 -0.0277 -0.0211
 7344TIP3   OH243522   1.838   6.542   5.006  0.2452 -0.2736  0.3107
 7344TIP3    H143523   1.876   6.525   5.092  0.3201 -0.6208  0.2109
 7344TIP3    H243524   1.903   6.594   4.960 -0.5433  1.4266  1.0887
 7345TIP3   OH243525   6.095   1.798  12.310  0.9058  0.6724 -0.3453
 7345TIP3    H143526   6.057   1.886  12.310 -0.4828  0.0885 -0.6807
 7345TIP3    H243527   6.129   1.786  12.399 -1.8169  0.3301  0.6882
 7346TIP3   OH243528   6.292   6.170  13.196 -0.5120 -0.8797 -0.6864
 7346TIP3    H143529   6.347   6.235  13.152  0.6248  0.1048  2.1085
 7346TIP3    H243530   6.353   6.105  13.230 -1.4308 -1.9094 -0.9740
 7347TIP3   OH243531   4.810   4.843  17.011 -0.2568 -0.1337 -0.3241
 7347TIP3    H143532   4.860   4.762  16.995  0.1498 -0.4133  2.1152
 7347TIP3    H243533   4.738   4.839  16.948  0.4178 -1.8230 -1.0382
 7348TIP3   OH243534   4.785   4.377   0.738 -0.1872  0.0513 -0.1168
 7348TIP3    H143535   4.871   4.340   0.760 -0.2141 -0.5186 -0.9610
 7348TIP3    H243536   4.722   4.320   0.782 -0.0934  1.4325  1.8854
 7349TIP3   OH243537   5.137   4.570   2.288 -0.6421 -0.0084 -0.5705
 7349TIP3    H143538   5.119   4.658   2.256  1.3025 -0.1294 -2.0928
 7349TIP3    H243539   5.151   4.518   2.209  2.9689 -0.6074  0.3413
 7350TIP3   OH243540   4.361   1.021  13.954  0.3435 -0.5470  0.1472
 7350TIP3    H143541   4.418   0.970  14.013  0.7765 -0.5666 -0.2835
 7350TIP3    H243542   4.318   0.956  13.900 -0.2627 -0.5442  0.6273
 7351TIP3   OH243543   2.144   3.831   2.021  0.4682  0.1048  0.2572
 7351TIP3    H143544   2.235   3.849   2.045  0.1009  3.0993 -0.3772
 7351TIP3    H243545   2.094   3.852   2.099 -0.0183  2.3494 -0.6334
 7352TIP3   OH243546   6.340   3.512   4.749  0.1869 -0.4309 -0.0381
 7352TIP3    H143547   6.368   3.590   4.796  0.1886 -0.5447  0.1502
 7352TIP3    H243548   6.246   3.526   4.733  0.2223 -0.3174 -0.1480
 7353TIP3   OH243549   4.709   2.859   4.428  0.1618  0.6722  0.3842
 7353TIP3    H143550   4.713   2.916   4.352 -1.2937  0.2896  0.0007
 7353TIP3    H243551   4.796   2.821   4.435  0.4140  1.0188 -0.8408
 7354TIP3   OH243552   6.538   0.915   3.897  0.2026  0.2406 -0.0041
 7354TIP3    H143553   6.600   0.844   3.914 -0.0093  0.0983  0.1681
 7354TIP3    H243554   6.567   0.986   3.956  1.4280  0.8957 -1.3700
 7355TIP3   OH243555   3.201   3.849   2.269 -0.3163  0.2063 -0.7764
 7355TIP3    H143556   3.245   3.894   2.198  0.9088  2.4482  1.3023
 7355TIP3    H243557   3.109   3.872   2.259  0.3636  3.8365  0.5982
 7356TIP3   OH243558   1.379   3.072  11.537  0.4546 -0.1084  0.1730
 7356TIP3    H143559   1.472   3.048  11.542  0.0165 -2.1003 -0.7328
 7356TIP3    H243560   1.359   3.068  11.444 -0.3042  1.3805  0.2547
 7357TIP3   OH243561   0.903   5.776   2.354 -0.3097 -0.2667 -0.0378
 7357TIP3    H143562   0.860   5.701   2.394  0.0173  0.3637  1.5238
 7357TIP3    H243563   0.996   5.754   2.357 -0.2687 -0.1432 -0.3329
 7358TIP3   OH243564   2.308   3.933   2.806 -0.1428 -0.2306  0.7532
 7358TIP3    H143565   2.230   3.930   2.751  0.9900 -0.8341 -0.8542
 7358TIP3    H243566   2.293   3.868   2.874 -0.2222 -1.7263 -0.6769
 7359TIP3   OH243567   0.838   3.430  13.818  0.4262 -0.0156 -0.1257
 7359TIP3    H143568   0.820   3.511  13.770 -0.7889  1.2174  2.3323
 7359TIP3    H243569   0.929   3.438  13.845  0.4521  0.3192 -0.3060
 7360TIP3   OH243570   2.635   5.522  15.903  0.5545 -0.6531  0.1515
 7360TIP3    H143571   2.696   5.496  15.833 -1.0991 -1.5124 -0.9966
 7360TIP3    H243572   2.587   5.442  15.925 -0.1257  0.0004  1.0893
 7361TIP3   OH243573   5.468   3.617  13.255 -0.4994  0.6466  0.2059
 7361TIP3    H143574   5.525   3.678  13.208 -1.2468  2.0925  1.1373
 7361TIP3    H243575   5.524   3.580  13.324 -0.3692  1.1823  0.3892
 7362TIP3   OH243576   1.826   2.488  13.876  0.0896 -0.4725  0.3232
 7362TIP3    H143577   1.901   2.536  13.911 -2.0759  2.8874  0.6640
 7362TIP3    H243578   1.771   2.471  13.953 -1.4389  0.8409 -0.4486
 7363TIP3   OH243579   4.680   5.237   2.834 -0.2584 -0.1977 -0.1349
 7363TIP3    H143580   4.691   5.290   2.755 -2.5940  1.0104  0.2960
 7363TIP3    H243581   4.637   5.296   2.896 -0.1522 -1.7024  1.3882
 7364TIP3   OH243582   0.334   2.245   2.693  0.3014  0.0030  0.0019
 7364TIP3    H143583   0.406   2.294   2.652 -0.1855  0.3233 -0.4775
 7364TIP3    H243584   0.340   2.268   2.786  0.5829  0.3315 -0.0919
 7365TIP3   OH243585   3.625   6.222   1.506 -0.2590  1.0168  0.0985
 7365TIP3    H143586   3.599   6.187   1.591  1.4445 -1.9537 -0.5207
 7365TIP3    H243587   3.720   6.232   1.512 -0.3246  2.3443 -0.9244
 7366TIP3   OH243588   0.231   3.060   2.384  0.1978 -0.3659 -0.3978
 7366TIP3    H143589   0.175   3.016   2.448 -0.8005 -0.1387 -1.1016
 7366TIP3    H243590   0.265   2.988   2.330 -0.8676 -0.3668 -1.0997
 7367TIP3   OH243591   3.888   2.069  13.523 -0.7191 -0.1199 -0.1852
 7367TIP3    H143592   3.885   2.127  13.447  0.4478 -0.6249 -0.6346
 7367TIP3    H243593   3.980   2.066  13.547 -0.3643 -3.7426 -1.7221
 7368TIP3   OH243594   0.254   4.646  15.608 -0.2303 -0.4441  0.5618
 7368TIP3    H143595   0.184   4.583  15.622  0.2418 -1.0241  0.3181
 7368TIP3    H243596   0.335   4.595  15.611  0.0078 -0.4384 -2.9800
 7369TIP3   OH243597   0.308   0.170   1.039  0.2567  0.3363  0.1374
 7369TIP3    H143598   0.256   0.117   0.980  0.6571 -2.1745  1.9479
 7369TIP3    H243599   0.258   0.171   1.121  1.8118  0.0523  1.1080
 7370TIP3   OH243600   2.805   0.670   1.887 -0.0862 -0.1332  1.0687
 7370TIP3    H143601   2.752   0.747   1.909 -0.8709 -0.6492  1.0120
 7370TIP3    H243602   2.756   0.596   1.924  1.2546 -0.4999  2.1539
 7371TIP3   OH243603   5.876   0.845   1.939  0.4765 -0.4495 -0.1120
 7371TIP3    H143604   5.911   0.927   1.975  0.7951 -0.5716 -0.1462
 7371TIP3    H243605   5.810   0.873   1.876 -1.2780 -0.2322  1.7399
 7372TIP3   OH243606   2.289   4.777   3.102 -0.9644 -0.0272 -0.8849
 7372TIP3    H143607   2.338   4.742   3.176  0.7878  0.0127 -1.9759
 7372TIP3    H243608   2.356   4.822   3.049 -2.8466  3.5225 -0.3839
 7373TIP3   OH243609   3.559   2.101   6.348  0.0564 -0.3006 -0.1150
 7373TIP3    H143610   3.491   2.092   6.281  1.4601 -2.3204 -1.3076
 7373TIP3    H243611   3.513   2.087   6.431 -1.5961  1.7001 -0.6412
 7374TIP3   OH243612   1.676   4.540  13.961  0.3132  0.0920  0.1850
 7374TIP3    H143613   1.636   4.553  14.047  0.1362  1.5093 -0.1035
 7374TIP3    H243614   1.760   4.585  13.966  1.0527 -1.2529  0.1526
 7375TIP3   OH243615   0.231   3.037  13.921 -0.2965  0.1918 -0.1038
 7375TIP3    H143616   0.298   2.973  13.945 -1.2623  0.1142  2.5356
 7375TIP3    H243617   0.216   3.022  13.828  3.5695  0.4132 -0.8574
 7376TIP3   OH243618   1.587   6.770   0.671  0.3071  0.6640  0.0357
 7376TIP3    H143619   1.639   6.715   0.729 -2.2877 -1.8981  0.0932
 7376TIP3    H243620   1.547   6.835   0.729 -0.9902 -0.8896  0.9408
 7377TIP3   OH243621   2.821   5.709  17.261  0.2665 -0.1884 -0.1073
 7377TIP3    H143622   2.727   5.723  17.252  0.3408  1.1172  1.0022
 7377TIP3    H243623   2.856   5.794  17.286  1.5577 -0.9767  0.8290
 7378TIP3   OH243624   3.713   2.749   2.104  0.4057 -0.2742  0.9185
 7378TIP3    H143625   3.711   2.659   2.138  0.9668 -0.7384 -0.2216
 7378TIP3    H243626   3.623   2.779   2.108  0.3360 -0.6194  2.0141
 7379TIP3   OH243627   6.660   3.950   3.053 -0.1566 -0.3845 -0.2000
 7379TIP3    H143628   6.688   4.040   3.037 -1.3732 -0.0380 -0.4087
 7379TIP3    H243629   6.609   3.926   2.976 -0.3167 -1.0539  0.1095
 7380TIP3   OH243630   2.105   0.752   3.044  0.0998 -0.3697  0.5896
 7380TIP3    H143631   2.016   0.774   3.073 -0.0651 -0.6939  0.3443
 7380TIP3    H243632   2.139   0.834   3.009  0.6523  0.2544  2.5320
 7381TIP3   OH243633   6.122   6.336   5.358 -0.2514  0.4526 -0.0933
 7381TIP3    H143634   6.087   6.423   5.340 -1.3129  0.1762  0.5494
 7381TIP3    H243635   6.213   6.351   5.384  0.5035  1.0676 -3.0099
 7382TIP3   OH243636   6.183   2.657  13.768 -0.0709  0.3265 -0.2661
 7382TIP3    H143637   6.254   2.666  13.705  0.5800  1.4436  0.6197
 7382TIP3    H243638   6.179   2.563  13.786  1.1146  0.2432 -0.3970
 7383TIP3   OH243639   4.226   6.124   1.020 -0.0634 -0.6189  0.2811
 7383TIP3    H143640   4.269   6.199   1.062  0.9302 -0.5236 -0.8974
 7383TIP3    H243641   4.133   6.143   1.028  0.1904  1.2196 -0.8193
 7384TIP3   OH243642   5.834   1.636   0.773  0.0544 -0.1485 -0.6051
 7384TIP3    H143643   5.772   1.577   0.817  0.7781  1.5071  2.7447
 7384TIP3    H243644   5.780   1.707   0.739 -0.0949  0.5457  1.0441
 7385TIP3   OH243645   5.582   0.985  12.326  0.2428  0.2719 -0.1478
 7385TIP3    H143646   5.660   0.992  12.381 -0.4187  0.1288  0.8169
 7385TIP3    H243647   5.591   1.056  12.263  0.3518  1.2848  0.9897
 7386TIP3   OH243648   6.002   1.871   6.268 -0.8303  0.6533  0.1111
 7386TIP3    H143649   5.939   1.801   6.249  1.4868 -1.4330 -0.1611
 7386TIP3    H243650   6.046   1.841   6.348  1.1812  1.0890 -0.8247
 7387TIP3   OH243651   5.001   4.175   4.745 -0.0509 -0.0305  0.1097
 7387TIP3    H143652   5.074   4.225   4.710 -0.4335  0.6768  0.3022
 7387TIP3    H243653   4.930   4.239   4.753 -0.1301 -0.3032  1.6664
 7388TIP3   OH243654   1.152   2.462   0.389 -0.2852 -0.6372 -0.2309
 7388TIP3    H143655   1.172   2.535   0.448 -1.5466 -2.2004  2.2355
 7388TIP3    H243656   1.116   2.504   0.311 -0.3843  1.4189  0.8651
 7389TIP3   OH243657   1.669   1.888   4.667  0.0799 -1.2083  0.4019
 7389TIP3    H143658   1.611   1.813   4.675  0.9321 -1.7474  1.7915
 7389TIP3    H243659   1.616   1.955   4.625 -1.2689 -1.9880  0.8171
 7390TIP3   OH243660   5.499   0.893   2.564  0.3462  0.2447 -0.2505
 7390TIP3    H143661   5.586   0.917   2.533  0.8247 -2.2549 -0.9435
 7390TIP3    H243662   5.482   0.808   2.525 -3.1199  1.4202 -1.4595
 7391TIP3   OH243663   5.764   3.120   4.495  0.0970 -0.5741 -1.3158
 7391TIP3    H143664   5.696   3.150   4.555  0.4481 -0.9874 -0.7023
 7391TIP3    H243665   5.727   3.040   4.456 -0.1392 -0.2956 -1.6646
 7392TIP3   OH243666   6.535   4.773  16.787  0.3512 -0.1450 -0.3336
 7392TIP3    H143667   6.512   4.680  16.795  1.4925 -0.6231 -2.4268
 7392TIP3    H243668   6.610   4.784  16.846  0.3939 -0.6136 -0.2964
 7393TIP3   OH243669   4.776   3.963   1.059 -0.2384 -0.3615 -0.6078
 7393TIP3    H143670   4.759   3.911   1.138 -0.6525  1.2804  0.4017
 7393TIP3    H243671   4.871   3.955   1.046 -0.5078 -2.6682 -1.4066
 7394TIP3   OH243672   3.665   4.099   1.987 -0.3941 -1.1270 -0.1978
 7394TIP3    H143673   3.706   4.013   1.997 -1.2091 -1.4154  0.7740
 7394TIP3    H243674   3.737   4.161   1.998  0.3401 -1.6889 -1.6931
 7395TIP3   OH243675   4.796   6.227  13.346  0.3386  0.3628 -0.3413
 7395TIP3    H143676   4.877   6.227  13.395  1.0654  0.0177 -1.5213
 7395TIP3    H243677   4.756   6.142  13.366  0.9349 -0.0370 -0.8212
 7396TIP3   OH243678   1.088   2.176   1.527  0.6700 -0.5895  0.1513
 7396TIP3    H143679   1.149   2.241   1.560  1.1419 -1.2164  0.5335
 7396TIP3    H243680   1.143   2.113   1.480  0.5961 -2.2243  2.1704
 7397TIP3   OH243681   4.784   0.009  13.022 -0.4795  0.5643 -0.2247
 7397TIP3    H143682   4.841  -0.007  13.097 -1.1758  2.5153  0.7707
 7397TIP3    H243683   4.777   0.105  13.018  1.0605  0.5737 -3.9294
 7398TIP3   OH243684   1.181   6.795  16.919 -0.1751  0.6539 -0.3643
 7398TIP3    H143685   1.109   6.824  16.862  0.0664  1.8675 -0.0710
 7398TIP3    H243686   1.139   6.742  16.987 -0.4008 -1.2795 -1.9665
 7399TIP3   OH243687   6.243   3.090  13.966  0.3793  0.1757  0.1594
 7399TIP3    H143688   6.242   3.032  14.042 -1.1298 -0.3500 -0.2360
 7399TIP3    H243689   6.214   3.035  13.893  1.8151  0.6722 -0.7997
 7400TIP3   OH243690   4.118   0.569  16.941  0.5146 -0.1180  0.0569
 7400TIP3    H143691   4.079   0.651  16.910 -0.3295 -0.4304  0.2548
 7400TIP3    H243692   4.190   0.551  16.881 -0.4839 -0.2085 -1.1337
 7401TIP3   OH243693   1.848   6.207  14.502  0.1635  0.7843 -0.1566
 7401TIP3    H143694   1.847   6.211  14.597  2.0438  0.5548 -0.1015
 7401TIP3    H243695   1.759   6.228  14.476 -0.6876 -0.3876  1.6982
 7402TIP3   OH243696   3.818   2.671  13.153 -1.1453 -0.1043  0.3442
 7402TIP3    H143697   3.870   2.608  13.203 -1.2237 -0.7621 -0.3929
 7402TIP3    H243698   3.743   2.690  13.209 -2.2686 -2.3588 -0.3627
 7403TIP3   OH243699   1.066   3.938   5.692 -0.2004  0.0690  0.1578
 7403TIP3    H143700   1.066   3.952   5.597 -0.5178 -1.5261 -0.0825
 7403TIP3    H243701   1.030   4.019   5.728 -2.0637 -0.1181 -1.2146
 7404TIP3   OH243702   1.555   6.750   2.647  0.0800 -0.1180  0.4207
 7404TIP3    H143703   1.613   6.797   2.708  0.3306  0.0063  0.0938
 7404TIP3    H243704   1.483   6.811   2.631  0.2856  0.0635  0.1798
 7405TIP3   OH243705   5.631   0.503   2.221 -0.0310  0.2688 -0.0784
 7405TIP3    H143706   5.580   0.424   2.240  0.1231  0.2360  0.2102
 7405TIP3    H243707   5.716   0.469   2.191 -0.0069  0.3227 -0.0722
 7406TIP3   OH243708   2.319   4.660  16.404 -0.6358 -0.3706 -0.0980
 7406TIP3    H143709   2.331   4.695  16.315 -2.6353  0.4847 -0.0631
 7406TIP3    H243710   2.303   4.738  16.458 -0.9011 -1.0051  0.7520
 7407TIP3   OH243711   1.136   6.080  14.891 -0.3143  0.6698  0.2213
 7407TIP3    H143712   1.173   6.162  14.857  1.2951 -0.1469 -0.0643
 7407TIP3    H243713   1.075   6.052  14.824 -1.0388  1.7354  0.4157
 7408TIP3   OH243714   5.684   2.830   3.794 -0.7694  0.1451  0.1707
 7408TIP3    H143715   5.700   2.898   3.728 -0.1597  1.8611  2.0293
 7408TIP3    H243716   5.714   2.749   3.753  1.0211  1.4096 -1.0873
 7409TIP3   OH243717   5.633   0.704   1.355 -0.2318  0.4782 -0.4989
 7409TIP3    H143718   5.573   0.722   1.428 -1.0446 -0.2583 -0.9766
 7409TIP3    H243719   5.714   0.676   1.398  0.8048  4.3046  0.2392
 7410TIP3   OH243720   5.426   1.026  14.090 -0.1639 -0.6495 -0.2462
 7410TIP3    H143721   5.371   0.949  14.077  0.6063 -1.5165  1.5036
 7410TIP3    H243722   5.374   1.084  14.145  0.7020 -1.5427  1.5504
 7411TIP3   OH243723   2.645   3.921  11.571 -0.7393 -0.0087 -0.3723
 7411TIP3    H143724   2.696   3.844  11.545 -0.9812  0.3238 -1.9287
 7411TIP3    H243725   2.641   3.917  11.666  0.2180 -1.3025 -0.3740
 7412TIP3   OH243726   2.034   1.775  16.401  0.3235  0.4009 -0.0364
 7412TIP3    H143727   2.046   1.722  16.479  0.6619 -0.5051 -0.7001
 7412TIP3    H243728   2.017   1.713  16.331 -2.6719  1.3620 -0.2078
 7413TIP3   OH243729   4.541   0.152  12.747 -0.2191  0.3297  0.2178
 7413TIP3    H143730   4.527   0.057  12.748  0.0608  0.3024  1.6026
 7413TIP3    H243731   4.636   0.162  12.750 -0.2811  0.6739  0.8822
 7414TIP3   OH243732   5.774   6.379  11.959  0.4041 -0.2107 -0.0121
 7414TIP3    H143733   5.731   6.440  12.019  0.1972 -0.2353 -0.1340
 7414TIP3    H243734   5.857   6.357  12.002 -0.2209 -1.0496  0.7573
 7415TIP3   OH243735   1.461   3.669   6.401 -0.6128  0.3431  0.2778
 7415TIP3    H143736   1.443   3.580   6.373 -1.0545  0.9593 -1.4693
 7415TIP3    H243737   1.550   3.665   6.438  1.3694  0.0957 -4.2350
 7416TIP3   OH243738   3.884   4.333   1.682 -0.1587 -0.0501 -0.1086
 7416TIP3    H143739   3.807   4.360   1.731 -0.5507  0.5347 -1.0264
 7416TIP3    H243740   3.877   4.238   1.675 -1.8527  0.1752 -1.8763
 7417TIP3   OH243741   2.267   1.129   0.466 -0.3205  0.0176  0.1109
 7417TIP3    H143742   2.338   1.136   0.402 -0.7137  0.3916 -0.2879
 7417TIP3    H243743   2.220   1.049   0.442  0.1039 -0.3595  0.5209
 7418TIP3   OH243744   5.394   5.958  11.407  0.3751  0.1157  0.3270
 7418TIP3    H143745   5.485   5.943  11.432 -0.5511 -2.8254  2.0799
 7418TIP3    H243746   5.390   5.933  11.315  1.0436 -0.9804  0.5963
 7419TIP3   OH243747   6.760   6.295   3.338  0.0786  0.0209 -0.2808
 7419TIP3    H143748   6.707   6.347   3.399  1.9222  1.4865  0.1354
 7419TIP3    H243749   6.732   6.324   3.251 -0.0373  0.5400 -0.0719
 7420TIP3   OH243750   4.641   5.989   3.784  0.1719  0.1331 -0.5229
 7420TIP3    H143751   4.634   5.952   3.872 -2.7624  0.5586 -0.5412
 7420TIP3    H243752   4.722   5.951   3.749  0.3145 -1.6389  1.5884
 7421TIP3   OH243753   3.730   6.593   4.416 -0.0132 -0.2342 -0.1558
 7421TIP3    H143754   3.749   6.516   4.469  0.8388  0.2628  0.2704
 7421TIP3    H243755   3.796   6.658   4.442 -0.6471  0.6037 -0.5836
 7422TIP3   OH243756   6.396   0.759   5.506 -0.3770  0.5102 -0.1039
 7422TIP3    H143757   6.320   0.706   5.480 -0.7024  1.2707 -0.7101
 7422TIP3    H243758   6.457   0.751   5.433  0.5760 -0.9447  0.8325
 7423TIP3   OH243759   0.365   0.492  14.280  0.1751 -0.0167 -0.0466
 7423TIP3    H143760   0.452   0.528  14.265 -0.2778  1.3703  0.6510
 7423TIP3    H243761   0.378   0.397  14.282  1.8037  0.2263  0.9336
 7424TIP3   OH243762   3.414   4.436   3.214 -0.4813  0.1749 -0.3054
 7424TIP3    H143763   3.378   4.349   3.194  1.0930 -0.7816  0.8990
 7424TIP3    H243764   3.505   4.419   3.240  0.3177  2.3543 -1.5650
 7425TIP3   OH243765   2.295   1.606  16.842 -0.4278 -0.4217  0.5863
 7425TIP3    H143766   2.245   1.668  16.895  1.5533  1.5808  0.1629
 7425TIP3    H243767   2.272   1.628  16.752  1.0406  0.3529  0.4011
 7426TIP3   OH243768   1.676   2.359   5.557 -0.0596  0.9262 -0.1739
 7426TIP3    H143769   1.757   2.315   5.531  0.1363  1.8952 -1.2810
 7426TIP3    H243770   1.654   2.321   5.642  0.2506 -1.0967 -0.9552
 7427TIP3   OH243771   0.963   3.059  13.254  0.2116 -0.0092 -0.3856
 7427TIP3    H143772   0.917   2.978  13.277 -1.1838  0.8723 -0.0206
 7427TIP3    H243773   1.055   3.035  13.255 -0.1596 -1.4725  0.2608
 7428TIP3   OH243774   5.003   1.037  11.446 -0.2108 -0.0095 -0.3817
 7428TIP3    H143775   5.043   0.955  11.416 -0.7090 -0.3485 -0.1464
 7428TIP3    H243776   5.060   1.067  11.516  0.2562  0.1118 -0.8166
 7429TIP3   OH243777   6.785   0.082  13.328  0.0139  0.4833 -0.4597
 7429TIP3    H143778   6.780   0.010  13.265  1.9339 -1.4639  1.4981
 7429TIP3    H243779   6.859   0.135  13.299  1.2544 -0.7289  0.4330
 7430TIP3   OH243780   2.067   3.185  12.355  0.3319 -0.1830  0.0097
 7430TIP3    H143781   2.063   3.124  12.429  2.3675 -1.0751 -0.5577
 7430TIP3    H243782   2.041   3.133  12.280  2.1668 -0.4267 -0.4914
 7431TIP3   OH243783   5.043   1.441  15.471 -0.5175  0.3389  0.5264
 7431TIP3    H143784   5.125   1.406  15.435  0.9113  2.1317  1.9318
 7431TIP3    H243785   5.012   1.501  15.403 -0.2831  0.1882  0.2832
 7432TIP3   OH243786   3.296   0.812  11.179 -0.3055 -0.0611 -0.3160
 7432TIP3    H143787   3.318   0.834  11.269 -2.7629  2.7655 -0.3485
 7432TIP3    H243788   3.378   0.825  11.131  0.9767 -1.4222  1.4036
 7433TIP3   OH243789   4.787   1.897  17.166  0.2124  0.1997  0.0832
 7433TIP3    H143790   4.867   1.848  17.151  0.4481 -0.1637  2.4160
 7433TIP3    H243791   4.720   1.831  17.183  0.2141  0.6135  1.7840
 7434TIP3   OH243792   1.690   0.400  13.619 -0.3473 -0.2630 -0.4690
 7434TIP3    H143793   1.757   0.400  13.551  0.1877 -1.5095  0.0345
 7434TIP3    H243794   1.696   0.486  13.660  0.1917  0.0283 -1.1632
 7435TIP3   OH243795   5.537   2.120   1.723  0.7515 -0.2852 -0.0753
 7435TIP3    H143796   5.599   2.156   1.659 -0.4896  2.0076 -0.0214
 7435TIP3    H243797   5.590   2.059   1.774  2.7998  0.9793 -0.5926
 7436TIP3   OH243798   0.510   3.657  12.207  0.0774  0.1367 -0.3100
 7436TIP3    H143799   0.453   3.601  12.259 -0.1950  0.3438 -0.3887
 7436TIP3    H243800   0.552   3.597  12.145 -2.7518  0.4877 -2.6830
 7437TIP3   OH243801   5.243   1.899   4.049 -0.2641 -0.4855  0.0699
 7437TIP3    H143802   5.245   1.976   3.991 -2.2784  0.2532  0.9424
 7437TIP3    H243803   5.266   1.934   4.135 -0.5787 -0.9740  0.3492
 7438TIP3   OH243804   6.732   1.825   0.999 -0.0058  0.3104 -0.4455
 7438TIP3    H143805   6.821   1.807   1.028 -0.4916 -0.9628  0.2922
 7438TIP3    H243806   6.696   1.883   1.066  1.0153  2.7512 -1.9585
 7439TIP3   OH243807   3.551   2.973  14.274 -0.7589  0.0605  0.6519
 7439TIP3    H143808   3.588   3.053  14.311 -2.4357  1.1103  0.1180
 7439TIP3    H243809   3.476   2.954  14.329  0.7632 -2.3071  1.9999
 7440TIP3   OH243810   3.888   0.382  16.456  0.3529 -0.0833 -0.4209
 7440TIP3    H143811   3.862   0.467  16.419 -0.7209 -1.6468 -3.4542
 7440TIP3    H243812   3.842   0.377  16.539  0.8034  2.4865  0.0398
 7441TIP3   OH243813   1.409   6.712   1.441  0.0173  0.1081 -0.3292
 7441TIP3    H143814   1.485   6.677   1.489 -0.8127 -1.5422 -0.2090
 7441TIP3    H243815   1.350   6.743   1.509 -0.6971 -1.2770 -0.3059
 7442TIP3   OH243816   6.726   3.718   5.404  0.2754 -0.2045 -0.2417
 7442TIP3    H143817   6.706   3.625   5.413 -0.3370 -0.0673 -0.1829
 7442TIP3    H243818   6.720   3.752   5.493 -2.1424  0.4202 -0.6146
 7443TIP3   OH243819   0.240   1.394   3.801 -0.1979 -0.4333 -0.7395
 7443TIP3    H143820   0.265   1.476   3.844 -0.0741 -0.6876 -0.3377
 7443TIP3    H243821   0.313   1.335   3.817 -0.1401 -0.5205 -1.3154
 7444TIP3   OH243822   3.177   3.573  13.340  0.2161 -0.2670  0.3506
 7444TIP3    H143823   3.197   3.631  13.414 -0.6789  2.6069 -1.5792
 7444TIP3    H243824   3.099   3.611  13.301 -0.7110 -3.1461 -0.6811
 7445TIP3   OH243825   3.666   0.641   0.092  0.3075 -0.0243  0.0732
 7445TIP3    H143826   3.712   0.582   0.033 -3.5834 -0.0589 -3.1658
 7445TIP3    H243827   3.694   0.729   0.064 -0.3010 -0.0899 -0.7418
 7446TIP3   OH243828   6.137   2.683   5.628 -0.3788  0.2232 -0.3858
 7446TIP3    H143829   6.158   2.776   5.620 -1.7370  0.6724  1.0976
 7446TIP3    H243830   6.200   2.650   5.693 -0.6813  0.3790 -0.0100
 7447TIP3   OH243831   1.316   6.607   4.449 -0.0438  0.1879  0.0368
 7447TIP3    H143832   1.232   6.651   4.435  0.2545  1.3580  1.8733
 7447TIP3    H243833   1.375   6.675   4.480  1.0603 -1.0433  0.7207
 7448TIP3   OH243834   6.028   1.201  13.081  0.1266 -0.2332 -0.0008
 7448TIP3    H143835   5.994   1.273  13.028  0.0788 -0.1693  0.1176
 7448TIP3    H243836   6.121   1.197  13.060 -0.0553 -0.7477 -0.7183
 7449TIP3   OH243837   2.059   3.621  16.660  0.1222 -0.0813 -0.1708
 7449TIP3    H143838   2.052   3.565  16.583  1.3522  0.4521 -0.6794
 7449TIP3    H243839   1.969   3.645  16.680 -0.4415 -2.2737  0.0972
 7450TIP3   OH243840   2.560   3.292   1.464 -0.5204 -0.6262 -0.4127
 7450TIP3    H143841   2.527   3.204   1.484  0.3520 -0.7357  0.5447
 7450TIP3    H243842   2.553   3.340   1.546  0.9547 -0.4120 -0.4115
 7451TIP3   OH243843   3.496   6.537  16.033  0.3709  0.6975 -0.1168
 7451TIP3    H143844   3.536   6.453  16.055 -0.5307  0.2957  0.0076
 7451TIP3    H243845   3.548   6.570  15.960 -0.5799 -0.9729 -1.5947
 7452TIP3   OH243846   0.512   1.740   4.209  0.0709 -0.1796  0.1927
 7452TIP3    H143847   0.566   1.662   4.222  0.9638  0.6138  1.3479
 7452TIP3    H243848   0.489   1.769   4.297 -2.4814 -0.6259 -0.2727
 7453TIP3   OH243849   5.290   6.511  12.248  0.6815 -0.2891 -0.6194
 7453TIP3    H143850   5.325   6.597  12.271 -1.1879  0.7691 -1.5689
 7453TIP3    H243851   5.217   6.498  12.308 -1.2044  0.3567 -2.6866
 7454TIP3   OH243852   5.924   4.263   4.629  0.2071 -0.0981  0.2151
 7454TIP3    H143853   5.978   4.188   4.603  2.0796  0.4715  2.3180
 7454TIP3    H243854   5.960   4.290   4.713 -0.3824  3.2680 -0.5567
 7455TIP3   OH243855   3.061   2.977  15.520 -0.8064  0.5267  0.1904
 7455TIP3    H143856   3.143   3.027  15.518 -0.7786  0.4330 -1.4322
 7455TIP3    H243857   2.993   3.043  15.505 -0.9621  0.4640  0.6187
 7456TIP3   OH243858   1.518   3.851   1.469  0.1204 -0.1920 -0.8423
 7456TIP3    H143859   1.425   3.865   1.450  0.4438  0.8310 -1.6596
 7456TIP3    H243860   1.519   3.772   1.523 -1.0543 -1.3820 -2.5307
 7457TIP3   OH243861   2.474   0.128   4.505 -0.0226 -0.6357 -0.0899
 7457TIP3    H143862   2.525   0.096   4.430  3.1913  2.0100  0.8650
 7457TIP3    H243863   2.424   0.202   4.469 -1.4871 -1.8268 -0.5125
 7458TIP3   OH243864   0.736   5.966   3.265 -0.6962 -0.0907  0.3770
 7458TIP3    H143865   0.794   5.907   3.314  1.9033  2.0798  0.0314
 7458TIP3    H243866   0.749   5.942   3.174  1.0948  1.5870  0.1622
 7459TIP3   OH243867   1.555   5.901   5.159  0.0654  0.3363 -0.7798
 7459TIP3    H143868   1.536   5.807   5.163  1.6680  0.0463  0.2060
 7459TIP3    H243869   1.475   5.943   5.192  0.3577 -0.7877  1.4530
 7460TIP3   OH243870   2.647   2.256  14.197 -0.3808 -0.2973  0.2916
 7460TIP3    H143871   2.570   2.304  14.166  0.2348  0.1818 -0.5421
 7460TIP3    H243872   2.693   2.232  14.117 -2.2900 -5.0803  0.5141
 7461TIP3   OH243873   2.662   2.626   4.355  0.4410  0.1353 -0.1498
 7461TIP3    H143874   2.658   2.610   4.261 -2.6571  1.5669 -0.3360
 7461TIP3    H243875   2.646   2.720   4.364 -1.8325 -0.3781  1.8843
 7462TIP3   OH243876   6.816   0.515   6.404  0.0579 -0.1411  0.5207
 7462TIP3    H143877   6.765   0.576   6.351 -0.1060  0.2289  1.0934
 7462TIP3    H243878   6.767   0.508   6.486  0.7012 -0.1180  0.9110
 7463TIP3   OH243879   1.640   6.523   5.481  0.2272  1.0279 -0.2229
 7463TIP3    H143880   1.728   6.560   5.474 -0.9654  3.7171 -1.9522
 7463TIP3    H243881   1.583   6.600   5.489 -2.1770 -0.5636 -1.6625
 7464TIP3   OH243882   1.503   6.208   1.760 -0.2017  0.2246  0.5589
 7464TIP3    H143883   1.500   6.189   1.854 -0.0879  1.6322  0.8643
 7464TIP3    H243884   1.434   6.273   1.746 -1.8744 -1.7805 -0.7874
 7465TIP3   OH243885   0.062   4.320  12.097 -0.1404  0.1440  0.3841
 7465TIP3    H143886   0.009   4.274  12.032 -0.2712  1.8442 -0.7622
 7465TIP3    H243887   0.001   4.342  12.167 -0.7356  1.0917 -0.4074
 7466TIP3   OH243888   4.364   4.705   2.625 -0.4068  0.3537 -0.1152
 7466TIP3    H143889   4.359   4.627   2.680  2.3241  0.3104  0.1626
 7466TIP3    H243890   4.334   4.777   2.681  2.5101  0.3390  1.5918
 7467TIP3   OH243891   4.403   4.874  13.409 -0.0292 -0.3417  0.0783
 7467TIP3    H143892   4.367   4.907  13.491  0.5280 -0.8501  0.5338
 7467TIP3    H243893   4.327   4.854  13.355 -0.4168 -0.9425  0.8456
 7468TIP3   OH243894   3.164   5.712   3.132  0.1694  0.3795 -0.3187
 7468TIP3    H143895   3.069   5.717   3.143  0.1161  0.1599 -0.6715
 7468TIP3    H243896   3.176   5.660   3.052  0.6636 -3.6216  2.2026
 7469TIP3   OH243897   1.545   5.697   2.811  0.1506 -0.6519  0.5041
 7469TIP3    H143898   1.564   5.778   2.763  0.0222 -1.7929 -1.5502
 7469TIP3    H243899   1.500   5.725   2.890  0.7203  1.3308  0.1496
 7470TIP3   OH243900   4.392   4.260   0.737  0.1742 -0.8988  0.8654
 7470TIP3    H143901   4.432   4.336   0.778 -0.5295 -0.3100  0.4615
 7470TIP3    H243902   4.436   4.253   0.652 -3.1210  2.0092 -1.2215
 7471TIP3   OH243903   0.547   2.086  12.125  0.2708  0.1412  0.0645
 7471TIP3    H143904   0.569   2.101  12.033  0.3875  0.0109  0.0711
 7471TIP3    H243905   0.473   2.145  12.142  1.4704  1.5757  0.4175
 7472TIP3   OH243906   2.937   0.701  16.042  0.1143  0.4073 -0.3973
 7472TIP3    H143907   2.863   0.762  16.034  0.1340  0.2595 -1.7017
 7472TIP3    H243908   2.896   0.617  16.063  0.0798  0.8321  1.2895
 7473TIP3   OH243909   1.757   6.602   6.215 -0.2382  0.7484 -0.0347
 7473TIP3    H143910   1.673   6.568   6.245 -1.1150  0.9687 -2.1494
 7473TIP3    H243911   1.774   6.678   6.271 -0.1355 -0.8422  2.1600
 7474TIP3   OH243912   4.193   6.391   2.256 -0.0623  0.2013  0.7543
 7474TIP3    H143913   4.246   6.312   2.259  1.0309  0.8925 -0.0423
 7474TIP3    H243914   4.256   6.463   2.260 -0.8674  1.0329 -0.7670
 7475TIP3   OH243915   0.115   1.404   0.590  0.4388 -0.0335  1.1017
 7475TIP3    H143916   0.029   1.372   0.616  0.9588 -0.7162  2.0018
 7475TIP3    H243917   0.120   1.493   0.626 -0.0524  0.1683  0.6751
 7476TIP3   OH243918   5.699   6.082  12.054  0.3047  0.5448  0.0673
 7476TIP3    H143919   5.619   6.133  12.070 -1.7969 -2.4848 -0.4683
 7476TIP3    H243920   5.726   6.108  11.965 -1.0930  0.3225 -0.4413
 7477TIP3   OH243921   1.659   6.433   0.622 -0.0112  0.1294  0.0410
 7477TIP3    H143922   1.619   6.512   0.584 -1.9380 -0.1880  1.3276
 7477TIP3    H243923   1.663   6.451   0.716 -0.2085 -1.1832  0.3079
 7478TIP3   OH243924   4.323   6.586   0.133  0.0344  0.2249  0.5435
 7478TIP3    H143925   4.375   6.641   0.074  0.5384 -1.3097 -0.4708
 7478TIP3    H243926   4.383   6.517   0.161 -0.6342  0.0858  1.6775
 7479TIP3   OH243927   2.081   4.069  14.829  1.0082 -0.1204  0.1166
 7479TIP3    H143928   2.172   4.099  14.817  0.7332 -0.2080 -2.6578
 7479TIP3    H243929   2.028   4.147  14.810  0.4591 -0.5701 -0.2011
 7480TIP3   OH243930   0.010   4.919  15.378 -0.2613  0.2436  0.5677
 7480TIP3    H143931   0.024   4.907  15.284 -0.5211 -0.7899  0.6521
 7480TIP3    H243932   0.093   4.955  15.410 -0.3776  1.1685 -0.1528
 7481TIP3   OH243933   6.390   2.485  14.296  0.2591 -0.6199  0.0483
 7481TIP3    H143934   6.354   2.449  14.215  2.3709 -0.5595 -0.9415
 7481TIP3    H243935   6.314   2.522  14.341 -0.8110  0.2206 -2.3516
 7482TIP3   OH243936   2.256   3.987   0.224 -0.3853 -0.1590 -0.4230
 7482TIP3    H143937   2.207   3.905   0.209 -0.8923  0.1889 -0.6782
 7482TIP3    H243938   2.252   4.033   0.140 -1.0457  0.6321  0.0346
 7483TIP3   OH243939   0.921   5.981   4.379 -0.0164 -0.4990  0.4180
 7483TIP3    H143940   0.905   6.026   4.296 -0.8653  0.3519  1.0325
 7483TIP3    H243941   0.920   6.051   4.445 -0.3227 -1.2809  1.2543
 7484TIP3   OH243942   6.288   3.682   5.194 -0.1313 -0.3293  0.5901
 7484TIP3    H143943   6.219   3.615   5.191  0.2151 -0.6963  0.7733
 7484TIP3    H243944   6.309   3.691   5.287  0.2125 -0.3651  0.5181
 7485TIP3   OH243945   4.878   2.943  11.112 -0.4247 -0.7464  0.4399
 7485TIP3    H143946   4.891   2.977  11.023 -1.7753 -0.8191  0.2076
 7485TIP3    H243947   4.788   2.967  11.134 -1.2297 -3.6732  0.4937
 7486TIP3   OH243948   3.264   1.931  15.307 -0.0324  0.2377 -0.3898
 7486TIP3    H143949   3.211   1.964  15.235  0.1438  1.6581  0.1102
 7486TIP3    H243950   3.353   1.960  15.286 -0.2037  1.9977  1.1293
 7487TIP3   OH243951   3.790   1.130   1.472 -0.4129  0.5290 -0.1408
 7487TIP3    H143952   3.740   1.118   1.390 -0.4127 -2.1683  0.1845
 7487TIP3    H243953   3.723   1.138   1.540 -0.4269 -0.0391 -0.0816
 7488TIP3   OH243954   1.706   4.091   2.561 -0.0878 -0.3818  0.0288
 7488TIP3    H143955   1.685   4.182   2.581  0.9275  0.1804 -1.4051
 7488TIP3    H243956   1.784   4.072   2.613 -0.0349 -0.3059 -0.0239
 7489TIP3   OH243957   4.983   3.560   1.390  0.2833 -0.2559 -0.1126
 7489TIP3    H143958   4.997   3.544   1.483 -0.0746  1.0064  0.1664
 7489TIP3    H243959   4.986   3.655   1.381  0.5191 -0.3753 -1.4256
 7490TIP3   OH243960   2.407   2.771  16.408  0.3560 -0.6641 -0.2135
 7490TIP3    H143961   2.347   2.700  16.385  1.7047 -2.3729  1.3473
 7490TIP3    H243962   2.494   2.734  16.392  1.0380  1.4602 -1.5685
 7491TIP3   OH243963   5.531   6.540  13.221  0.4789  0.1265 -0.1353
 7491TIP3    H143964   5.496   6.592  13.293 -0.3479 -1.5513  0.7168
 7491TIP3    H243965   5.519   6.595  13.143 -0.7693  1.0314  0.6701
 7492TIP3   OH243966   5.595   5.660   5.264 -0.1271  0.1715  0.1705
 7492TIP3    H143967   5.511   5.701   5.281 -1.2508 -1.7763 -0.5549
 7492TIP3    H243968   5.594   5.580   5.316  1.3905  0.2614  0.3641
 7493TIP3   OH243969   0.425   2.088  11.124 -0.4758 -0.6287 -0.8293
 7493TIP3    H143970   0.368   2.127  11.189 -1.4023 -0.4129 -1.7715
 7493TIP3    H243971   0.453   2.005  11.164 -1.5382 -0.7952 -0.4236
 7494TIP3   OH243972   3.354   5.108  14.577 -0.1060 -0.7902 -0.2658
 7494TIP3    H143973   3.392   5.194  14.558 -1.9483 -0.0870 -0.9900
 7494TIP3    H243974   3.425   5.046  14.561  1.2924  0.6110  0.4048
 7495TIP3   OH243975   0.553   2.952  11.274 -0.4553 -0.2641  0.5605
 7495TIP3    H143976   0.619   3.013  11.306 -1.0385  0.0105  1.2508
 7495TIP3    H243977   0.595   2.866  11.280  0.5885  0.1287 -1.0069
 7496TIP3   OH243978   5.281   6.721  17.213  0.7919  0.1828 -0.3438
 7496TIP3    H143979   5.227   6.714  17.134  1.1490 -0.6848 -0.5165
 7496TIP3    H243980   5.308   6.631  17.231  0.8777  0.4064  0.6556
 7497TIP3   OH243981   5.319   3.139   2.688 -0.2759  0.0406  0.1107
 7497TIP3    H143982   5.390   3.194   2.721 -1.1538  1.6342 -0.5930
 7497TIP3    H243983   5.288   3.091   2.765  0.3317  0.7121  0.7870
 7498TIP3   OH243984   0.333   5.038  11.888  0.1077  0.1655  0.1354
 7498TIP3    H143985   0.287   5.034  11.804  1.8517 -1.4356 -0.7706
 7498TIP3    H243986   0.402   5.103  11.875 -0.7735  1.2952  0.9525
 7499TIP3   OH243987   1.456   6.554  12.416  0.2087  0.3586  0.3021
 7499TIP3    H143988   1.529   6.552  12.477 -0.0933 -0.7176  0.6390
 7499TIP3    H243989   1.412   6.637  12.435  0.4186  0.2757  1.2014
 7500TIP3   OH243990   3.931   2.150  15.888  0.1692  0.9590  0.5169
 7500TIP3    H143991   3.920   2.201  15.968 -1.5966  3.7572 -1.4069
 7500TIP3    H243992   3.851   2.098  15.881  1.2905 -1.0081  1.6571
 7501TIP3   OH243993   6.820   1.671  16.799  0.4537  0.1077 -0.4725
 7501TIP3    H143994   6.786   1.737  16.739  1.1162  0.1949 -0.7517
 7501TIP3    H243995   6.751   1.660  16.864  0.6628  1.6313  0.0132
 7502TIP3   OH243996   2.251   5.215  16.136  0.1771  0.0615 -0.1958
 7502TIP3    H143997   2.175   5.259  16.174  0.9677  1.0797  0.2292
 7502TIP3    H243998   2.213   5.146  16.081 -1.1506  2.1068 -1.9590
 7503TIP3   OH243999   5.470   4.851  12.247  0.0854  0.2639  0.2112
 7503TIP3    H144000   5.551   4.812  12.280  0.9856  1.4942 -0.5454
 7503TIP3    H244001   5.411   4.852  12.324  0.2882 -1.8890  0.4198
 7504TIP3   OH244002   1.002   1.351  12.919 -0.3593 -0.1583 -0.2345
 7504TIP3    H144003   0.965   1.384  12.837 -0.8023 -1.9021 -0.7545
 7504TIP3    H244004   0.926   1.329  12.973 -0.0807 -1.4495 -0.3597
 7505TIP3   OH244005   5.372   1.902   0.453 -0.2216  0.6254  0.3759
 7505TIP3    H144006   5.384   1.932   0.543 -0.6048  0.3292  0.5292
 7505TIP3    H244007   5.291   1.851   0.455 -0.7973  1.4978 -0.3594
 7506TIP3   OH244008   5.483   6.579  16.908 -0.1573  0.2857 -0.6822
 7506TIP3    H144009   5.496   6.544  16.997  1.9566 -0.4357 -1.2353
 7506TIP3    H244010   5.465   6.672  16.922  0.7607  0.3108  0.5038
 7507TIP3   OH244011   4.860   3.784  14.657  0.1358  0.2736  0.1484
 7507TIP3    H144012   4.861   3.855  14.592  0.5917  0.0380 -0.0998
 7507TIP3    H244013   4.933   3.728  14.632  0.3936  0.2591  0.9532
 7508TIP3   OH244014   5.614   5.133  16.540  0.4530  0.2206  0.5496
 7508TIP3    H144015   5.708   5.150  16.531  0.4663  0.4047  1.0573
 7508TIP3    H244016   5.609   5.045  16.576  0.3839 -0.9266 -2.1143
 7509TIP3   OH244017   0.135   0.037   0.802 -0.1008  0.6837 -0.1399
 7509TIP3    H144018   0.086   0.036   0.885 -3.9277 -0.4818 -2.2943
 7509TIP3    H244019   0.099  -0.037   0.753  1.3046  2.0495 -3.3180
 7510TIP3   OH244020   1.228   3.561  17.131  0.2779 -0.6003  0.4144
 7510TIP3    H144021   1.134   3.551  17.112  0.4792  0.9801 -1.6235
 7510TIP3    H244022   1.231   3.616  17.209 -0.5027 -1.9784  1.4387
 7511TIP3   OH244023   1.004   1.524  12.004  0.2021 -0.1522  0.0800
 7511TIP3    H144024   0.947   1.518  12.081  1.1282  0.3715  0.8234
 7511TIP3    H244025   0.962   1.468  11.939 -1.2925  0.4095  0.5259
 7512TIP3   OH244026   5.699   2.870   0.653 -0.5344  0.4392 -0.1081
 7512TIP3    H144027   5.718   2.910   0.568 -2.4800  0.8298 -0.3732
 7512TIP3    H244028   5.610   2.896   0.673 -0.9199 -1.5648  0.9693
 7513TIP3   OH244029   6.135   2.313   4.957  0.5416  0.3062  0.1663
 7513TIP3    H144030   6.040   2.322   4.971  0.7293  3.2991 -0.1976
 7513TIP3    H244031   6.143   2.238   4.898 -1.6165  0.3248 -0.2019
 7514TIP3   OH244032   3.165   6.216  16.130 -0.1748 -0.6585 -0.8738
 7514TIP3    H144033   3.212   6.213  16.213 -0.4236 -0.1724 -0.7147
 7514TIP3    H244034   3.234   6.213  16.063  0.0593 -0.4574 -0.6446
 7515TIP3   OH244035   6.239   0.763  15.485  0.4058  0.6339 -0.7064
 7515TIP3    H144036   6.246   0.690  15.546  1.2515  0.7360 -0.6742
 7515TIP3    H244037   6.208   0.723  15.404  0.3006  0.3337 -0.5206
 7516TIP3   OH244038   6.625   0.135   1.893  0.5275  0.1016 -0.0305
 7516TIP3    H144039   6.688   0.132   1.821  0.1535  1.3994 -0.4362
 7516TIP3    H244040   6.556   0.073   1.867  0.8803 -0.1712 -0.3236
 7517TIP3   OH244041   6.181   5.406   2.755  0.1390 -0.3098 -0.2849
 7517TIP3    H144042   6.268   5.378   2.781  0.0402 -1.0452 -0.7134
 7517TIP3    H244043   6.135   5.325   2.732 -0.7664  0.0355  0.2665
 7518TIP3   OH244044   6.098   4.056  12.288  0.6610 -0.4869 -0.4974
 7518TIP3    H144045   6.175   4.111  12.303 -0.0055  0.7444 -1.4272
 7518TIP3    H244046   6.107   4.026  12.197 -0.8821  1.2455 -1.2690
 7519TIP3   OH244047   1.565   6.598  13.836  0.5267 -0.3233 -0.1373
 7519TIP3    H144048   1.593   6.543  13.762  0.3865 -0.5120 -0.0480
 7519TIP3    H244049   1.647   6.626  13.877  0.6153 -0.0247 -0.5051
 7520TIP3   OH244050   5.413   4.425   4.082  0.2833 -0.5901  0.0456
 7520TIP3    H144051   5.417   4.393   3.992 -0.2489 -2.4296  0.6539
 7520TIP3    H244052   5.504   4.447   4.104  0.7027 -1.8608 -0.3532
 7521TIP3   OH244053   0.605   5.474  12.780  0.6281 -0.2782  0.7100
 7521TIP3    H144054   0.649   5.482  12.696 -0.2778  1.6238  0.3886
 7521TIP3    H244055   0.635   5.550  12.831 -0.5831 -0.1414  1.2562
 7522TIP3   OH244056   5.467   0.960   0.083  0.0256  0.9562 -0.1297
 7522TIP3    H144057   5.419   0.967   0.001 -0.1254 -0.4897 -0.1861
 7522TIP3    H244058   5.401   0.977   0.151 -0.2550  0.3620 -0.2507
 7523TIP3   OH244059   0.121   0.977  13.891 -0.1053  0.0481 -0.3040
 7523TIP3    H144060   0.193   0.916  13.876 -1.1375 -1.0138 -1.0079
 7523TIP3    H244061   0.138   1.049  13.830 -0.4633 -0.9284 -1.5642
 7524TIP3   OH244062   1.825   1.951   3.174 -0.5214 -0.2881  0.2901
 7524TIP3    H144063   1.875   1.889   3.227  0.3590 -0.5844 -0.8881
 7524TIP3    H244064   1.841   2.036   3.215  0.1222 -0.5188  0.5224
 7525TIP3   OH244065   5.320   0.580   5.989  0.1363 -0.2693 -0.0028
 7525TIP3    H144066   5.407   0.544   5.970  1.4978  2.9653 -0.3347
 7525TIP3    H244067   5.262   0.539   5.925  1.8650 -0.7973 -1.2637
 7526TIP3   OH244068   4.659   4.943  14.828  0.3536 -0.2577  0.4451
 7526TIP3    H144069   4.697   4.884  14.762  0.4736 -0.2003  0.4628
 7526TIP3    H244070   4.725   4.946  14.898  0.1382 -0.4784  0.6603
 7527TIP3   OH244071   5.742   3.498  15.955 -0.3901 -0.4283  0.5255
 7527TIP3    H144072   5.713   3.577  16.000 -0.2230  0.7773 -1.4293
 7527TIP3    H244073   5.837   3.504  15.956 -0.4140  0.4499 -1.4269
 7528TIP3   OH244074   3.090   2.054  13.698 -0.1673  0.6888  0.2790
 7528TIP3    H144075   3.079   1.971  13.744 -0.6600 -0.4901 -1.8808
 7528TIP3    H244076   3.184   2.063  13.687 -0.1703 -0.4941 -0.9792
 7529TIP3   OH244077   1.367   0.829  11.281 -0.3061 -0.4731 -0.4135
 7529TIP3    H144078   1.413   0.753  11.316 -0.6484 -0.4100  0.1696
 7529TIP3    H244079   1.423   0.904  11.302 -0.5464 -0.4265  0.0682
 7530TIP3   OH244080   5.664   6.271   5.338 -0.2409 -0.1700  0.1367
 7530TIP3    H144081   5.697   6.182   5.351 -1.8834 -0.6458  1.1968
 7530TIP3    H244082   5.687   6.317   5.419 -0.7699 -0.0706  0.2314
 7531TIP3   OH244083   0.192   5.045  14.871  0.2406  0.3724 -0.1222
 7531TIP3    H144084   0.226   5.052  14.782 -0.4383  0.8739 -0.3535
 7531TIP3    H244085   0.192   5.135  14.904 -1.7733  0.5323 -0.4961
 7532TIP3   OH244086   0.377   4.190   4.474  0.7848 -0.4249  0.3824
 7532TIP3    H144087   0.376   4.150   4.387 -0.6612 -0.1582  0.2540
 7532TIP3    H244088   0.353   4.282   4.458 -2.6695 -1.0779  1.3398
 7533TIP3   OH244089   6.137   4.626   2.481  0.3578  0.8747  0.0625
 7533TIP3    H144090   6.186   4.699   2.445 -0.4938  1.4664  0.0977
 7533TIP3    H244091   6.182   4.548   2.449  1.8259  1.4097  0.7827
 7534TIP3   OH244092   5.397   6.708  10.854 -0.1383  0.0070  0.0735
 7534TIP3    H144093   5.455   6.646  10.808  0.3244 -0.6809  1.5489
 7534TIP3    H244094   5.438   6.793  10.841 -0.3965 -0.0833 -1.3836
 7535TIP3   OH244095   1.147   1.622   5.634  0.4585 -0.7481  0.5017
 7535TIP3    H144096   1.204   1.646   5.708  0.4087 -0.0160  0.3067
 7535TIP3    H244097   1.059   1.625   5.670  0.6254 -3.7858  1.3286
 7536TIP3   OH244098   5.508   0.350  15.343  0.0084 -0.5807  0.3176
 7536TIP3    H144099   5.562   0.353  15.422 -0.6804  0.3069  0.7500
 7536TIP3    H244100   5.498   0.442  15.317  0.4677 -0.8768 -0.9672
 7537TIP3   OH244101   5.045   0.051  12.666 -0.3308 -0.3582 -0.4916
 7537TIP3    H144102   5.107   0.102  12.718  0.4210 -1.8427  0.0983
 7537TIP3    H244103   5.099  -0.013  12.620 -1.0162  0.6938 -2.8914
 7538TIP3   OH244104   6.421   2.659   5.518  0.1270  0.8808 -0.6145
 7538TIP3    H144105   6.346   2.605   5.494 -0.3064  1.0073  0.4391
 7538TIP3    H244106   6.489   2.596   5.542 -0.4619  0.8115  0.8630
 7539TIP3   OH244107   5.313   6.685  11.112 -0.0240  0.3703  0.5323
 7539TIP3    H144108   5.391   6.712  11.161  0.1400  2.3119 -0.7357
 7539TIP3    H244109   5.340   6.688  11.020 -2.0171  2.7304 -0.0479
 7540TIP3   OH244110   3.166   4.731   1.179 -0.0519 -0.6563 -0.2145
 7540TIP3    H144111   3.150   4.651   1.129 -0.1839 -1.1092  0.5495
 7540TIP3    H244112   3.079   4.763   1.204  0.0953 -2.2059  2.4937
 7541TIP3   OH244113   4.645   0.350   1.418  0.5492  0.1156 -0.7329
 7541TIP3    H144114   4.697   0.285   1.370 -0.9384 -2.3681  0.9521
 7541TIP3    H244115   4.556   0.336   1.387 -0.2241 -0.6055  1.7100
 7542TIP3   OH244116   6.654   0.863  13.031 -0.3565  0.0816  0.0957
 7542TIP3    H144117   6.725   0.922  13.005 -0.9759  1.8415  2.2282
 7542TIP3    H244118   6.687   0.776  13.012  3.5158  0.6457  3.3880
 7543TIP3   OH244119   5.229   5.391  11.616 -0.5058  0.0695 -0.0250
 7543TIP3    H144120   5.219   5.355  11.528 -1.2837  2.8302 -1.1246
 7543TIP3    H244121   5.145   5.434  11.634  0.5009  1.6393  1.0488
 7544TIP3   OH244122   5.380   4.788   3.057  0.1977 -0.4261 -0.2283
 7544TIP3    H144123   5.303   4.787   3.000 -0.2141 -1.9470  0.3229
 7544TIP3    H244124   5.421   4.874   3.042 -1.3993  0.2518 -0.7933
 7545TIP3   OH244125   5.939   1.898   0.872  0.9124  0.6488 -0.3435
 7545TIP3    H144126   5.854   1.877   0.833 -0.1952  0.5344  2.0364
 7545TIP3    H244127   5.993   1.821   0.855  0.4615  0.5934 -1.6091
 7546TIP3   OH244128   3.454   5.150   0.317 -0.4330 -0.3620  0.0417
 7546TIP3    H144129   3.510   5.093   0.265  0.0199  1.0915 -1.0910
 7546TIP3    H244130   3.415   5.211   0.254  0.1989  1.4861  1.3763
 7547TIP3   OH244131   2.203   1.471   4.744  0.1445 -0.0491  0.3164
 7547TIP3    H144132   2.264   1.545   4.746 -0.2934  0.2839  2.6111
 7547TIP3    H244133   2.258   1.394   4.755  0.4377  0.0379 -0.4982
 7548TIP3   OH244134   3.393   6.638  11.075 -0.1075 -0.4989 -0.7948
 7548TIP3    H144135   3.359   6.607  10.991 -1.5026  0.3246 -0.5623
 7548TIP3    H244136   3.372   6.568  11.136  0.7124 -1.0045 -1.0919
 7549TIP3   OH244137   0.069   4.401  16.171  0.1541  0.2734  0.1716
 7549TIP3    H144138   0.117   4.318  16.177 -0.3243  0.0893  1.4512
 7549TIP3    H244139  -0.022   4.376  16.163  0.1083  0.6631 -0.6012
 7550TIP3   OH244140   1.196   4.076  16.769  0.5866  0.2712 -0.3394
 7550TIP3    H144141   1.215   4.128  16.847  0.2592 -0.7062  0.3969
 7550TIP3    H244142   1.242   3.994  16.784 -0.4307 -0.3559 -0.6631
 7551TIP3   OH244143   1.446   5.571   5.715  0.0038  0.0493  0.1771
 7551TIP3    H144144   1.468   5.526   5.797  0.7493 -0.7576 -0.4456
 7551TIP3    H244145   1.355   5.598   5.726 -0.6832 -2.1760  0.3428
 7552TIP3   OH244146   2.826   2.171   2.676  0.1926  0.0822  0.0254
 7552TIP3    H144147   2.865   2.229   2.741  0.8262  0.3570 -0.6030
 7552TIP3    H244148   2.731   2.184   2.686  0.3363  1.3151 -0.2100
 7553TIP3   OH244149   5.552   4.041  14.642 -0.2155  0.5645  0.0000
 7553TIP3    H144150   5.588   4.127  14.619  0.0464  0.3059 -0.5865
 7553TIP3    H244151   5.465   4.060  14.677  0.0457  1.1092  0.3629
 7554TIP3   OH244152   6.220   5.804  10.804 -0.2206  0.1224  0.1162
 7554TIP3    H144153   6.290   5.742  10.824  0.2213  0.5964  0.0475
 7554TIP3    H244154   6.146   5.749  10.777  0.0994 -0.3811  0.2635
 7555TIP3   OH244155   1.827   0.991   1.725  0.3097  0.4778  0.0487
 7555TIP3    H144156   1.791   0.953   1.645  2.7239 -1.1807 -0.2913
 7555TIP3    H244157   1.795   0.935   1.795 -0.1040  0.7004  0.0388
 7556TIP3   OH244158   3.811   3.565   2.746 -0.0167 -0.5630  1.0393
 7556TIP3    H144159   3.749   3.579   2.674 -0.6199 -1.7455  1.3106
 7556TIP3    H244160   3.755   3.547   2.822  0.6219  0.3973  1.7355
 7557TIP3   OH244161   6.813   4.937   4.345 -0.4076  0.3930 -0.2585
 7557TIP3    H144162   6.801   4.854   4.299  1.9446 -0.3868  0.4911
 7557TIP3    H244163   6.905   4.938   4.370 -1.0183  2.0094  2.1136
 7558TIP3   OH244164   2.389   3.828   1.590  0.3254  0.3018 -0.2910
 7558TIP3    H144165   2.338   3.770   1.647 -0.0183  1.2260  0.3624
 7558TIP3    H244166   2.445   3.877   1.650  0.1626  1.0851 -0.7701
 7559TIP3   OH244167   3.207   4.126  14.004  0.0006 -0.0602 -0.0825
 7559TIP3    H144168   3.184   4.045  13.959 -2.3605  0.3175  0.3880
 7559TIP3    H244169   3.287   4.106  14.051 -0.3765 -2.0173 -0.2432
 7560TIP3   OH244170   1.892   1.162   4.372  0.3198 -0.0706 -0.0959
 7560TIP3    H144171   1.820   1.220   4.400 -0.1161 -0.5186 -0.2766
 7560TIP3    H244172   1.848   1.091   4.324  0.9980  0.3669 -1.3967
 7561TIP3   OH244173   3.224   0.973   6.060  0.4914  0.2579  0.2519
 7561TIP3    H144174   3.175   0.979   5.978  1.0515  1.6241  0.0089
 7561TIP3    H244175   3.225   0.879   6.080  0.0795 -0.0623 -1.1369
 7562TIP3   OH244176   0.206   1.550   0.861 -0.0138  0.2364 -0.0714
 7562TIP3    H144177   0.287   1.498   0.865 -0.6246 -0.6900  0.5799
 7562TIP3    H244178   0.236   1.640   0.848  1.1233 -0.1078  0.0744
 7563TIP3   OH244179   4.097   2.679   4.456  0.2472 -0.1507  0.2631
 7563TIP3    H144180   4.119   2.669   4.363 -0.7884 -0.9538  0.0876
 7563TIP3    H244181   4.152   2.616   4.501 -0.6198 -1.1153 -0.0141
 7564TIP3   OH244182   0.925   4.733   0.102  0.6024 -0.5383  0.0361
 7564TIP3    H144183   0.905   4.739   0.196 -0.1320  0.3135 -0.1650
 7564TIP3    H244184   1.014   4.767   0.095  0.0541  0.9805  0.2214
 7565TIP3   OH244185   1.375   3.312  17.086  0.4563  0.4648 -0.1692
 7565TIP3    H144186   1.298   3.267  17.121  0.4275 -1.2605 -2.3335
 7565TIP3    H244187   1.348   3.403  17.078 -1.9364 -0.3513 -2.2720
 7566TIP3   OH244188   2.543   2.787  12.242  0.4009 -0.0449 -0.1160
 7566TIP3    H144189   2.556   2.725  12.171  1.0087  0.9219 -0.8579
 7566TIP3    H244190   2.465   2.755  12.288 -1.4924  0.6842 -2.7045
 7567TIP3   OH244191   0.015   2.164  13.729  0.0271  0.7366  0.3362
 7567TIP3    H144192   0.021   2.165  13.824 -1.4246  0.0504  0.4481
 7567TIP3    H244193   0.070   2.237  13.701 -0.0451  1.3410  1.7315
 7568TIP3   OH244194   3.857   3.413   3.464  0.6568  0.3674  0.0916
 7568TIP3    H144195   3.812   3.490   3.428 -0.5682 -1.2950 -2.0430
 7568TIP3    H244196   3.793   3.373   3.523  0.9267  0.4166  0.4203
 7569TIP3   OH244197   3.475   4.900  16.666  0.4866 -0.7065 -0.3454
 7569TIP3    H144198   3.452   4.865  16.580 -0.5632 -0.5687 -0.1322
 7569TIP3    H244199   3.443   4.990  16.665  3.0603  0.2390 -0.8385
 7570TIP3   OH244200   0.007   0.283   4.232  0.0894  0.0742 -0.6506
 7570TIP3    H144201  -0.031   0.341   4.166 -2.4143 -0.6173  0.1262
 7570TIP3    H244202   0.043   0.210   4.182 -0.7927  0.1014 -1.3410
 7571TIP3   OH244203   0.198   5.950  11.796 -0.1660  0.1386 -0.4281
 7571TIP3    H144204   0.224   5.879  11.738  1.0491  0.5775 -0.4282
 7571TIP3    H244205   0.137   5.909  11.858  1.5887 -1.2474  0.4366
 7572TIP3   OH244206   1.973   5.254  11.266 -0.5651 -0.2693  0.2595
 7572TIP3    H144207   1.999   5.224  11.179  1.3241 -0.1121  0.7683
 7572TIP3    H244208   1.891   5.207  11.283  0.7074 -2.7350 -0.2628
 7573TIP3   OH244209   3.276   2.455  15.606 -0.6230 -0.2991 -0.0757
 7573TIP3    H144210   3.352   2.497  15.646 -0.7424 -0.8982  0.7976
 7573TIP3    H244211   3.210   2.524  15.601 -1.5512 -0.8487  3.3256
 7574TIP3   OH244212   2.359   3.052  16.324 -0.4669 -0.0630 -0.8085
 7574TIP3    H144213   2.345   2.962  16.355  1.5491 -0.2820 -0.4301
 7574TIP3    H244214   2.323   3.107  16.394  2.9945 -0.5682  1.4888
 7575TIP3   OH244215   3.424   1.121   6.273 -0.3992 -0.2851 -0.0907
 7575TIP3    H144216   3.479   1.051   6.309 -0.9313 -1.0252 -0.7177
 7575TIP3    H244217   3.339   1.108   6.315 -0.7045 -0.4653 -0.7611
 7576TIP3   OH244218   4.659   6.124   1.199  0.7381  0.2191 -0.2537
 7576TIP3    H144219   4.576   6.142   1.245 -0.7139 -1.9723 -1.9524
 7576TIP3    H244220   4.645   6.159   1.111  0.4530 -2.8890 -1.4779
 7577TIP3   OH244221   6.053   6.697   1.146  0.1466  0.4092 -0.0860
 7577TIP3    H144222   6.012   6.688   1.232  1.0771 -0.1884  0.3100
 7577TIP3    H244223   6.005   6.767   1.103 -0.1343  0.9176  1.0497
 7578TIP3   OH244224   2.959   3.031  16.193 -0.7242 -0.1686  0.2365
 7578TIP3    H144225   2.885   3.058  16.138 -0.7665  0.9282  0.8037
 7578TIP3    H244226   2.975   3.107  16.249  0.1153 -0.8187  0.8843
 7579TIP3   OH244227   2.582   0.853   1.313  0.5582  0.2217  0.0334
 7579TIP3    H144228   2.516   0.907   1.270  0.9623  0.3719 -0.3981
 7579TIP3    H244229   2.664   0.902   1.304  0.8614 -0.2902 -0.0490
 7580TIP3   OH244230   5.096   4.281  15.546  1.1083 -0.3270  0.6789
 7580TIP3    H144231   5.013   4.234  15.548  1.1331 -0.3361  1.8188
 7580TIP3    H244232   5.096   4.334  15.627  1.1466  1.4932 -0.4795
 7581TIP3   OH244233   3.136   0.379  10.578 -0.8457  0.0413  0.1965
 7581TIP3    H144234   3.056   0.370  10.526 -1.8987 -0.3733  1.8456
 7581TIP3    H244235   3.177   0.292  10.575 -0.5939  0.1775 -0.4157
 7582TIP3   OH244236   0.917   1.693  11.776  0.0730 -0.2032 -0.0285
 7582TIP3    H144237   0.949   1.622  11.832 -0.3651  0.5200  1.1546
 7582TIP3    H244238   0.986   1.759  11.780  0.4849 -0.5461 -1.1414
 7583TIP3   OH244239   5.754   3.397  10.789  0.6069 -0.0748 -1.1515
 7583TIP3    H144240   5.826   3.334  10.794  2.0802  1.5826 -0.7902
 7583TIP3    H244241   5.705   3.385  10.870  0.4879 -1.1944 -1.3856
 7584TIP3   OH244242   4.878   1.148  13.163  0.0689  0.4119  0.1642
 7584TIP3    H144243   4.798   1.104  13.132  0.9283 -0.2923 -1.0979
 7584TIP3    H244244   4.939   1.141  13.089  1.7984 -0.3298  1.6406
 7585TIP3   OH244245   6.426   0.966   0.166  0.0371 -0.1787  0.0943
 7585TIP3    H144246   6.513   0.968   0.127 -0.5703 -0.5827 -1.3200
 7585TIP3    H244247   6.385   0.888   0.127 -1.2071  0.4304  0.1754
 7586TIP3   OH244248   0.134   1.748  11.231  0.0477  0.3391 -0.1971
 7586TIP3    H144249   0.180   1.664  11.228  1.8976  1.3073  0.3282
 7586TIP3    H244250   0.074   1.739  11.306  0.3763 -0.4376 -0.0177
 7587TIP3   OH244251   1.043   4.809   2.284  0.6486  0.2012  0.2112
 7587TIP3    H144252   1.082   4.826   2.198 -0.2595  0.7493 -0.1022
 7587TIP3    H244253   1.094   4.863   2.345  1.5584 -0.5027  0.0816
 7588TIP3   OH244254   4.740   1.013  11.559 -0.6749  0.3963  0.0467
 7588TIP3    H144255   4.677   1.025  11.489 -0.7680  1.2774  0.2808
 7588TIP3    H244256   4.825   1.033  11.520 -0.8806  2.4074  0.5665
 7589TIP3   OH244257   3.840   4.892  14.348 -0.0342  0.0292 -0.0056
 7589TIP3    H144258   3.757   4.928  14.318  0.5763  0.9000 -0.7017
 7589TIP3    H244259   3.854   4.815  14.294  0.0739  0.4369 -0.5679
 7590TIP3   OH244260   1.188   3.280  16.391 -0.1511  0.6422 -0.3660
 7590TIP3    H144261   1.136   3.200  16.401 -0.3554  0.7220 -0.7935
 7590TIP3    H244262   1.233   3.270  16.307  2.0509 -0.2971  0.8797
 7591TIP3   OH244263   1.722   5.596  16.623 -0.5870  0.5233  0.4063
 7591TIP3    H144264   1.630   5.570  16.613 -0.3544 -1.0344  2.0766
 7591TIP3    H244265   1.724   5.645  16.706  0.6364 -2.4411  2.2357
 7592TIP3   OH244266   2.493   4.562  15.512  0.2813 -0.1927  0.9546
 7592TIP3    H144267   2.501   4.657  15.518 -0.5763 -0.1108  0.9584
 7592TIP3    H244268   2.469   4.545  15.421 -0.6179 -0.3163  1.2070
 7593TIP3   OH244269   5.790   5.662   4.260  0.5016 -0.0034 -0.2982
 7593TIP3    H144270   5.841   5.625   4.332  0.8308 -0.5370 -0.7926
 7593TIP3    H244271   5.808   5.603   4.187  0.2085  0.5605 -0.8238
 7594TIP3   OH244272   2.123   2.156  13.699  0.1838 -0.5868 -0.3438
 7594TIP3    H144273   2.135   2.145  13.605 -1.1925 -0.2366 -0.5606
 7594TIP3    H244274   2.212   2.166  13.733  0.7525 -1.7973 -1.4607
 7595TIP3   OH244275   4.875   1.195  14.478 -0.1573  0.2990  0.4132
 7595TIP3    H144276   4.967   1.205  14.500 -0.3883 -0.1510  1.6129
 7595TIP3    H244277   4.835   1.160  14.557 -1.6115  1.8037  0.3845
 7596TIP3   OH244278   6.184   6.129   1.092 -0.5302 -0.5912  0.5937
 7596TIP3    H144279   6.149   6.187   1.160 -0.5005 -0.2824  0.3445
 7596TIP3    H244280   6.276   6.155   1.083 -0.8598  0.2548 -0.4862
 7597TIP3   OH244281   2.716   1.807  11.092 -0.4967 -0.3739 -0.3881
 7597TIP3    H144282   2.692   1.722  11.057  2.0286 -1.6861  0.8741
 7597TIP3    H244283   2.741   1.859  11.016 -1.7361 -0.8811 -1.1341
 7598TIP3   OH244284   2.835   1.451   0.785  0.0508 -0.1074 -0.6598
 7598TIP3    H144285   2.752   1.408   0.806 -0.4180 -0.0690 -2.3439
 7598TIP3    H244286   2.835   1.457   0.690  1.6866  0.5180 -0.6344
 7599TIP3   OH244287   0.892   0.284  13.486  0.2762  0.3754  0.4828
 7599TIP3    H144288   0.812   0.254  13.442 -0.4697  0.6450  1.6225
 7599TIP3    H244289   0.876   0.377  13.504  0.4995  0.2435  1.4285
 7600TIP3   OH244290   4.045   2.941   2.897  0.1536 -0.0908  0.6808
 7600TIP3    H144291   4.101   3.004   2.851  0.7796 -0.5054  0.8678
 7600TIP3    H244292   4.084   2.933   2.984  1.6128 -2.6560 -0.1483
 7601TIP3   OH244293   4.576   5.981  12.720  0.0715 -0.4782  0.1698
 7601TIP3    H144294   4.496   5.957  12.674  0.5406  0.0359 -0.9208
 7601TIP3    H244295   4.563   6.073  12.743  0.3881 -0.3765 -0.0707
 7602TIP3   OH244296   3.846   2.973  11.581  0.7441 -0.1442  0.1399
 7602TIP3    H144297   3.887   3.031  11.646 -0.6368  2.5649 -1.3311
 7602TIP3    H244298   3.892   2.992  11.499 -0.8750  0.1727 -0.7227
 7603TIP3   OH244299   4.814   4.759   4.767  0.0568  0.5278  0.5892
 7603TIP3    H144300   4.778   4.707   4.695  0.9106  0.3283  0.3056
 7603TIP3    H244301   4.798   4.850   4.742  0.4531  0.4614  0.0900
 7604TIP3   OH244302   5.117   4.538   0.677 -0.2912  0.0379 -0.0317
 7604TIP3    H144303   5.069   4.469   0.723 -0.5705  0.1501 -0.1516
 7604TIP3    H244304   5.182   4.492   0.625 -0.0157 -0.0970  0.4306
 7605TIP3   OH244305   2.784   0.163  14.306 -0.1987 -0.1977  0.1275
 7605TIP3    H144306   2.710   0.194  14.253  0.4228  0.3327 -0.4390
 7605TIP3    H244307   2.759   0.074  14.332 -2.7661  1.3403  3.2052
 7606TIP3   OH244308   2.335   5.860   4.459 -0.0730  0.6776 -0.2375
 7606TIP3    H144309   2.270   5.886   4.525  1.1517 -0.3276  1.4087
 7606TIP3    H244310   2.352   5.941   4.410  0.7680  2.0846  2.2624
 7607TIP3   OH244311   3.611   0.860  13.163 -0.0286 -0.5993 -0.3152
 7607TIP3    H144312   3.587   0.952  13.151 -0.0037 -0.6542 -0.7840
 7607TIP3    H244313   3.701   0.855  13.132  0.5937 -0.4095  1.3692
 7608TIP3   OH244314   5.795   5.124   0.822  0.2960  0.2526 -0.1817
 7608TIP3    H144315   5.785   5.068   0.745  0.4027 -1.1445  0.7928
 7608TIP3    H244316   5.779   5.212   0.790 -0.7736 -0.4227 -1.5786
 7609TIP3   OH244317   1.128   3.351  14.755 -0.0364  0.6654  0.0902
 7609TIP3    H144318   1.161   3.283  14.697  1.7365 -0.3965  2.2475
 7609TIP3    H244319   1.200   3.415  14.760  0.0428  0.4976  1.4409
 7610TIP3   OH244320   0.142   0.533  16.191  0.8210 -0.8139  0.0623
 7610TIP3    H144321   0.222   0.509  16.238  0.5677  1.6757  1.8923
 7610TIP3    H244322   0.157   0.624  16.163 -1.7431  0.0419  1.3539
 7611TIP3   OH244323   2.845   0.141   4.908  0.1765 -0.7243 -1.0124
 7611TIP3    H144324   2.774   0.087   4.942  0.0981  0.2020  0.3127
 7611TIP3    H244325   2.806   0.189   4.835 -0.9585  0.8372  0.5941
 7612TIP3   OH244326   5.736   1.893   2.234 -0.0093  0.3184 -0.2135
 7612TIP3    H144327   5.695   1.921   2.316  1.9005  0.1627  0.8165
 7612TIP3    H244328   5.761   1.975   2.191 -1.2916  0.4102 -0.7996
 7613TIP3   OH244329   3.648   1.080  11.970  0.3237  0.3116 -0.5966
 7613TIP3    H144330   3.554   1.095  11.970  0.2419 -0.1482 -0.0419
 7613TIP3    H244331   3.657   0.986  11.990  0.8442 -0.0596 -2.5281
 7614TIP3   OH244332   4.784   5.620  15.491 -0.2318  0.4070 -0.4452
 7614TIP3    H144333   4.870   5.647  15.457  0.4533 -2.1638 -0.8694
 7614TIP3    H244334   4.774   5.671  15.572  1.2559  1.4667 -0.9022
 7615TIP3   OH244335   0.622   6.728  16.612  0.3815  0.3723 -0.0358
 7615TIP3    H144336   0.574   6.766  16.538  1.0384 -0.1001 -0.7144
 7615TIP3    H244337   0.566   6.658  16.644  0.6774 -0.2746 -0.9201
 7616TIP3   OH244338   4.667   3.452   0.865 -0.1413  0.6372 -0.2478
 7616TIP3    H144339   4.736   3.405   0.817 -0.9320 -1.7902  0.8875
 7616TIP3    H244340   4.616   3.496   0.797  1.8244  1.5155 -1.1867
 7617TIP3   OH244341   5.124   4.534   4.958  0.2516  0.5619 -0.1918
 7617TIP3    H144342   5.035   4.516   4.927 -0.1727  2.0940  0.0961
 7617TIP3    H244343   5.162   4.590   4.891  0.4676  1.1789  0.4420
 7618TIP3   OH244344   5.079   5.382  15.540 -0.3349 -0.2860 -0.1202
 7618TIP3    H144345   5.096   5.305  15.594 -2.2507 -1.5285 -1.2532
 7618TIP3    H244346   5.053   5.347  15.455  0.7722  1.6366 -1.2962
 7619TIP3   OH244347   0.971   4.433  16.289  0.4194  0.1937 -0.1802
 7619TIP3    H144348   0.983   4.343  16.320  0.8509  0.5653  0.7309
 7619TIP3    H244349   0.913   4.424  16.213  0.5823 -0.8678 -0.1872
 7620TIP3   OH244350   3.643   3.178  14.685 -0.3593  0.2165 -0.2621
 7620TIP3    H144351   3.676   3.170  14.775  0.9160 -1.3944 -0.8472
 7620TIP3    H244352   3.580   3.107  14.677  0.0844 -0.1084 -0.8732
 7621TIP3   OH244353   0.616   1.925  12.349 -0.2733  0.0463 -0.5372
 7621TIP3    H144354   0.568   1.846  12.371  1.4573 -1.1403 -0.9049
 7621TIP3    H244355   0.568   1.964  12.276 -1.0671 -0.7282 -0.4226
 7622TIP3   OH244356   0.244   6.362  12.580 -0.1419  0.4872  0.1435
 7622TIP3    H144357   0.264   6.356  12.673  0.5108 -1.3970 -0.0897
 7622TIP3    H244358   0.193   6.284  12.561  0.0250  0.6784 -1.1489
 7623TIP3   OH244359   3.002   4.353  16.697 -0.3361  0.2644  0.3775
 7623TIP3    H144360   2.916   4.351  16.739  0.0902 -1.9126  1.1834
 7623TIP3    H244361   3.061   4.312  16.760  0.9597  0.0954 -0.9151
 7624TIP3   OH244362   6.640   5.466  15.901  0.1042  0.2992 -0.7888
 7624TIP3    H144363   6.703   5.515  15.953 -2.1733  2.2543  0.2044
 7624TIP3    H244364   6.692   5.424  15.833  2.8202 -0.3590  1.6260
 7625TIP3   OH244365   4.506   0.680  14.054  0.2053  0.0534 -0.1606
 7625TIP3    H144366   4.543   0.768  14.052  0.7571 -0.1864 -0.7254
 7625TIP3    H244367   4.507   0.651  13.963  0.1833 -0.6040  0.0416
 7626TIP3   OH244368   3.593   2.861   2.938  0.1840 -0.6087 -0.0791
 7626TIP3    H144369   3.665   2.839   2.996 -0.6497  1.9526  1.9936
 7626TIP3    H244370   3.516   2.864   2.995 -0.7891  1.1398 -1.4451
 7627TIP3   OH244371   3.615   6.482   1.434 -0.4685 -0.6466 -0.1706
 7627TIP3    H144372   3.599   6.396   1.474  0.1565 -0.5388  0.3255
 7627TIP3    H244373   3.532   6.528   1.443 -1.3155 -1.7761 -1.9254
 7628TIP3   OH244374   2.944   1.978  11.666  0.9375 -0.4434 -0.5263
 7628TIP3    H144375   2.876   2.037  11.633  0.0018 -1.7717 -1.0123
 7628TIP3    H244376   2.900   1.894  11.678  2.0126 -0.7942  1.1333
 7629TIP3   OH244377   2.866   1.822  16.991  0.1787 -0.2140 -0.0019
 7629TIP3    H144378   2.934   1.773  17.036  1.5570 -0.3871 -2.1760
 7629TIP3    H244379   2.795   1.759  16.979 -0.1442 -0.1913  1.7752
 7630TIP3   OH244380   2.934   3.774   0.669 -0.0895  0.0772  0.4780
 7630TIP3    H144381   2.988   3.712   0.620 -1.0533 -0.8795  0.5939
 7630TIP3    H244382   2.926   3.850   0.611  0.2942 -0.3091 -0.0835
 7631TIP3   OH244383   3.132   4.857   5.513 -0.4274  0.3267  0.2520
 7631TIP3    H144384   3.215   4.902   5.496 -2.1603  3.0556 -1.2912
 7631TIP3    H244385   3.082   4.918   5.566 -1.9636 -0.7360  0.0554
 7632TIP3   OH244386   5.958   6.400  11.455 -0.1078  0.0376  0.0896
 7632TIP3    H144387   6.002   6.462  11.513  0.0733  0.7035 -0.7397
 7632TIP3    H244388   5.876   6.442  11.432  0.1484  0.1090 -0.7152
 7633TIP3   OH244389   1.247   4.731  14.939  0.0020  0.4209 -0.1040
 7633TIP3    H144390   1.198   4.759  14.861  0.9263 -1.7376 -1.5017
 7633TIP3    H244391   1.338   4.755  14.920  0.2574 -0.2656  0.2348
 7634TIP3   OH244392   5.134   2.476  13.725  0.8284 -0.1604  0.1521
 7634TIP3    H144393   5.190   2.511  13.794 -0.1282  0.6569  0.5155
 7634TIP3    H244394   5.067   2.543  13.711  0.0313 -1.0530 -0.3970
 7635TIP3   OH244395   1.148   6.279  12.414  0.3961 -0.5633  0.5259
 7635TIP3    H144396   1.080   6.329  12.370 -0.4768 -0.6625  1.7416
 7635TIP3    H244397   1.177   6.335  12.487  1.0900 -0.8307  0.4670
 7636TIP3   OH244398   6.448   0.610   4.624 -0.2910 -0.1369  0.3728
 7636TIP3    H144399   6.497   0.584   4.545  0.5081 -0.7426  1.0671
 7636TIP3    H244400   6.447   0.706   4.620 -1.4681 -0.1962 -1.1098
 7637TIP3   OH244401   1.633   3.676  11.942  0.4846  0.0462  0.5100
 7637TIP3    H144402   1.618   3.590  11.903  1.6318  0.2249 -0.3614
 7637TIP3    H244403   1.681   3.657  12.023 -1.2227 -0.2718  1.4585
 7638TIP3   OH244404   6.659   4.765   4.773  0.1532  0.3389  0.1406
 7638TIP3    H144405   6.720   4.817   4.720 -0.6912  0.6961 -0.4855
 7638TIP3    H244406   6.649   4.815   4.853 -0.0048  0.7224 -0.1175
 7639TIP3   OH244407   4.069   1.832   0.295 -0.8750 -0.2713  0.3142
 7639TIP3    H144408   4.013   1.866   0.225  0.3091  0.6229 -0.2100
 7639TIP3    H244409   4.113   1.757   0.256 -1.2168 -0.5951  0.5374
 7640TIP3   OH244410   5.523   1.934  14.538 -0.4309  0.4382  0.1089
 7640TIP3    H144411   5.487   1.998  14.477 -1.8238  0.2307  0.6953
 7640TIP3    H244412   5.600   1.976  14.574  0.0241  0.8254 -1.2912
 7641TIP3   OH244413   0.070   0.946   6.656  0.4033  0.1263  0.2136
 7641TIP3    H144414   0.022   0.919   6.578 -1.4002  0.1722  1.2899
 7641TIP3    H244415   0.004   0.985   6.713  1.6772 -0.0345  1.8404
 7642TIP3   OH244416   6.063   0.662   1.604 -0.6632 -0.2503  0.2193
 7642TIP3    H144417   6.119   0.630   1.533 -1.0991  0.3148 -0.3895
 7642TIP3    H244418   6.123   0.700   1.668 -0.2153 -1.4382  0.5100
 7643TIP3   OH244419   6.111   5.150  11.774  0.2408  0.3071  0.0924
 7643TIP3    H144420   6.069   5.087  11.833  0.3767 -0.1115 -0.2575
 7643TIP3    H244421   6.087   5.120  11.686  1.7297 -0.2432 -0.1251
 7644TIP3   OH244422   4.064   3.075  13.654 -0.4314  0.4064 -0.7841
 7644TIP3    H144423   4.159   3.085  13.647 -0.5804  1.1489 -1.9141
 7644TIP3    H244424   4.037   3.140  13.719 -0.0555 -0.5099  0.3049
 7645TIP3   OH244425   5.905   1.551   4.114 -0.1503  0.1348  0.5867
 7645TIP3    H144426   5.900   1.624   4.052  0.3231  0.1196  0.5277
 7645TIP3    H244427   5.963   1.488   4.072  1.6372  0.9061  1.8373
 7646TIP3   OH244428   0.629   2.307  15.779  0.2669  0.7334 -0.1612
 7646TIP3    H144429   0.577   2.328  15.701  0.2618 -1.0855 -0.6499
 7646TIP3    H244430   0.720   2.323  15.752  0.3584 -1.0206 -0.9149
 7647TIP3   OH244431   4.617   3.855   4.891  0.5688  0.0242  0.2994
 7647TIP3    H144432   4.625   3.910   4.968  2.7144  1.3755 -0.8198
 7647TIP3    H244433   4.607   3.917   4.818  1.9802 -1.0758 -0.8667
 7648TIP3   OH244434   1.344   4.546   1.419 -0.0601  0.0084  0.8578
 7648TIP3    H144435   1.430   4.513   1.393 -0.1781  0.4014 -0.0474
 7648TIP3    H244436   1.354   4.570   1.511  1.1979  1.3799  0.3773
 7649TIP3   OH244437   1.637   3.171   1.587  0.9486  0.1521 -0.1233
 7649TIP3    H144438   1.693   3.248   1.592  0.5164  0.3817  1.6577
 7649TIP3    H244439   1.551   3.203   1.615 -0.4745  0.1477 -4.2174
 7650TIP3   OH244440   5.031   6.655   4.868  0.6705 -0.6379 -0.2852
 7650TIP3    H144441   4.996   6.665   4.780 -1.0519  0.2194  0.4762
 7650TIP3    H244442   5.091   6.730   4.879 -0.3087  0.1374 -0.1758
 7651TIP3   OH244443   6.546   3.875  12.181 -0.0823  0.3575  0.5267
 7651TIP3    H144444   6.618   3.872  12.118  0.4934 -0.5501  1.2198
 7651TIP3    H244445   6.510   3.787  12.180 -0.3288  0.4517  1.1769
 7652TIP3   OH244446   1.882   5.052  15.407  0.9700 -0.0726  0.1805
 7652TIP3    H144447   1.831   5.012  15.477 -0.0689 -0.1099 -0.5751
 7652TIP3    H244448   1.942   4.983  15.379  0.2944 -0.5873 -0.0307
 7653TIP3   OH244449   0.481   5.551   0.184  0.1767 -0.3523 -0.1531
 7653TIP3    H144450   0.449   5.576   0.271  0.1929 -1.2886  0.1305
 7653TIP3    H244451   0.573   5.530   0.198 -0.3833 -2.8612  0.1155
 7654TIP3   OH244452   6.424   0.540  12.331  0.0440 -0.6261  0.0898
 7654TIP3    H144453   6.492   0.598  12.298  0.2112 -1.1487 -0.4905
 7654TIP3    H244454   6.458   0.508  12.415  0.4354 -0.7498 -0.1157
 7655TIP3   OH244455   0.423   4.566   3.097  0.4198 -0.4403  0.3326
 7655TIP3    H144456   0.488   4.627   3.133  0.7423 -0.1601 -0.7194
 7655TIP3    H244457   0.340   4.611   3.110  0.6730  0.3138 -0.6005
 7656TIP3   OH244458   0.626   3.053  14.268  0.0944 -0.3053  0.0235
 7656TIP3    H144459   0.700   3.094  14.314 -0.5583  0.8975  0.0353
 7656TIP3    H244460   0.627   2.962  14.297  0.8964 -0.0327  0.8884
 7657TIP3   OH244461   4.939   4.551   6.214 -0.1730  0.1198  0.1541
 7657TIP3    H144462   4.931   4.513   6.301  2.2674 -1.1862 -0.1506
 7657TIP3    H244463   4.980   4.636   6.229  3.8066 -1.6821  0.0355
 7658TIP3   OH244464   4.149   0.488   1.072  0.5796  0.0499 -0.2252
 7658TIP3    H144465   4.078   0.435   1.038  0.9110 -0.3692 -0.2695
 7658TIP3    H244466   4.118   0.517   1.158  0.7977 -1.0372  0.2257
 7659TIP3   OH244467   4.009   6.348   0.709 -0.0414 -0.1186  0.2800
 7659TIP3    H144468   4.056   6.283   0.761  0.7018  0.4944  0.3731
 7659TIP3    H244469   3.943   6.297   0.662  0.3078 -0.8964  0.6236
 7660TIP3   OH244470   3.190   2.516   0.331 -0.3406  0.0720  0.1015
 7660TIP3    H144471   3.140   2.442   0.297  0.0796 -0.2920  0.2715
 7660TIP3    H244472   3.132   2.557   0.395 -0.1354 -0.8058  0.8641
 7661TIP3   OH244473   2.803   1.609  16.698  0.0844 -0.1782 -0.3536
 7661TIP3    H144474   2.767   1.562  16.622  2.3494 -1.9128 -0.4045
 7661TIP3    H244475   2.754   1.574  16.773  1.4478 -2.3268 -0.4454
 7662TIP3   OH244476   5.985   4.654  13.869  0.3686 -0.8859  0.6451
 7662TIP3    H144477   5.979   4.740  13.912 -0.9728 -0.5538 -0.1682
 7662TIP3    H244478   6.078   4.637  13.861  0.6857  1.3776 -0.9013
 7663TIP3   OH244479   2.456   1.714  15.948  0.7560 -0.4326 -0.8492
 7663TIP3    H144480   2.516   1.752  16.012  1.0533  0.3965 -1.6118
 7663TIP3    H244481   2.451   1.779  15.878 -1.8303 -0.0169 -0.3497
 7664TIP3   OH244482   3.698   5.820  15.898  0.3659  0.3548  0.2696
 7664TIP3    H144483   3.785   5.789  15.873  0.3865  0.0562  0.7082
 7664TIP3    H244484   3.644   5.806  15.820  0.6264  0.2011  0.1166
 7665TIP3   OH244485   1.070   6.655   3.286  0.5770  0.1608 -0.5002
 7665TIP3    H144486   1.073   6.579   3.228 -0.8332  0.2163 -0.6684
 7665TIP3    H244487   0.978   6.682   3.286  0.6139  0.4040  1.4429
 7666TIP3   OH244488   6.135   6.612  11.301  0.0592 -0.2883  0.0678
 7666TIP3    H144489   6.110   6.704  11.290 -1.1304 -0.5277  0.6891
 7666TIP3    H244490   6.146   6.601  11.395  1.5737 -0.4350 -0.1267
 7667TIP3   OH244491   3.326   6.132  16.992  0.3146  0.3767 -0.6044
 7667TIP3    H144492   3.264   6.060  16.995  0.4734  0.2293 -0.9410
 7667TIP3    H244493   3.399   6.100  16.939  0.1351  0.9815 -1.2162
 7668TIP3   OH244494   1.522   3.175   4.294 -0.0697 -0.2357 -0.2503
 7668TIP3    H144495   1.601   3.153   4.343 -0.8447 -2.2161  0.1956
 7668TIP3    H244496   1.500   3.264   4.321  0.9058 -0.3951  1.1218
 7669TIP3   OH244497   2.204   6.226  13.441 -0.0991 -0.0098  0.2596
 7669TIP3    H144498   2.159   6.261  13.364  0.4769  1.0992  0.4098
 7669TIP3    H244499   2.274   6.171  13.405 -0.5421 -0.4046  0.0051
 7670TIP3   OH244500   3.834   0.894  12.996 -0.2159 -0.0456 -0.6127
 7670TIP3    H144501   3.889   0.947  13.053 -1.3990 -0.1499  0.6367
 7670TIP3    H244502   3.791   0.957  12.938  0.1118  0.1583 -0.6347
 7671TIP3   OH244503   1.015   5.183   1.366  0.0363 -0.4842  1.0607
 7671TIP3    H144504   1.093   5.155   1.414 -0.5481 -1.6710  1.3463
 7671TIP3    H244505   0.965   5.102   1.352  0.0736 -0.1449 -1.3274
 7672TIP3   OH244506   4.441   0.426  15.152  0.1448 -0.8148 -0.1221
 7672TIP3    H144507   4.464   0.343  15.112  0.0610 -0.4135 -1.0143
 7672TIP3    H244508   4.520   0.480  15.143 -0.0583 -0.5362 -0.2460
 7673TIP3   OH244509   2.312   6.011   0.027 -0.2064 -0.1315  0.4441
 7673TIP3    H144510   2.219   5.993   0.011 -0.4516  1.1202  0.4070
 7673TIP3    H244511   2.320   6.106   0.017  1.0725 -0.2278  0.4852
 7674TIP3   OH244512   0.440   3.758   1.759 -0.1577  0.4077  0.0668
 7674TIP3    H144513   0.504   3.827   1.777  0.4552 -0.0891 -0.1954
 7674TIP3    H244514   0.365   3.803   1.721  0.6010  0.8103 -0.9348
 7675TIP3   OH244515   2.675   6.108  15.065 -0.0052  0.0992  0.3968
 7675TIP3    H144516   2.702   6.200  15.062 -3.1473  1.0464 -1.0327
 7675TIP3    H244517   2.724   6.066  14.994 -0.0736  1.1347 -0.2788
 7676TIP3   OH244518   4.567   5.329  16.050  0.2332  0.2315 -0.3589
 7676TIP3    H144519   4.511   5.350  16.125 -0.2857  0.9767 -0.9406
 7676TIP3    H244520   4.643   5.285  16.088 -0.6735 -0.6600  0.4571
 7677TIP3   OH244521   4.063   5.681   1.204 -0.0469 -0.0124 -0.7441
 7677TIP3    H144522   4.118   5.750   1.165  0.9051 -1.5263 -2.1298
 7677TIP3    H244523   3.983   5.681   1.152 -0.2178  0.2946 -0.4882
 7678TIP3   OH244524   6.689   0.865  12.059  0.1376 -0.2917 -0.0095
 7678TIP3    H144525   6.608   0.824  12.027 -0.4915  0.4878  0.5504
 7678TIP3    H244526   6.723   0.804  12.124  0.2494 -0.8395 -0.5759
 7679TIP3   OH244527   0.328   5.048   2.866 -0.2326  0.2016 -0.5592
 7679TIP3    H144528   0.403   5.013   2.913 -0.3773 -1.3495 -1.4447
 7679TIP3    H244529   0.361   5.129   2.826  0.6429  0.1203 -0.0204
 7680TIP3   OH244530   5.871   0.587   4.741 -0.1361 -0.3893 -0.0345
 7680TIP3    H144531   5.883   0.676   4.773 -1.2030 -0.4093  0.4552
 7680TIP3    H244532   5.919   0.584   4.658 -1.1498  1.0205 -0.6934
 7681TIP3   OH244533   6.809   3.091  11.926 -0.1681  0.2540  0.6345
 7681TIP3    H144534   6.829   3.021  11.989  0.4238 -0.1874 -0.0276
 7681TIP3    H244535   6.836   3.171  11.971  0.4989 -0.0788  0.8522
 7682TIP3   OH244536   4.810   2.455   0.657  0.3694 -0.0228  0.0678
 7682TIP3    H144537   4.872   2.429   0.589 -0.5927 -0.0347 -0.8273
 7682TIP3    H244538   4.808   2.381   0.718  0.2918 -0.5659 -0.5843
 7683TIP3   OH244539   4.384   5.972   2.028  0.1495  0.1436 -0.9768
 7683TIP3    H144540   4.388   5.877   2.017  0.2951  0.1049 -0.6003
 7683TIP3    H244541   4.291   5.990   2.043  0.3901 -0.1686  0.9878
 7684TIP3   OH244542   6.586   6.321  12.410 -0.2040  0.6192 -0.5214
 7684TIP3    H144543   6.545   6.310  12.496 -1.1166  0.6191 -0.9587
 7684TIP3    H244544   6.551   6.249  12.357  2.9491 -1.4505  0.0743
 7685TIP3   OH244545   3.733   4.896  11.567  0.0821 -0.1074  0.3411
 7685TIP3    H144546   3.815   4.935  11.537 -0.3673  0.7874  0.2485
 7685TIP3    H244547   3.715   4.825  11.505  1.2253 -0.8604  0.8694
 7686TIP3   OH244548   0.808   4.676  12.374  0.1397  0.1924  0.5030
 7686TIP3    H144549   0.885   4.619  12.368  0.2676  0.3741  0.4468
 7686TIP3    H244550   0.772   4.675  12.285 -0.4522 -0.6374  0.7383
 7687TIP3   OH244551   0.281   5.945  11.338  0.2531 -0.0324  0.1532
 7687TIP3    H144552   0.257   6.004  11.267 -0.5466 -0.3925  0.1227
 7687TIP3    H244553   0.298   6.002  11.413  1.3558  0.3671 -0.3904
 7688TIP3   OH244554   3.280   1.148   3.836 -0.2453  0.3399 -0.2540
 7688TIP3    H144555   3.210   1.207   3.812 -0.6393 -1.0743 -2.8410
 7688TIP3    H244556   3.312   1.113   3.752 -1.3239 -4.5359  1.2017
 7689TIP3   OH244557   1.849   3.430   0.112  0.1180 -0.1568  0.0493
 7689TIP3    H144558   1.773   3.489   0.118 -0.6804 -1.2524  0.8662
 7689TIP3    H244559   1.832   3.379   0.032 -0.9335 -1.6324  1.1715
 7690TIP3   OH244560   3.155   1.071   1.049 -0.1361  0.2331  0.0300
 7690TIP3    H144561   3.074   1.098   1.005 -0.1050  1.0863  0.4950
 7690TIP3    H244562   3.224   1.088   0.986 -0.2018  0.5086  0.0321
 7691TIP3   OH244563   0.828   2.128  15.493  0.1243 -0.0074  0.1633
 7691TIP3    H144564   0.733   2.118  15.500  0.2922  0.0930  2.8550
 7691TIP3    H244565   0.845   2.215  15.527  1.1240  0.3335 -1.1650
 7692TIP3   OH244566   0.677   5.378  12.280 -0.0699 -0.7067  0.2681
 7692TIP3    H144567   0.634   5.318  12.219 -0.1992  0.9969 -1.3602
 7692TIP3    H244568   0.607   5.406  12.340 -1.0148  1.1462 -1.6522
 7693TIP3   OH244569   3.728   0.772  12.279  0.0880  0.0413  0.1509
 7693TIP3    H144570   3.799   0.798  12.338 -0.4896  1.8269  0.0925
 7693TIP3    H244571   3.756   0.803  12.193  0.6065 -1.9368 -0.4054
 7694TIP3   OH244572   2.946   0.316  17.184  0.2562 -0.4028  0.1544
 7694TIP3    H144573   2.906   0.281  17.263  0.2787 -0.0519  0.3248
 7694TIP3    H244574   3.025   0.362  17.215 -1.3690  2.4283  0.3230
 7695TIP3   OH244575   4.254   1.264  15.328  0.4728 -0.3515 -0.2670
 7695TIP3    H144576   4.187   1.300  15.270  0.0416 -2.8139 -1.3735
 7695TIP3    H244577   4.319   1.225  15.270  0.8734 -1.4192  0.8641
 7696TIP3   OH244578   1.131   0.558  13.282 -0.0639  0.5401 -0.0879
 7696TIP3    H144579   1.039   0.582  13.275  0.2144  1.6548  0.0598
 7696TIP3    H244580   1.179   0.638  13.261  0.8650  0.2358  0.8314
 7697TIP3   OH244581   2.520   1.083  12.963  0.2501  0.0076  0.2015
 7697TIP3    H144582   2.453   1.064  12.897 -0.0179  0.9325  0.1915
 7697TIP3    H244583   2.526   1.179  12.964 -0.1622  0.0359  1.9189
 7698TIP3   OH244584   6.229   2.436   0.675  0.4522  0.2379  0.7868
 7698TIP3    H144585   6.268   2.379   0.609  0.6193  0.5718  0.5970
 7698TIP3    H244586   6.243   2.390   0.758  0.5479 -0.0169  0.6289
 7699TIP3   OH244587   3.486   6.419   4.370 -0.0567  0.3168 -0.2335
 7699TIP3    H144588   3.419   6.459   4.425  0.4242  0.9464 -0.0990
 7699TIP3    H244589   3.566   6.470   4.389  0.4582 -0.4272 -0.3798
 7700TIP3   OH244590   6.817   5.552  16.897 -0.3698 -0.2767 -0.1009
 7700TIP3    H144591   6.778   5.633  16.930 -2.4832 -0.3419 -2.3581
 7700TIP3    H244592   6.742   5.495  16.878  1.0862 -3.0729  2.0742
 7701TIP3   OH244593   1.168   4.081   2.392  0.3656 -0.1756  0.2771
 7701TIP3    H144594   1.145   4.164   2.433  0.6002 -0.5399  1.1571
 7701TIP3    H244595   1.251   4.100   2.346  0.5619  0.0025  0.7021
 7702TIP3   OH244596   4.595   2.608   5.418  0.0854  0.3864  0.0913
 7702TIP3    H144597   4.561   2.689   5.457  0.3920  0.0776  1.0041
 7702TIP3    H244598   4.567   2.612   5.327 -0.1904  1.3659  0.2152
 7703TIP3   OH244599   2.451   3.920  13.519  0.1444 -0.4236  0.3251
 7703TIP3    H144600   2.356   3.913  13.507  0.3175  0.9430 -2.2484
 7703TIP3    H244601   2.482   3.964  13.440  2.7088  0.8311  1.9587
 7704TIP3   OH244602   1.043   0.039   1.978 -0.2122 -0.1307 -0.5607
 7704TIP3    H144603   0.999   0.102   2.036 -0.3210  0.4064 -1.2222
 7704TIP3    H244604   1.055  -0.039   2.032 -2.0499 -0.3151 -0.3853
 7705TIP3   OH244605   2.561   3.371  13.523 -0.0605  0.2113 -0.3499
 7705TIP3    H144606   2.517   3.331  13.449 -0.0653 -0.6016  0.0840
 7705TIP3    H244607   2.514   3.453  13.537 -0.2965  0.1926 -1.0094
 7706TIP3   OH244608   6.632   1.941   5.660 -0.1395  0.2483  0.0155
 7706TIP3    H144609   6.571   1.934   5.734 -0.3933  0.6977 -0.1481
 7706TIP3    H244610   6.624   2.032   5.631 -0.6063 -0.1260 -1.0531
 7707TIP3   OH244611   2.027   0.299   3.365 -0.2033  0.6535  0.6559
 7707TIP3    H144612   2.113   0.259   3.356  0.1781  1.3074  1.2642
 7707TIP3    H244613   1.965   0.227   3.355  0.3916  0.2889 -0.4368
 7708TIP3   OH244614   2.689   4.910   2.620  0.2056 -0.0079 -0.0255
 7708TIP3    H144615   2.594   4.910   2.612 -0.0168 -0.6724  2.1303
 7708TIP3    H244616   2.708   4.834   2.676  1.9797  0.2458 -0.2426
 7709TIP3   OH244617   2.914   6.717   5.544  1.0820 -0.5612 -0.0478
 7709TIP3    H144618   2.932   6.759   5.460  2.3811 -2.5248 -0.7841
 7709TIP3    H244619   2.962   6.770   5.607  1.7866 -0.2762 -0.8101
 7710TIP3   OH244620   4.299   4.416   2.425  0.0844 -0.6074  0.3212
 7710TIP3    H144621   4.251   4.388   2.503  0.1934 -1.6697  0.0182
 7710TIP3    H244622   4.384   4.374   2.433  0.7095  0.6710  0.4827
 7711TIP3   OH244623   0.904   3.545   5.150 -0.0798  0.3794  0.6192
 7711TIP3    H144624   0.821   3.540   5.103  1.7029 -1.0984 -2.6046
 7711TIP3    H244625   0.934   3.635   5.136  0.6874 -0.1822 -1.7223
 7712TIP3   OH244626   2.785   6.509   6.265 -0.5028 -0.1260  0.0978
 7712TIP3    H144627   2.714   6.505   6.330 -0.8272  0.2681 -0.2302
 7712TIP3    H244628   2.777   6.428   6.216  0.5685 -1.0435  1.4047
 7713TIP3   OH244629   5.111   3.985  15.796 -0.5970 -0.1065 -0.7610
 7713TIP3    H144630   5.122   4.034  15.715 -2.6376  1.1028 -0.3363
 7713TIP3    H244631   5.025   3.944  15.788 -0.7983 -0.0052  0.7807
 7714TIP3   OH244632   3.363   1.482  15.782 -0.6692  0.0894 -0.6623
 7714TIP3    H144633   3.371   1.389  15.760  0.2611  0.1745 -0.7031
 7714TIP3    H244634   3.447   1.504  15.822 -1.6622  0.3764  1.3505
 7715TIP3   OH244635   1.012   0.536   0.749 -0.2875  0.0536 -0.5995
 7715TIP3    H144636   0.958   0.589   0.691 -0.1858 -0.4613 -1.1743
 7715TIP3    H244637   1.100   0.570   0.738 -0.6457  1.6222  1.1708
 7716TIP3   OH244638   2.807   3.416  12.713  0.0514 -0.4254 -0.1060
 7716TIP3    H144639   2.757   3.358  12.655  1.6405 -0.6269 -1.3065
 7716TIP3    H244640   2.847   3.480  12.654  0.8857 -0.0233  0.8870
 7717TIP3   OH244641   6.767   2.850   3.485  0.4545  0.3342 -0.0148
 7717TIP3    H144642   6.711   2.924   3.462  1.1790  1.2661  1.1612
 7717TIP3    H244643   6.830   2.886   3.548  0.5401 -1.3814  0.9189
 7718TIP3   OH244644   5.932   4.517   2.323 -0.3782  0.7280 -0.5798
 7718TIP3    H144645   5.988   4.503   2.399 -0.2726 -0.0479 -0.7924
 7718TIP3    H244646   5.846   4.537   2.360 -1.7794 -5.1602 -0.0998
 7719TIP3   OH244647   2.882   4.407  12.124  0.2807 -0.3596 -0.0731
 7719TIP3    H144648   2.839   4.371  12.047 -0.1742  0.7625 -0.3556
 7719TIP3    H244649   2.903   4.331  12.178  2.1778 -1.3139 -2.1046
 7720TIP3   OH244650   5.985   1.360  12.183 -0.4813 -0.5762 -0.1356
 7720TIP3    H144651   5.982   1.454  12.163  0.5408 -0.5867 -0.3496
 7720TIP3    H244652   6.017   1.320  12.103 -1.1574 -1.1414 -0.1240
 7721TIP3   OH244653   4.220   6.595   4.007  0.0775  0.1665 -0.0750
 7721TIP3    H144654   4.272   6.584   3.927  0.7840  2.5049  0.0378
 7721TIP3    H244655   4.274   6.559   4.076  0.2941 -0.0871 -0.3752
 7722TIP3   OH244656   2.515   1.414   2.548 -0.0296 -0.7458  0.6140
 7722TIP3    H144657   2.498   1.327   2.513  0.5381 -0.3335 -0.7724
 7722TIP3    H244658   2.574   1.454   2.483 -0.2288  0.6334  1.2598
 7723TIP3   OH244659   1.730   5.639  13.902  0.4520 -0.1463 -0.3559
 7723TIP3    H144660   1.646   5.658  13.859 -0.1307 -0.8888  0.4148
 7723TIP3    H244661   1.758   5.723  13.938  1.4470  0.6995 -3.0124
 7724TIP3   OH244662   6.730   5.430  12.689 -0.0131  0.2734  0.2867
 7724TIP3    H144663   6.821   5.401  12.692 -1.0626 -3.2122  0.8277
 7724TIP3    H244664   6.704   5.417  12.598 -0.4087 -0.2254  0.4698
 7725TIP3   OH244665   6.025   1.737  15.941 -0.3606  0.4654  0.7463
 7725TIP3    H144666   6.025   1.651  15.982  0.7788  0.8776  1.6701
 7725TIP3    H244667   6.060   1.722  15.854  0.2671  0.0449  1.0650
 7726TIP3   OH244668   1.215   2.265   0.571 -0.5067  0.0693 -0.0932
 7726TIP3    H144669   1.311   2.264   0.574 -0.5358  1.5198  2.7949
 7726TIP3    H244670   1.194   2.339   0.513  0.0690 -1.0184 -1.7464
 7727TIP3   OH244671   5.565   0.608   4.308 -0.1658 -0.5441 -0.5502
 7727TIP3    H144672   5.642   0.658   4.282 -1.9203  2.2096 -0.6595
 7727TIP3    H244673   5.518   0.593   4.225 -0.0682 -1.6960 -0.4068
 7728TIP3   OH244674   4.968   3.931   5.448  0.2027  0.3310  0.5525
 7728TIP3    H144675   4.915   3.947   5.370  0.1992 -1.8556  0.0660
 7728TIP3    H244676   4.921   3.862   5.495  0.5459  1.1863  2.1738
 7729TIP3   OH244677   4.394   5.145   6.147  0.1409  0.2987  0.0837
 7729TIP3    H144678   4.371   5.237   6.157  1.2845  0.4483  1.4247
 7729TIP3    H244679   4.340   5.099   6.212  1.3717  0.3162  1.1411
 7730TIP3   OH244680   6.769   1.448  16.612  0.1056  0.7404  0.1441
 7730TIP3    H144681   6.734   1.384  16.550  1.7664 -0.7295  0.7054
 7730TIP3    H244682   6.776   1.529  16.560 -0.7385  0.1554 -0.9270
 7731TIP3   OH244683   0.101   1.666   2.015 -0.0238 -0.0316  0.6848
 7731TIP3    H144684   0.058   1.595   1.968 -0.1191  0.3248  0.2316
 7731TIP3    H244685   0.179   1.626   2.053  1.6506  0.3129 -2.2316
 7732TIP3   OH244686   5.283   6.246  15.270  0.0367  0.7587 -0.4708
 7732TIP3    H144687   5.369   6.242  15.311 -0.3634  1.7743  0.4925
 7732TIP3    H244688   5.293   6.311  15.201  0.3295  0.0842 -1.0677
 7733TIP3   OH244689   3.661   3.857  15.068 -0.1676  0.7071 -0.8967
 7733TIP3    H144690   3.674   3.822  15.157  2.4955 -0.6303 -1.7483
 7733TIP3    H244691   3.571   3.889  15.068 -1.5586 -2.8555  1.1032
 7734TIP3   OH244692   5.189   6.189   0.541 -0.2902 -0.3746 -0.4173
 7734TIP3    H144693   5.202   6.284   0.543 -0.5318 -0.3555  0.6184
 7734TIP3    H244694   5.256   6.155   0.600 -0.7103 -0.7825 -0.1730
 7735TIP3   OH244695   2.718   0.476  16.632 -0.0843  0.1383  0.4195
 7735TIP3    H144696   2.635   0.459  16.677 -0.4985  0.2548 -0.2835
 7735TIP3    H244697   2.698   0.547  16.571  0.9028  1.1340  1.2534
 7736TIP3   OH244698   1.146   0.203  12.702 -0.3477 -0.2150 -0.0433
 7736TIP3    H144699   1.106   0.288  12.682  0.0586 -0.1194 -0.4558
 7736TIP3    H244700   1.072   0.146  12.724 -0.7595 -0.1848 -1.3283
 7737TIP3   OH244701   1.749   4.695  15.366 -0.4087 -0.0491 -0.0801
 7737TIP3    H144702   1.794   4.757  15.424  0.8850 -0.4492 -0.6316
 7737TIP3    H244703   1.773   4.609  15.400 -1.1839 -0.2621 -0.0747
 7738TIP3   OH244704   4.378   3.914  11.585  0.3787  0.5720  0.1105
 7738TIP3    H144705   4.394   4.008  11.576  0.8140  0.4403 -0.5651
 7738TIP3    H244706   4.392   3.879  11.496 -1.6504  0.1464 -0.0497
 7739TIP3   OH244707   1.863   1.727  15.773 -0.0749 -0.1655  0.0561
 7739TIP3    H144708   1.797   1.776  15.822 -0.7988 -0.2896 -0.7805
 7739TIP3    H244709   1.936   1.788  15.763  0.1510 -0.2005  1.4343
 7740TIP3   OH244710   1.273   5.628   4.443  0.0122  0.4879 -0.6181
 7740TIP3    H144711   1.343   5.647   4.506 -1.4587  2.1885  0.5332
 7740TIP3    H244712   1.286   5.690   4.372  0.5466 -0.1878 -1.1205
 7741TIP3   OH244713   3.134   2.936  14.838  0.0237  0.2964 -0.1967
 7741TIP3    H144714   3.187   3.008  14.803  0.3818  0.7791  1.3044
 7741TIP3    H244715   3.064   2.979  14.886 -0.8896 -0.3604 -0.9403
 7742TIP3   OH244716   1.668   1.745   4.397  0.2082 -0.3485 -0.4342
 7742TIP3    H144717   1.574   1.755   4.384  0.4021  0.7075 -1.1045
 7742TIP3    H244718   1.685   1.789   4.481 -0.3933 -3.4769  1.3969
 7743TIP3   OH244719   3.577   1.434  15.429  0.3761  0.5507 -0.2441
 7743TIP3    H144720   3.613   1.463  15.513 -1.3974 -1.2682  1.1742
 7743TIP3    H244721   3.654   1.406  15.379  1.2768 -0.0953  1.4690
 7744TIP3   OH244722   2.945   2.248   1.447  0.5401  0.0614  0.4898
 7744TIP3    H144723   2.879   2.226   1.512  0.8791  0.1703  0.8697
 7744TIP3    H244724   2.985   2.164   1.424  0.0444 -0.0460  0.0174
 7745TIP3   OH244725   5.920   4.755  12.360 -0.5173  0.0630 -0.6385
 7745TIP3    H144726   5.911   4.693  12.432 -0.8432  0.9619  0.1038
 7745TIP3    H244727   5.848   4.733  12.301  0.2563 -1.2230 -1.1171
 7746TIP3   OH244728   4.331   6.165  13.444 -0.1923 -0.0705 -0.4387
 7746TIP3    H144729   4.247   6.207  13.461  0.3860  1.5983 -1.4628
 7746TIP3    H244730   4.331   6.148  13.350 -0.1164 -1.7342 -0.1450
 7747TIP3   OH244731   0.493   5.230  12.128  0.6094 -0.3260 -0.0283
 7747TIP3    H144732   0.407   5.268  12.109  0.7535  0.6508  1.1910
 7747TIP3    H244733   0.529   5.208  12.043 -0.5515 -0.0612 -0.5932
 7748TIP3   OH244734   5.417   5.859  11.137 -0.1750  0.2001  0.1385
 7748TIP3    H144735   5.398   5.929  11.073 -1.1203 -0.1067  0.0764
 7748TIP3    H244736   5.497   5.818  11.104 -1.1779 -0.5765 -1.3957
 7749TIP3   OH244737   5.824   5.327  11.548  0.0138  0.3240 -0.0019
 7749TIP3    H144738   5.846   5.289  11.633 -1.3932 -0.9677 -0.1963
 7749TIP3    H244739   5.797   5.416  11.568 -0.6168 -0.0688  0.9449
 7750TIP3   OH244740   0.712   0.789  13.813  0.0526  0.4145  0.1986
 7750TIP3    H144741   0.668   0.832  13.740  1.2796  0.0242 -0.7714
 7750TIP3    H244742   0.728   0.860  13.876 -0.8952  0.7672  0.0616
 7751TIP3   OH244743   0.984   0.552  14.097 -0.2903 -0.1198  0.5219
 7751TIP3    H144744   0.983   0.558  14.001 -2.7148  1.0994  0.5575
 7751TIP3    H244745   1.048   0.485  14.117 -0.5222 -1.1544 -2.0328
 7752TIP3   OH244746   5.211   3.863   5.189 -0.2708 -0.1261  0.2027
 7752TIP3    H144747   5.218   3.902   5.102  3.9184 -1.5713 -0.2317
 7752TIP3    H244748   5.230   3.936   5.249 -0.6602  0.3159 -0.2068
 7753TIP3   OH244749   2.828   5.988   2.624  0.3413 -0.4205 -0.4382
 7753TIP3    H144750   2.909   5.950   2.590  1.2007 -0.8862  1.9665
 7753TIP3    H244751   2.847   6.007   2.716 -2.3394 -0.7204  0.2430
 7754TIP3   OH244752   6.458   6.780   5.767  0.2033 -0.2090 -0.0858
 7754TIP3    H144753   6.520   6.795   5.838  0.2027 -1.5694  0.2280
 7754TIP3    H244754   6.431   6.867   5.739  0.9004  0.3543  0.9680
 7755TIP3   OH244755   0.660   6.819   3.261 -0.6631  0.1705  0.0926
 7755TIP3    H144756   0.731   6.863   3.306 -1.6823  2.9250 -0.9160
 7755TIP3    H244757   0.608   6.780   3.332 -0.2416  1.3468  1.0681
 7756TIP3   OH244758   1.121   3.565   4.617  0.2073 -0.1625  0.4552
 7756TIP3    H144759   1.110   3.621   4.693  1.3145  0.2870  0.2841
 7756TIP3    H244760   1.210   3.530   4.624 -0.4229 -1.8107  0.5005
 7757TIP3   OH244761   6.223   0.496  15.321 -0.0988 -0.0882  0.2006
 7757TIP3    H144762   6.243   0.566  15.260  0.9108 -0.3782  0.1836
 7757TIP3    H244763   6.159   0.441  15.275  0.1612  0.0542 -0.3364
 7758TIP3   OH244764   3.462   6.070   5.974  0.2542 -0.7335 -1.0813
 7758TIP3    H144765   3.540   6.115   5.939  0.3326  0.5790  0.6884
 7758TIP3    H244766   3.478   5.977   5.958  1.3618 -0.3328 -2.3672
 7759TIP3   OH244767   1.031   0.109   5.580  0.5066  0.0181 -0.0276
 7759TIP3    H144768   1.032   0.075   5.670  0.6162 -0.4412 -0.2058
 7759TIP3    H244769   0.986   0.042   5.529 -1.4960  1.2401  0.0744
 7760TIP3   OH244770   3.706   4.788  16.022 -0.0283  0.0341 -0.0930
 7760TIP3    H144771   3.659   4.806  16.104  1.6998  0.2183  0.8662
 7760TIP3    H244772   3.661   4.843  15.957  0.8306  2.6299  1.4370
 7761TIP3   OH244773   3.304   5.475  11.062 -0.3188  0.1647  0.0504
 7761TIP3    H144774   3.240   5.488  11.133 -1.2818  0.9418 -0.9499
 7761TIP3    H244775   3.276   5.394  11.020 -1.3037  1.0811 -1.0730
 7762TIP3   OH244776   6.363   0.543   0.341 -0.1680 -0.0599 -0.5139
 7762TIP3    H144777   6.420   0.478   0.300  1.3168  1.8753 -1.6449
 7762TIP3    H244778   6.414   0.577   0.415 -1.9747 -1.9931  1.6722
 7763TIP3   OH244779   0.460   2.786  15.836  0.7078 -0.4998 -0.6376
 7763TIP3    H144780   0.463   2.881  15.846 -0.6648 -0.3023 -2.0563
 7763TIP3    H244781   0.383   2.759  15.887  1.6949 -0.9787  0.6312
 7764TIP3   OH244782   5.204   0.909   0.006 -0.0778 -0.2144 -0.7253
 7764TIP3    H144783   5.188   0.829   0.055 -0.2256  0.3112  0.0810
 7764TIP3    H244784   5.175   0.889  -0.083  0.1856 -1.1560 -0.5971
 7765TIP3   OH244785   1.374   3.487   2.684 -0.0000  0.5646 -0.4278
 7765TIP3    H144786   1.321   3.418   2.723 -0.4205  1.1166 -0.0289
 7765TIP3    H244787   1.436   3.512   2.752  0.1823  0.5529 -0.5872
 7766TIP3   OH244788   2.633   1.707   2.798  0.0312 -0.2263 -0.1929
 7766TIP3    H144789   2.718   1.670   2.775  0.1373  0.7420 -1.4600
 7766TIP3    H244790   2.603   1.749   2.717 -1.9266 -1.0643  0.0665
 7767TIP3   OH244791   3.735   3.069  14.978  0.1486  0.1728 -0.5524
 7767TIP3    H144792   3.670   2.999  14.988  0.6695 -0.5230 -1.8519
 7767TIP3    H244793   3.755   3.097  15.068 -0.3996 -1.0480 -0.0428
 7768TIP3   OH244794   1.137   5.254  16.908 -0.2141  0.3441  1.3380
 7768TIP3    H144795   1.216   5.307  16.918  0.1660  0.4160 -1.8039
 7768TIP3    H244796   1.169   5.166  16.888 -0.9197  0.7175 -1.5464
 7769TIP3   OH244797   6.415   3.654   3.187 -0.2046 -0.4849  0.2221
 7769TIP3    H144798   6.389   3.625   3.275  0.3482 -0.9166  0.2471
 7769TIP3    H244799   6.347   3.716   3.161  0.6940  1.2035  1.7866
 7770TIP3   OH244800   0.563   1.251   3.423  0.0765  0.2570  0.3078
 7770TIP3    H144801   0.634   1.311   3.446  1.2007 -0.3719 -1.3925
 7770TIP3    H244802   0.580   1.229   3.332 -1.8403 -0.5762  0.1391
 7771TIP3   OH244803   5.168   2.331  14.395 -0.2048 -0.0466 -0.2356
 7771TIP3    H144804   5.113   2.258  14.426 -1.5362  1.1745  0.3095
 7771TIP3    H244805   5.134   2.352  14.309 -0.0469  0.1756 -0.2426
 7772TIP3   OH244806   2.634   0.510  12.711  0.2455  0.2869  0.1774
 7772TIP3    H144807   2.571   0.514  12.638  0.5225 -0.1207 -0.0874
 7772TIP3    H244808   2.590   0.456  12.777  0.5380 -0.4332 -0.2226
 7773TIP3   OH244809   1.380   3.853  11.057 -0.5719  0.1369 -0.4887
 7773TIP3    H144810   1.441   3.894  11.119 -3.1240  0.3634  1.9275
 7773TIP3    H244811   1.375   3.916  10.984  0.7088  0.9339  0.0901
 7774TIP3   OH244812   4.141   4.627   3.648 -0.2377 -0.4188  0.5278
 7774TIP3    H144813   4.052   4.635   3.616  0.0629  2.7485  0.2932
 7774TIP3    H244814   4.184   4.567   3.587 -1.8664 -1.0194 -0.0344
 7775TIP3   OH244815   1.293   2.815  10.930 -0.4258  0.3232  0.1023
 7775TIP3    H144816   1.339   2.864  10.998  0.3104 -0.0667 -0.0997
 7775TIP3    H244817   1.282   2.728  10.967  0.0772  0.0783 -0.3100
 7776TIP3   OH244818   0.050   3.105  16.470 -0.2706  0.4307 -0.2444
 7776TIP3    H144819   0.047   3.027  16.414 -1.1621  0.1166  0.2337
 7776TIP3    H244820   0.091   3.172  16.415 -0.0835 -0.1976 -0.8795
 7777TIP3   OH244821   3.672   3.180  14.409  0.4694  0.2285  0.1437
 7777TIP3    H144822   3.762   3.150  14.408  0.7658  1.0828 -1.7763
 7777TIP3    H244823   3.648   3.183  14.501  2.6644  0.7360  0.7239
 7778TIP3   OH244824   3.735   1.089   3.798  0.6288  0.8265 -0.5356
 7778TIP3    H144825   3.819   1.056   3.766 -0.5577 -2.2748 -0.7075
 7778TIP3    H244826   3.684   1.107   3.719  0.4787  0.8873 -0.4247
 7779TIP3   OH244827   1.614   2.014   1.031  0.2965  0.2268 -0.1545
 7779TIP3    H144828   1.695   2.064   1.022  0.5979 -0.2937 -0.3879
 7779TIP3    H244829   1.574   2.047   1.111 -0.5645  2.3298 -1.4219
 7780TIP3   OH244830   2.831   0.217   0.138  0.1129  0.2724  0.1067
 7780TIP3    H144831   2.752   0.265   0.162 -0.0215  0.0965  0.0164
 7780TIP3    H244832   2.828   0.138   0.191  0.6699  0.6678  0.7416
 7781TIP3   OH244833   3.252   2.132   5.765 -0.9468  0.2688  0.2939
 7781TIP3    H144834   3.211   2.046   5.775 -0.9866  0.2564  0.0316
 7781TIP3    H244835   3.180   2.194   5.768 -0.9645  0.2623  0.0547
 7782TIP3   OH244836   4.082   4.981   4.837  0.0441 -0.1899  0.3804
 7782TIP3    H144837   4.114   5.020   4.918 -0.2551  0.2029  0.3127
 7782TIP3    H244838   4.033   5.052   4.794  0.3893 -0.3251 -0.2471
 7783TIP3   OH244839   1.815   2.258   4.021  0.3595 -0.6449 -0.2080
 7783TIP3    H144840   1.838   2.246   4.113  1.4013 -0.8083 -0.4888
 7783TIP3    H244841   1.825   2.171   3.983  0.9838 -0.3571 -0.7047
 7784TIP3   OH244842   5.954   2.467  16.868 -0.1314 -0.4637 -0.3282
 7784TIP3    H144843   5.934   2.499  16.781 -0.3240  0.4634  0.0582
 7784TIP3    H244844   5.988   2.378  16.854 -0.0488 -0.2696 -1.3431
 7785TIP3   OH244845   5.183   3.209  13.532  0.1891  0.2306  0.0693
 7785TIP3    H144846   5.139   3.270  13.592 -0.3270  0.2691 -0.3412
 7785TIP3    H244847   5.205   3.262  13.456 -1.2600 -0.3226 -0.7632
 7786TIP3   OH244848   1.595   5.454   2.706  0.1647  0.8586 -0.1112
 7786TIP3    H144849   1.563   5.534   2.747 -1.1634  0.5303 -0.5095
 7786TIP3    H244850   1.556   5.383   2.757  0.3833  0.4560 -0.4995
 7787TIP3   OH244851   6.697   1.068  17.052 -0.1793 -0.0176 -0.2366
 7787TIP3    H144852   6.727   0.978  17.068 -0.5307  0.1147  1.2359
 7787TIP3    H244853   6.725   1.087  16.963 -1.5740 -2.2184 -1.2015
 7788TIP3   OH244854   4.412   1.909   2.565  0.4005 -0.0767 -0.8759
 7788TIP3    H144855   4.417   1.973   2.493  0.5106 -0.2984 -1.0650
 7788TIP3    H244856   4.329   1.928   2.608 -0.2331 -0.7314 -1.8030
 7789TIP3   OH244857   2.213   6.004   0.656  0.7316  0.0909  0.2818
 7789TIP3    H144858   2.258   6.089   0.658  0.7807  0.1222 -1.2140
 7789TIP3    H244859   2.283   5.939   0.662  0.7935  0.1466  0.1491
 7790TIP3   OH244860   3.767   3.686   4.467  0.0942 -0.4300 -0.4422
 7790TIP3    H144861   3.801   3.770   4.497 -3.0746  1.3397 -1.5993
 7790TIP3    H244862   3.805   3.675   4.380  1.2124 -0.6641  0.0583
 7791TIP3   OH244863   4.692   0.761  15.529 -0.1553 -0.3513 -0.2435
 7791TIP3    H144864   4.653   0.824  15.589  0.1433  1.5180 -1.9792
 7791TIP3    H244865   4.758   0.716  15.582 -1.0951  0.0325  1.2995
 7792TIP3   OH244866   2.489   2.555   1.810  0.0990  0.4063  0.0959
 7792TIP3    H144867   2.496   2.459   1.804  0.4304  0.3906  0.6943
 7792TIP3    H244868   2.560   2.588   1.755 -2.4964  0.3633 -3.4441
 7793TIP3   OH244869   5.428   1.382  14.288  0.1126 -0.4260 -0.1099
 7793TIP3    H144870   5.404   1.450  14.351 -0.5862 -1.1533  0.4273
 7793TIP3    H244871   5.504   1.417  14.243 -1.5825  1.7292 -1.4363
 7794TIP3   OH244872   1.184   5.593   5.739 -0.2390  0.7389 -0.0036
 7794TIP3    H144873   1.113   5.564   5.796  0.1032  0.8947  0.5037
 7794TIP3    H244874   1.158   5.564   5.652 -0.5324  0.0566  0.3062
 7795TIP3   OH244875   5.273   1.381   5.311  0.0657  0.0150  0.2706
 7795TIP3    H144876   5.291   1.373   5.404  1.5669 -0.1521 -0.0196
 7795TIP3    H244877   5.271   1.291   5.278 -3.1553 -0.0903  0.5992
 7796TIP3   OH244878   6.747   2.895  12.919  0.5274 -0.3877 -0.4693
 7796TIP3    H144879   6.742   2.986  12.947  0.4217  0.2453 -2.5063
 7796TIP3    H244880   6.767   2.846  12.999 -0.5593  1.2799  0.8450
 7797TIP3   OH244881   1.748   2.476   4.812 -0.1210 -0.1643  0.2589
 7797TIP3    H144882   1.832   2.448   4.778 -0.2973 -0.7192  0.2806
 7797TIP3    H244883   1.768   2.516   4.897  0.4840  2.4496 -1.0534
 7798TIP3   OH244884   6.627   3.996  15.046 -0.4221  0.2042 -0.0877
 7798TIP3    H144885   6.697   4.045  15.090  1.3898 -0.8257 -1.7371
 7798TIP3    H244886   6.626   4.030  14.956 -2.0794  0.2282 -0.0772
 7799TIP3   OH244887   4.471   4.365  16.750 -0.2851  0.6451  0.1069
 7799TIP3    H144888   4.392   4.414  16.772  0.0645  0.1534  2.5661
 7799TIP3    H244889   4.445   4.273  16.758 -0.1426  0.4321 -1.6334
 7800TIP3   OH244890   4.524   0.203  14.675 -0.2195 -0.1093 -0.0232
 7800TIP3    H144891   4.562   0.177  14.591 -0.1100  0.6821 -0.2266
 7800TIP3    H244892   4.505   0.120  14.720 -0.9871 -0.5517 -1.1374
 7801TIP3   OH244893   0.970   2.578  16.789  0.2233  0.5087 -0.7186
 7801TIP3    H144894   0.895   2.522  16.809  0.3823  0.0142 -1.4888
 7801TIP3    H244895   0.960   2.654  16.847  0.8745 -1.0585  1.4896
 7802TIP3   OH244896   4.531   4.806  11.150 -0.0215  0.4088  0.3491
 7802TIP3    H144897   4.475   4.762  11.086 -0.5199  0.1613  0.9475
 7802TIP3    H244898   4.590   4.738  11.181 -0.0925  0.4101  0.4920
 7803TIP3   OH244899   3.859   0.130   0.686 -0.2408 -0.0525 -0.1942
 7803TIP3    H144900   3.910   0.128   0.767 -0.8144  0.0699  0.1662
 7803TIP3    H244901   3.840   0.223   0.672 -1.7954 -0.2363  0.5667
 7804TIP3   OH244902   3.540   5.917  13.311  0.4786 -0.1297 -0.2723
 7804TIP3    H144903   3.501   5.917  13.223 -1.5759 -2.5391  0.6047
 7804TIP3    H244904   3.465   5.921  13.370  1.7520 -1.0181  1.4193
 7805TIP3   OH244905   5.155   5.824   0.324 -0.2083 -0.1475  0.3332
 7805TIP3    H144906   5.151   5.837   0.229 -0.0912 -0.9620  0.2131
 7805TIP3    H244907   5.092   5.755   0.341  0.0293 -0.2483  0.8031
 7806TIP3   OH244908   0.392   6.385   2.579  1.0818  0.2307 -0.2362
 7806TIP3    H144909   0.325   6.317   2.577  2.0985 -0.7826 -0.1432
 7806TIP3    H244910   0.357   6.451   2.638  0.6618 -0.8087  0.6879
 7807TIP3   OH244911   0.354   6.133   4.853  0.2493  0.0704  0.3219
 7807TIP3    H144912   0.299   6.149   4.775  2.1619  1.3072 -0.8081
 7807TIP3    H244913   0.377   6.040   4.847 -0.6989 -0.1565  0.1255
 7808TIP3   OH244914   6.179   1.138  16.174 -0.0345 -0.5351 -0.1724
 7808TIP3    H144915   6.269   1.136  16.206 -0.3440 -0.7124  0.7000
 7808TIP3    H244916   6.157   1.231  16.172 -0.0827 -0.5325  0.3378
 7809TIP3   OH244917   4.753   1.473  11.229  0.7105 -0.3648 -0.5082
 7809TIP3    H144918   4.815   1.403  11.246  0.3127 -0.0770  2.5879
 7809TIP3    H244919   4.807   1.549  11.209  1.2090 -1.0019 -1.6361
 7810TIP3   OH244920   0.013   2.901  15.081 -0.0715  0.0769  0.4094
 7810TIP3    H144921   0.055   2.933  15.001  1.7430  1.7165  1.9723
 7810TIP3    H244922  -0.081   2.914  15.066  0.2643  0.5223 -1.3710
 7811TIP3   OH244923   6.793   2.581  11.183 -0.2254  0.4329 -0.6286
 7811TIP3    H144924   6.789   2.670  11.150  0.9403  0.5593 -0.4745
 7811TIP3    H244925   6.759   2.527  11.112 -0.1317  0.9267 -1.0528
 7812TIP3   OH244926   1.488   1.409  16.829 -0.2098  0.4413 -0.2837
 7812TIP3    H144927   1.567   1.463  16.826  1.4624 -1.9987 -3.8642
 7812TIP3    H244928   1.423   1.460  16.779  0.3983  0.5852 -0.9436
 7813TIP3   OH244929   6.051   6.165   2.561 -0.1811  0.1471 -0.3322
 7813TIP3    H144930   5.978   6.226   2.574 -0.9051 -0.6972 -0.3176
 7813TIP3    H244931   6.061   6.121   2.645  1.9361  1.9203  0.3928
 7814TIP3   OH244932   6.371   1.401   2.072 -0.6677 -0.2460  0.1571
 7814TIP3    H144933   6.322   1.344   2.012 -0.7762  0.3361 -0.3044
 7814TIP3    H244934   6.331   1.487   2.063  1.3791  0.5965 -1.3374
 7815TIP3   OH244935   4.693   5.427  11.293  0.2488 -0.5190 -0.7642
 7815TIP3    H144936   4.770   5.373  11.276 -2.5759 -5.0378 -0.0958
 7815TIP3    H244937   4.700   5.448  11.387  0.8552 -0.4887 -0.8089
 7816TIP3   OH244938   0.290   0.344  15.596 -0.0008 -0.6178 -0.5097
 7816TIP3    H144939   0.373   0.387  15.613 -0.5477  0.7007 -1.0948
 7816TIP3    H244940   0.265   0.305  15.680  0.9016 -0.4914 -0.1847
 7817TIP3   OH244941   2.729   2.957   3.046  0.0871  0.0757 -0.4262
 7817TIP3    H144942   2.789   3.031   3.035 -0.1818  0.3735  0.1189
 7817TIP3    H244943   2.645   2.996   3.070 -0.3762 -0.3306 -1.3210
 7818TIP3   OH244944   5.590   0.290  16.779 -0.2965  0.0462 -0.1836
 7818TIP3    H144945   5.640   0.208  16.780  0.0016  0.2297  0.1595
 7818TIP3    H244946   5.645   0.352  16.828 -0.8530  0.2585  0.1649
 7819TIP3   OH244947   0.768   3.070  11.417 -0.6443  0.1315  0.0101
 7819TIP3    H144948   0.825   3.098  11.345  0.8003  1.8714  1.7566
 7819TIP3    H244949   0.828   3.038  11.484 -1.9598 -1.2831  0.5530
 7820TIP3   OH244950   5.292   4.690   1.063  0.2469  0.7373  0.3071
 7820TIP3    H144951   5.315   4.782   1.077  0.5898  0.7797 -0.5026
 7820TIP3    H244952   5.197   4.690   1.049  0.3688  1.0648 -0.5139
 7821TIP3   OH244953   5.920   4.555  12.799  0.0845 -0.2130 -0.5211
 7821TIP3    H144954   5.868   4.564  12.719  0.9846 -1.7342 -1.3184
 7821TIP3    H244955   5.894   4.469  12.834  1.0327 -0.3684 -0.1849
 7822TIP3   OH244956   5.173   5.487   5.614  0.4853  0.0185  0.8037
 7822TIP3    H144957   5.126   5.571   5.618  1.6437  0.8747 -2.3911
 7822TIP3    H244958   5.260   5.508   5.648  0.3338 -0.2405  1.3573
 7823TIP3   OH244959   5.040   4.821   2.505 -0.3002  0.3802 -0.3633
 7823TIP3    H144960   5.017   4.873   2.581 -0.8713 -0.9953  0.4352
 7823TIP3    H244961   5.123   4.778   2.529 -0.8447 -0.6098 -0.2245
 7824TIP3   OH244962   2.026   1.358  15.403  0.2223 -0.1995 -0.3512
 7824TIP3    H144963   2.028   1.451  15.380  1.9872  0.0309  0.6199
 7824TIP3    H244964   1.943   1.345  15.449  0.0809  0.9420 -0.2893
 7825TIP3   OH244965   4.278   4.140  12.936  0.1845 -0.4195 -0.0455
 7825TIP3    H144966   4.187   4.125  12.910  0.2513 -1.1343  0.1285
 7825TIP3    H244967   4.271   4.196  13.013 -0.1890 -1.8383  0.9770
 7826TIP3   OH244968   6.431   0.012   4.993 -0.2966 -0.0910 -0.5273
 7826TIP3    H144969   6.516   0.053   4.980 -0.0971 -0.4258 -0.2862
 7826TIP3    H244970   6.401   0.042   5.079  0.9804 -2.4098  0.7659
 7827TIP3   OH244971   3.253   2.660  13.075  0.0392 -0.5269 -0.8207
 7827TIP3    H144972   3.215   2.601  13.140 -1.2725  0.2685 -0.8455
 7827TIP3    H244973   3.299   2.726  13.126 -0.8204 -0.0163 -0.6985
 7828TIP3   OH244974   1.854   1.570  13.474  0.8856  0.4872  0.6826
 7828TIP3    H144975   1.816   1.508  13.537  1.0031  0.3683  0.6370
 7828TIP3    H244976   1.936   1.529  13.446 -1.5561 -1.9499 -3.4322
 7829TIP3   OH244977   5.094   5.428   3.546  0.5946 -0.4688  0.2631
 7829TIP3    H144978   5.174   5.479   3.558  1.4502 -1.6430 -0.3145
 7829TIP3    H244979   5.099   5.359   3.612 -0.9224  0.5945  1.5475
 7830TIP3   OH244980   5.248   6.639   2.535  0.3733 -0.1732  0.0173
 7830TIP3    H144981   5.232   6.712   2.594  2.0080  1.6881 -1.7728
 7830TIP3    H244982   5.189   6.570   2.565 -0.8189  1.6916  2.0645
 7831TIP3   OH244983   0.562   6.468  14.842  0.4766 -0.3295  0.0777
 7831TIP3    H144984   0.502   6.533  14.878  1.0951  0.5587 -0.4785
 7831TIP3    H244985   0.564   6.398  14.908  0.3469  0.5367  1.0160
 7832TIP3   OH244986   1.743   2.718   4.978 -0.5217 -0.0619  1.1617
 7832TIP3    H144987   1.649   2.704   4.991 -0.9330 -1.2910 -2.5009
 7832TIP3    H244988   1.748   2.774   4.901  1.7530  0.7549  1.8739
 7833TIP3   OH244989   0.082   6.136  16.509 -0.3477  0.0649 -0.0108
 7833TIP3    H144990   0.050   6.093  16.430  0.8642  0.6831 -0.8668
 7833TIP3    H244991   0.012   6.196  16.534 -1.3585 -1.2043  0.2498
 7834TIP3   OH244992   0.414   3.469   2.900  0.3329  0.2369 -0.1568
 7834TIP3    H144993   0.425   3.536   2.967  1.3163  0.1073 -0.1745
 7834TIP3    H244994   0.502   3.455   2.865 -0.3745  1.3101 -2.4533
 7835TIP3   OH244995   2.086   0.028   2.378 -0.0325 -0.2365  0.0934
 7835TIP3    H144996   2.113  -0.046   2.324  1.7364  0.3412  0.1528
 7835TIP3    H244997   2.013  -0.006   2.431 -2.1086 -0.6952 -2.9079
 7836TIP3   OH244998   1.901   1.693  11.323 -0.2383 -0.2097 -0.8107
 7836TIP3    H144999   1.922   1.604  11.353  0.6922  0.4432  0.4900
 7836TIP3    H245000   1.911   1.688  11.228 -1.4562 -1.8319 -0.8785
 7837TIP3   OH245001   3.466   2.305   0.419 -0.6437  0.5321 -0.1631
 7837TIP3    H145002   3.546   2.304   0.366  1.2686 -0.1621  2.5825
 7837TIP3    H245003   3.428   2.218   0.407 -0.6088  0.6302 -0.9715
 7838TIP3   OH245004   3.155   0.316   5.651 -0.1074  0.1663 -0.1975
 7838TIP3    H145005   3.156   0.279   5.562 -0.6873  0.7721 -0.4594
 7838TIP3    H245006   3.132   0.408   5.638  1.7071  0.7336  0.4147
 7839TIP3   OH245007   4.542   4.293  12.211 -0.2094  0.0936  0.0242
 7839TIP3    H145008   4.622   4.297  12.159 -0.0158 -2.3262  0.0831
 7839TIP3    H245009   4.571   4.262  12.297 -1.2169 -1.0925 -0.0486
 7840TIP3   OH245010   3.473   2.356  14.002 -0.0218 -0.3495 -0.5336
 7840TIP3    H145011   3.566   2.375  14.013 -0.4418  1.8488 -0.5302
 7840TIP3    H245012   3.428   2.433  14.038 -1.7706 -0.2889 -2.6823
 7841TIP3   OH245013   2.803   4.812  16.705 -0.7852  0.2938  0.8285
 7841TIP3    H145014   2.751   4.738  16.674 -2.0677  0.8209  1.6438
 7841TIP3    H245015   2.894   4.786  16.691 -1.2766  0.0870 -2.2877
 7842TIP3   OH245016   6.262   4.312  11.334  0.5434 -0.0538  0.0631
 7842TIP3    H145017   6.350   4.325  11.298  0.8774 -0.1380  0.8308
 7842TIP3    H245018   6.211   4.276  11.261  1.3530 -0.7601 -0.1609
 7843TIP3   OH245019   6.715   6.191   4.563  0.5950 -0.4310 -0.0044
 7843TIP3    H145020   6.724   6.270   4.509  1.2498 -0.6091 -0.1669
 7843TIP3    H245021   6.804   6.156   4.568  0.1131 -1.8777 -1.0321
 7844TIP3   OH245022   5.615   4.459  12.114 -0.0981  0.0542 -0.2586
 7844TIP3    H145023   5.653   4.390  12.060  0.3123  1.0293 -1.2454
 7844TIP3    H245024   5.523   4.436  12.122 -0.6206  0.9424 -3.1018
 7845TIP3   OH245025   0.815   2.682  11.551  0.3693 -0.1357  0.4805
 7845TIP3    H145026   0.770   2.598  11.560 -1.0141  0.5877  0.3889
 7845TIP3    H245027   0.745   2.746  11.540  1.3130  1.2718  2.3134
 7846TIP3   OH245028   4.550   0.151   5.975  0.4093 -0.0518  0.1277
 7846TIP3    H145029   4.495   0.225   5.948  0.2443 -0.4814 -0.7386
 7846TIP3    H245030   4.506   0.115   6.051  0.1045  0.2987  0.1193
 7847TIP3   OH245031   2.782   3.127   0.588 -0.1136  0.4667 -0.2028
 7847TIP3    H145032   2.696   3.125   0.632 -0.8097 -2.8333 -1.5644
 7847TIP3    H245033   2.762   3.158   0.499  0.1594 -0.0389 -0.4364
 7848TIP3   OH245034   2.534   4.332   3.568  0.0438  0.0308  0.2787
 7848TIP3    H145035   2.472   4.298   3.503  0.9565  1.0031 -1.1319
 7848TIP3    H245036   2.616   4.340   3.520  0.7825  0.5940  1.6249
 7849TIP3   OH245037   5.956   6.227  15.589 -0.3682  0.4840 -0.2817
 7849TIP3    H145038   6.006   6.193  15.663  0.3034  0.8845 -0.5511
 7849TIP3    H245039   5.970   6.322  15.592 -0.9994  0.5867 -0.4414
 7850TIP3   OH245040   2.148   6.527   3.558  0.1990 -0.3741  0.2788
 7850TIP3    H145041   2.060   6.562   3.543  0.8064  1.3789  0.6157
 7850TIP3    H245042   2.149   6.506   3.651  0.0457 -0.6439  0.2188
 7851TIP3   OH245043   5.828   4.952   2.953 -0.1108  0.0132  0.3890
 7851TIP3    H145044   5.801   4.956   3.045  0.0062  0.7678  0.3927
 7851TIP3    H245045   5.805   5.038   2.918  0.8504  0.1059 -0.0125
 7852TIP3   OH245046   3.435   2.033   1.114  0.0421  0.0373  0.0614
 7852TIP3    H145047   3.363   2.078   1.068 -0.4573 -1.5097 -0.7084
 7852TIP3    H245048   3.448   2.084   1.194  0.3885  2.3335 -1.3953
 7853TIP3   OH245049   5.462   2.028  15.340  0.3759 -0.2362 -0.2785
 7853TIP3    H145050   5.500   1.941  15.355  2.2951  0.3684 -1.3440
 7853TIP3    H245051   5.477   2.075  15.423  2.1222  0.0201 -0.7070
 7854TIP3   OH245052   6.598   6.747   2.969  1.0950 -0.0895 -0.4227
 7854TIP3    H145053   6.655   6.821   2.949  0.1252  0.4205 -1.4087
 7854TIP3    H245054   6.627   6.677   2.909  0.5434  0.2542 -1.1073
 7855TIP3   OH245055   5.620   4.290  15.995 -0.0833  0.1390 -0.4023
 7855TIP3    H145056   5.590   4.318  15.909  0.5212 -1.7120 -1.2309
 7855TIP3    H245057   5.697   4.343  16.013  0.2912 -0.0809 -1.3749
 7856TIP3   OH245058   1.952   3.985  13.174 -0.3664 -0.3618  0.1368
 7856TIP3    H145059   1.957   3.889  13.176  2.0418 -0.2488  1.2468
 7856TIP3    H245060   2.003   4.010  13.097 -1.2029  0.0382 -0.2939
 7857TIP3   OH245061   1.295   3.118   1.152  0.2302 -0.2714 -0.3813
 7857TIP3    H145062   1.328   3.071   1.075  0.1162 -2.1905  0.7220
 7857TIP3    H245063   1.219   3.166   1.119  0.2436 -0.9911 -1.4967
 7858TIP3   OH245064   2.081   2.893  16.952  0.3600  0.4917 -0.4838
 7858TIP3    H145065   2.049   2.868  16.866  2.3515 -1.5279 -0.6888
 7858TIP3    H245066   2.162   2.843  16.963  1.9404  3.3021  1.1512
 7859TIP3   OH245067   4.365   0.938  15.547  0.0393  0.5927 -0.0298
 7859TIP3    H145068   4.403   0.992  15.477 -0.4388  1.2602  0.2224
 7859TIP3    H245069   4.436   0.931  15.612  0.2656  0.5200 -0.2854
 7860TIP3   OH245070   4.323   5.990  12.893  0.5999  0.0582 -0.3630
 7860TIP3    H145071   4.287   6.025  12.974  0.2159 -0.6116 -0.2481
 7860TIP3    H245072   4.303   5.897  12.895 -0.4701  0.2458 -1.7849
 7861TIP3   OH245073   0.609   0.095   3.724  0.4144  0.0267  0.1887
 7861TIP3    H145074   0.569   0.166   3.674  0.2030 -0.5239 -0.4313
 7861TIP3    H245075   0.550   0.021   3.712  1.6900 -0.8414 -0.8664
 7862TIP3   OH245076   0.125   6.597  13.376  0.5326  0.5898 -0.2457
 7862TIP3    H145077   0.049   6.616  13.321  1.0939 -0.5253 -1.4664
 7862TIP3    H245078   0.102   6.516  13.421  0.5303  0.8894  0.2934
 7863TIP3   OH245079   5.909   1.190  14.109  0.0542 -0.1562  0.1547
 7863TIP3    H145080   5.888   1.201  14.202  0.5531  0.4127  0.2035
 7863TIP3    H245081   5.877   1.271  14.068  0.2350 -0.2168 -0.1030
 7864TIP3   OH245082   3.123   1.227   2.321  0.3603 -0.3451 -0.5588
 7864TIP3    H145083   3.116   1.279   2.241  1.1114  0.9766  0.2126
 7864TIP3    H245084   3.061   1.268   2.381 -0.0065 -1.1701 -0.3689
 7865TIP3   OH245085   6.176   1.525   4.295  0.0382  0.0765 -0.0959
 7865TIP3    H145086   6.267   1.498   4.281 -0.0823 -0.7010  0.6122
 7865TIP3    H245087   6.125   1.445   4.289 -0.7135  0.6233 -1.3036
 7866TIP3   OH245088   0.942   1.376   5.314 -0.6213 -0.1445 -0.1149
 7866TIP3    H145089   1.002   1.344   5.247 -1.3689  0.1077 -0.9117
 7866TIP3    H245090   0.986   1.355   5.397 -0.4227 -1.8894 -0.6420
 7867TIP3   OH245091   0.592   3.329  16.108 -0.0019 -0.9925 -0.4606
 7867TIP3    H145092   0.614   3.381  16.030 -0.6690  0.2937  0.2024
 7867TIP3    H245093   0.662   3.348  16.170 -0.7350 -0.1380  0.1265
 7868TIP3   OH245094   6.580   0.899   5.655  0.3307 -0.1114 -0.1880
 7868TIP3    H145095   6.498   0.876   5.611  0.7270  0.5789 -1.3031
 7868TIP3    H245096   6.623   0.961   5.596  1.7474 -0.6074  0.2827
 7869TIP3   OH245097   2.929   2.459  14.899  0.1472 -0.2010  0.1350
 7869TIP3    H145098   2.973   2.535  14.936  0.8687 -0.3126 -0.4783
 7869TIP3    H245099   2.975   2.442  14.817 -1.4113  0.0396 -0.8131
 7870TIP3   OH245100   0.826   0.144  12.244 -0.4466 -0.3653  0.1995
 7870TIP3    H145101   0.732   0.159  12.257 -0.5499 -1.4624  0.7357
 7870TIP3    H245102   0.831   0.067  12.188  0.1081  1.3498 -2.1528
 7871TIP3   OH245103   1.870   5.743   2.106  0.2561 -0.0695 -0.6894
 7871TIP3    H145104   1.802   5.786   2.054 -0.7698 -1.3460 -0.4215
 7871TIP3    H245105   1.886   5.803   2.179 -1.8860 -0.5849  0.2269
 7872TIP3   OH245106   5.594   3.142   2.608  0.6590  0.0988  0.3080
 7872TIP3    H145107   5.538   3.078   2.652 -0.2647 -0.0150 -1.0099
 7872TIP3    H245108   5.669   3.091   2.577  0.8029 -0.0064  0.8217
 7873TIP3   OH245109   2.100   1.633  16.630  0.3931  0.2890 -0.1652
 7873TIP3    H145110   2.127   1.542  16.626  0.4566  0.3103 -0.2277
 7873TIP3    H245111   2.022   1.633  16.685 -0.9609 -0.1241 -2.0434
 7874TIP3   OH245112   6.578   6.152   5.620  0.2494 -0.4897 -0.0367
 7874TIP3    H145113   6.647   6.217   5.604  0.7940 -1.4643 -1.8495
 7874TIP3    H245114   6.622   6.080   5.665  0.7108 -1.6159 -2.2244
 7875TIP3   OH245115   3.651   2.200   1.864 -0.3164  0.1691  0.4713
 7875TIP3    H145116   3.647   2.104   1.865 -0.8024  0.1811 -0.2554
 7875TIP3    H245117   3.744   2.220   1.851  0.0168 -0.1893  2.1616
 7876TIP3   OH245118   2.525   2.641   0.942 -0.0681  0.5515  1.1629
 7876TIP3    H145119   2.510   2.562   0.994 -0.7083 -0.8614 -1.1202
 7876TIP3    H245120   2.607   2.625   0.895 -1.6937 -0.0330 -1.5651
 7877TIP3   OH245121   0.838   2.778  17.172 -0.8173  0.4975 -0.0539
 7877TIP3    H145122   0.834   2.843  17.242 -1.2123  0.8459 -0.3998
 7877TIP3    H245123   0.864   2.697  17.217 -2.8175  0.3054  0.7857
 7878TIP3   OH245124   5.402   4.183  13.689  0.7928 -0.0434 -0.0858
 7878TIP3    H145125   5.337   4.190  13.759 -0.8714 -1.7685 -1.3883
 7878TIP3    H245126   5.459   4.112  13.717 -1.0089 -2.0518 -1.2594
 7879TIP3   OH245127   5.093   6.236   4.184 -0.1095 -0.1189  0.0864
 7879TIP3    H145128   5.147   6.232   4.105  1.4743  0.4331  1.1040
 7879TIP3    H245129   5.143   6.185   4.249 -0.7363  0.5408  1.0945
 7880TIP3   OH245130   5.296   4.593  12.708 -0.0583 -0.4250 -0.0487
 7880TIP3    H145131   5.281   4.631  12.794  0.0539 -2.3036  0.8389
 7880TIP3    H245132   5.239   4.516  12.706  2.3342 -2.2702 -0.3231
 7881TIP3   OH245133   4.075   5.323  14.583  0.0595 -0.3024 -0.1764
 7881TIP3    H145134   4.093   5.239  14.625  0.3077 -0.5313 -0.7351
 7881TIP3    H245135   4.119   5.317  14.498  1.2410  0.9148  0.3340
 7882TIP3   OH245136   0.980   3.279   5.197  0.4401 -0.5805 -0.0504
 7882TIP3    H145137   0.937   3.364   5.198  0.0930 -0.7608  0.8006
 7882TIP3    H245138   1.038   3.282   5.121 -0.7599 -0.1846 -0.9634
 7883TIP3   OH245139   3.648   2.947  15.265  0.1419  0.4773  0.4551
 7883TIP3    H145140   3.560   2.943  15.228 -0.3564 -0.5219  1.6907
 7883TIP3    H245141   3.638   2.914  15.354  1.8017  0.1669  0.5508
 7884TIP3   OH245142   2.712   2.434  16.581 -0.1401 -0.9963  0.0336
 7884TIP3    H145143   2.777   2.502  16.600  1.4157 -2.6505  0.7614
 7884TIP3    H245144   2.668   2.464  16.501 -0.2177  1.3702  0.9167
 7885TIP3   OH245145   2.832   6.376  16.368  0.3138 -0.1074  0.4321
 7885TIP3    H145146   2.859   6.353  16.457 -1.3761 -1.8431  0.5383
 7885TIP3    H245147   2.743   6.411  16.379  0.4351  0.4920 -0.4757
 7886TIP3   OH245148   4.104   3.873  13.387 -0.1231 -0.6775  0.4647
 7886TIP3    H145149   4.104   3.855  13.294  2.8872 -2.3872  0.7138
 7886TIP3    H245150   4.181   3.929  13.400 -1.3839  0.8117  1.7157
 7887TIP3   OH245151   2.762   6.591   1.190 -0.0761 -0.4521  0.0223
 7887TIP3    H145152   2.856   6.585   1.175 -0.0125  1.0370 -0.1891
 7887TIP3    H245153   2.735   6.501   1.210  1.0723 -1.2266 -1.7992
 7888TIP3   OH245154   3.589   0.066  14.020  0.0166  0.1297  0.0581
 7888TIP3    H145155   3.559   0.059  13.929  0.9874 -0.1748 -0.2448
 7888TIP3    H245156   3.567   0.156  14.045  4.5481  2.1211 -2.2835
 7889TIP3   OH245157   0.754   0.996   2.499 -0.3299 -0.0246  0.1117
 7889TIP3    H145158   0.696   1.070   2.518 -0.3624 -0.4702  1.8106
 7889TIP3    H245159   0.842   1.028   2.517 -0.2826 -0.1770  0.1591
 7890TIP3   OH245160   6.725   4.022  11.029  0.6659 -1.0077  0.8238
 7890TIP3    H145161   6.764   4.089  10.973  1.6087 -2.2955 -0.1020
 7890TIP3    H245162   6.632   4.044  11.033  1.0680  0.6683  0.9942
 7891TIP3   OH245163   4.944   3.442   2.392  0.2628  0.0923 -0.4066
 7891TIP3    H145164   4.943   3.440   2.487  0.0190 -2.1929 -0.4176
 7891TIP3    H245165   5.030   3.408   2.368 -0.0038 -0.1834 -1.0008
 7892TIP3   OH245166   3.258   2.180  14.088  0.6665 -0.0485 -0.2275
 7892TIP3    H145167   3.269   2.088  14.066 -0.1284 -0.1375 -0.2597
 7892TIP3    H245168   3.333   2.223  14.047 -0.1027 -0.3925 -2.0755
 7893TIP3   OH245169   3.276   1.226  15.969  0.0654  0.1342 -0.2743
 7893TIP3    H145170   3.254   1.142  16.009  0.3004 -0.3371 -1.1303
 7893TIP3    H245171   3.297   1.205  15.879 -0.9434  1.2475 -0.7899
 7894TIP3   OH245172   2.919   3.401  10.719  0.8400  0.2391  0.3188
 7894TIP3    H145173   2.962   3.316  10.721  1.3411  0.4275 -1.5046
 7894TIP3    H245174   2.834   3.387  10.761  0.7778 -1.2326 -0.2883
 7895TIP3   OH245175   5.294   0.475  14.489 -0.0526 -0.1278  0.4320
 7895TIP3    H145176   5.380   0.465  14.447 -0.8521 -0.4227 -1.1902
 7895TIP3    H245177   5.294   0.410  14.559  0.4004 -1.3307 -0.6541
 7896TIP3   OH245178   3.212   1.572   5.315 -0.3186 -0.3037  0.0662
 7896TIP3    H145179   3.166   1.652   5.340  1.3073 -0.1000  2.5347
 7896TIP3    H245180   3.280   1.602   5.255 -0.7980 -0.0873 -0.3810
 7897TIP3   OH245181   3.862   6.648   5.173  0.0083  0.0141 -0.1246
 7897TIP3    H145182   3.845   6.567   5.222  0.4102  0.3353  0.5404
 7897TIP3    H245183   3.954   6.667   5.187 -0.6020  1.8224  1.5858
 7898TIP3   OH245184   6.585   0.893   0.963 -0.1593  0.0922  0.0948
 7898TIP3    H145185   6.605   0.985   0.950  0.6477 -0.2889 -1.5026
 7898TIP3    H245186   6.536   0.890   1.045 -0.9888  2.0508 -0.2995
 7899TIP3   OH245187   4.472   0.609  16.813  0.2934 -0.4901  0.6697
 7899TIP3    H145188   4.555   0.654  16.825  1.5395 -2.4783 -0.2950
 7899TIP3    H245189   4.431   0.654  16.739  0.3854  0.6228  1.2756
 7900TIP3   OH245190   1.203   4.762  15.694 -0.4821  0.6105  0.2637
 7900TIP3    H145191   1.136   4.827  15.671  0.7359  1.7600 -0.0744
 7900TIP3    H245192   1.285   4.811  15.697  0.6857 -1.1487 -1.3642
 7901TIP3   OH245193   1.859   1.053   2.470  0.1474  0.2966 -0.2307
 7901TIP3    H145194   1.896   1.124   2.522  0.8243 -0.8855  0.9164
 7901TIP3    H245195   1.800   1.007   2.530  1.3048 -1.3768 -0.3496
 7902TIP3   OH245196   0.132   2.254  15.829 -0.1323 -0.0382  0.6800
 7902TIP3    H145197   0.137   2.281  15.737  1.7840 -0.2574  0.7055
 7902TIP3    H245198   0.175   2.169  15.832 -0.3806 -0.1359  1.7569
 7903TIP3   OH245199   4.095   4.276   1.073 -0.3205  0.7734 -0.1969
 7903TIP3    H145200   4.036   4.270   0.998  0.3028  1.8636 -0.7680
 7903TIP3    H245201   4.051   4.336   1.133  0.4640  2.0362 -0.8685
 7904TIP3   OH245202   6.008   5.256   1.653  0.1316 -0.1107 -0.4656
 7904TIP3    H145203   6.030   5.170   1.688 -0.2937 -0.9583 -2.2471
 7904TIP3    H245204   6.091   5.302   1.646  0.1966  0.2335  1.9987
 7905TIP3   OH245205   1.132   2.589   5.758  0.6772  0.9649 -0.8566
 7905TIP3    H145206   1.046   2.630   5.770 -0.5094 -1.2613 -1.4712
 7905TIP3    H245207   1.166   2.628   5.677  0.1718  1.7263 -0.7048
 7906TIP3   OH245208   3.899   2.830  13.446  0.1139 -0.3671  0.2636
 7906TIP3    H145209   3.931   2.920  13.434  0.1989 -0.5297 -0.8331
 7906TIP3    H245210   3.920   2.786  13.363  0.0837 -1.4028  0.7975
 7907TIP3   OH245211   0.141   3.589   1.812  0.1348  0.2044 -0.4497
 7907TIP3    H145212   0.168   3.543   1.892  1.7254  1.3672 -0.3012
 7907TIP3    H245213   0.076   3.653   1.841 -2.8583 -2.5248 -0.7913
 7908TIP3   OH245214   2.138   1.661   2.805  0.2430 -0.1504 -0.9328
 7908TIP3    H145215   2.175   1.573   2.810 -3.0672 -1.5585  0.0352
 7908TIP3    H245216   2.180   1.699   2.728  1.9119 -2.4554 -1.2482
 7909TIP3   OH245217   5.754   4.104  15.501 -0.4981  0.6609  0.0339
 7909TIP3    H145218   5.797   4.092  15.586 -0.9273 -1.9965 -0.0846
 7909TIP3    H245219   5.760   4.198  15.485  0.1738  1.1317  2.6947
 7910TIP3   OH245220   4.505   3.251   1.360  0.0281  0.3451 -0.5093
 7910TIP3    H145221   4.449   3.327   1.375 -1.4894 -0.7868 -0.2253
 7910TIP3    H245222   4.592   3.287   1.342 -0.7960  2.1420 -0.9586
 7911TIP3   OH245223   3.666   6.136   4.781 -0.4218 -0.4084  0.4503
 7911TIP3    H145224   3.616   6.184   4.848  0.5691  0.5808  0.4908
 7911TIP3    H245225   3.617   6.151   4.700 -2.2140 -2.4698  1.0954
 7912TIP3   OH245226   1.036   4.085  12.363  0.5059 -0.3562 -0.5404
 7912TIP3    H145227   0.977   4.131  12.304 -1.7847 -1.1778  1.0599
 7912TIP3    H245228   1.062   4.152  12.427  0.2357 -0.3504 -0.4393
 7913TIP3   OH245229   4.845   5.191   0.473 -0.4957 -0.1814  0.1871
 7913TIP3    H145230   4.753   5.184   0.450 -0.2503  0.7358 -1.1472
 7913TIP3    H245231   4.854   5.141   0.555 -2.3320  0.4605  0.7904
 7914TIP3   OH245232   4.801   0.816   0.442 -0.1694  0.0622  0.0862
 7914TIP3    H145233   4.787   0.723   0.422  0.8602 -0.4397  1.5747
 7914TIP3    H245234   4.714   0.851   0.458 -0.7348 -0.2303 -2.1403
 7915TIP3   OH245235   3.998   3.824   5.100  0.0073 -0.0188  0.0633
 7915TIP3    H145236   3.952   3.740   5.098 -1.3765  0.7174 -0.0275
 7915TIP3    H245237   4.079   3.808   5.053  0.1670 -1.5352  0.8175
 7916TIP3   OH245238   2.664   5.746  11.286  0.6177 -0.0612 -0.0890
 7916TIP3    H145239   2.730   5.813  11.268 -1.8625  2.0657 -1.7510
 7916TIP3    H245240   2.610   5.784  11.355 -0.9565 -0.1990 -1.2218
 7917TIP3   OH245241   1.311   2.125  16.107 -0.2953  0.5969  0.1746
 7917TIP3    H145242   1.384   2.134  16.169  1.5549 -0.9338 -1.6853
 7917TIP3    H245243   1.354   2.117  16.022 -2.5957 -1.7397 -0.8110
 7918TIP3   OH245244   5.363   0.162  13.023  0.4332  0.3508 -0.0061
 7918TIP3    H145245   5.287   0.143  12.968  0.6477  1.5590 -0.7393
 7918TIP3    H245246   5.327   0.181  13.109  0.1914 -3.0347  0.6941
 7919TIP3   OH245247   0.543   3.720   4.600  0.2393 -0.0292  0.2218
 7919TIP3    H145248   0.610   3.664   4.640 -1.1172 -0.8711  1.3573
 7919TIP3    H245249   0.465   3.705   4.652 -0.4066  2.2622 -0.0192
 7920TIP3   OH245250   0.228   5.307   2.744  0.1399  0.3604  0.4259
 7920TIP3    H145251   0.297   5.334   2.805 -0.6945  0.1245  1.4983
 7920TIP3    H245252   0.269   5.309   2.658  0.7848  2.6331  0.7606
 7921TIP3   OH245253   1.932   0.791  15.046 -0.3709  0.3582  0.0647
 7921TIP3    H145254   1.977   0.827  15.123 -0.3221  1.5170 -0.4968
 7921TIP3    H245255   1.849   0.758  15.080  0.9293 -1.9332  1.1359
 7922TIP3   OH245256   5.500   2.592  17.062 -0.0401  0.4068 -0.0419
 7922TIP3    H145257   5.529   2.678  17.032  1.5058 -0.1575 -0.1777
 7922TIP3    H245258   5.566   2.531  17.030 -1.4285 -0.9230 -0.4641
 7923TIP3   OH245259   6.640   3.972  11.793  0.2092  0.3392  0.1364
 7923TIP3    H145260   6.591   4.049  11.821  0.3514  0.4533  0.0701
 7923TIP3    H245261   6.677   3.996  11.708  1.2157  0.6146  0.6532
 7924TIP3   OH245262   6.435   3.454  10.728  0.0631 -0.1980 -0.1894
 7924TIP3    H145263   6.438   3.373  10.779 -0.3921 -0.3458 -0.3899
 7924TIP3    H245264   6.471   3.520  10.786 -0.4812 -0.3615  0.3400
 7925TIP3   OH245265   4.899   6.432  14.964 -0.1132 -0.6071 -0.5683
 7925TIP3    H145266   4.822   6.487  14.950  0.7632  1.1272  1.2043
 7925TIP3    H245267   4.870   6.367  15.027 -0.4259 -0.6127 -0.7128
 7926TIP3   OH245268   5.294   1.708  13.295 -0.5813 -0.5070  0.3388
 7926TIP3    H145269   5.385   1.725  13.273 -0.5798  0.5851  1.1552
 7926TIP3    H245270   5.269   1.779  13.354 -1.7136 -1.2571  0.7932
 7927TIP3   OH245271   2.361   5.440   3.910  0.1685  0.1437 -0.1331
 7927TIP3    H145272   2.383   5.445   4.003  0.3111  3.4768 -0.2619
 7927TIP3    H245273   2.445   5.450   3.865 -0.1907  1.0559 -0.6106
 7928TIP3   OH245274   1.115   4.655   5.679 -0.1156 -0.4290 -0.0216
 7928TIP3    H145275   1.088   4.616   5.596  0.1829  2.2003 -1.4021
 7928TIP3    H245276   1.191   4.604   5.707  0.5810 -0.5192 -2.0369
 7929TIP3   OH245277   5.249   3.876  13.772  0.0721 -0.0589  0.4832
 7929TIP3    H145278   5.344   3.883  13.758  0.1392  1.3953  1.5713
 7929TIP3    H245279   5.211   3.910  13.690  0.4883  0.3768  0.4680
 7930TIP3   OH245280   2.890   0.439   2.504 -0.0336  0.0331  0.1104
 7930TIP3    H145281   2.852   0.526   2.490 -2.4045 -0.4850  2.7713
 7930TIP3    H245282   2.946   0.450   2.581  2.1103 -0.1504 -1.3756
 7931TIP3   OH245283   2.412   1.980   1.287  0.3780 -0.4982  0.4256
 7931TIP3    H145284   2.478   2.046   1.307 -1.6933  1.8290 -0.1852
 7931TIP3    H245285   2.373   1.957   1.371 -0.3980  0.7324  0.4210
 7932TIP3   OH245286   3.026   2.135  12.626  0.1323  0.1978 -0.1206
 7932TIP3    H145287   3.088   2.109  12.694 -0.3430  0.0644  0.2661
 7932TIP3    H245288   2.960   2.188  12.672 -1.9580 -2.5250  0.1538
 7933TIP3   OH245289   0.379   5.016  16.464 -0.2138  0.9379  0.2104
 7933TIP3    H145290   0.466   5.044  16.436 -0.2952  0.3072 -0.6747
 7933TIP3    H245291   0.365   4.933  16.418 -1.1255  0.8513  0.6509
 7934TIP3   OH245292   0.670   4.833  15.480 -0.2199 -0.2994 -0.2616
 7934TIP3    H145293   0.720   4.900  15.434  0.1843  0.2366  0.9246
 7934TIP3    H245294   0.587   4.828  15.434  0.1951  0.1865 -1.0626
 7935TIP3   OH245295   0.355   2.710  14.123 -0.3089  0.0411 -0.0438
 7935TIP3    H145296   0.404   2.786  14.092 -1.2547  0.1201 -1.3772
 7935TIP3    H245297   0.280   2.748  14.170  0.9370 -0.0782  2.0925
 7936TIP3   OH245298   2.283   0.060  15.175  0.2179  0.4212  0.0505
 7936TIP3    H145299   2.260   0.150  15.195  1.8835  0.8881 -0.0605
 7936TIP3    H245300   2.292   0.017  15.260 -2.1304 -0.0786  0.0882
 7937TIP3   OH245301   3.766   5.155   0.545  0.0513 -0.6605 -0.4929
 7937TIP3    H145302   3.835   5.217   0.570 -0.1968  0.0848 -1.5777
 7937TIP3    H245303   3.799   5.070   0.573  0.9015 -0.1722  0.0347
 7938TIP3   OH245304   3.365   6.412  14.426 -0.7280 -0.3268 -0.3942
 7938TIP3    H145305   3.357   6.477  14.496  0.7726  0.3438 -0.8117
 7938TIP3    H245306   3.284   6.420  14.376 -1.5954 -0.4567  0.9438
 7939TIP3   OH245307   0.322   5.206  15.161  0.1954  0.0068 -0.1211
 7939TIP3    H145308   0.289   5.293  15.184  1.3161  0.5644 -0.5727
 7939TIP3    H245309   0.400   5.223  15.108  1.2496 -1.2715  0.9873
 7940TIP3   OH245310   1.990   0.537   2.750  0.1563 -0.2826  0.2655
 7940TIP3    H145311   2.080   0.525   2.718 -0.2285  0.5658 -1.1608
 7940TIP3    H245312   1.935   0.517   2.675 -0.7817  1.2263  0.5253
 7941TIP3   OH245313   2.314   3.429  16.378 -0.1522 -0.0388  0.1826
 7941TIP3    H145314   2.297   3.338  16.400 -1.4909  0.0765 -0.3456
 7941TIP3    H245315   2.403   3.428  16.342  0.0684 -1.0362  0.7481
 7942TIP3   OH245316   3.974   4.435   0.586 -0.6439 -0.2682 -0.1587
 7942TIP3    H145317   4.006   4.490   0.515 -0.7825 -0.5503 -0.4391
 7942TIP3    H245318   4.031   4.455   0.660  0.6138 -1.2804 -0.8434
 7943TIP3   OH245319   6.160   2.334   2.816 -0.4387 -0.4951 -0.1677
 7943TIP3    H145320   6.098   2.383   2.762  0.6170  0.8487 -0.1933
 7943TIP3    H245321   6.125   2.340   2.905 -1.3621 -1.4005 -0.4568
 7944TIP3   OH245322   5.606   5.611  16.907 -0.0299 -0.2223  0.0598
 7944TIP3    H145323   5.691   5.653  16.920  0.1825 -0.5677 -0.2395
 7944TIP3    H245324   5.545   5.684  16.895  0.4668 -0.0135 -1.2621
 7945TIP3   OH245325   0.550   5.934  13.353 -0.9018  0.5431  0.1285
 7945TIP3    H145326   0.573   6.027  13.356 -0.8259  0.5633 -1.0865
 7945TIP3    H245327   0.616   5.895  13.296 -0.7400 -0.3201  0.8998
 7946TIP3   OH245328   6.583   4.271   3.762 -0.1022 -0.0977 -0.2272
 7946TIP3    H145329   6.529   4.341   3.726  2.2953  0.8823 -2.0251
 7946TIP3    H245330   6.550   4.191   3.722 -1.1431  0.2985 -0.1755
 7947TIP3   OH245331   0.946   1.236   1.862  0.3656 -0.5983 -0.2894
 7947TIP3    H145332   1.026   1.278   1.892 -0.9726  2.2726 -0.5501
 7947TIP3    H245333   0.975   1.153   1.823  3.2192  0.5184 -0.6618
 7948TIP3   OH245334   1.092   1.777  14.216 -0.8980  0.8664 -0.9003
 7948TIP3    H145335   1.160   1.841  14.197 -0.7521  0.6979 -0.9465
 7948TIP3    H245336   1.025   1.826  14.263  0.2495  0.5409  1.1080
 7949TIP3   OH245337   4.309   4.025   2.131 -0.1594  0.0681  0.1425
 7949TIP3    H145338   4.366   4.087   2.085  0.1117 -0.9081 -0.8686
 7949TIP3    H245339   4.336   3.939   2.099 -1.3193 -0.5029  0.6423
 7950TIP3   OH245340   4.176   4.950   6.362  0.1920  0.8390 -0.5906
 7950TIP3    H145341   4.116   5.013   6.401  0.7097 -0.5084  2.5238
 7950TIP3    H245342   4.260   4.968   6.405  0.6004 -1.2003 -0.4985
 7951TIP3   OH245343   0.783   5.860  11.891  0.0424  0.4523 -0.5389
 7951TIP3    H145344   0.704   5.867  11.838  0.4676 -0.0167 -1.2340
 7951TIP3    H245345   0.756   5.890  11.978 -0.7241  0.9497 -0.9429
 7952TIP3   OH245346   1.809   5.599  12.221  0.3538  0.4455 -0.2249
 7952TIP3    H145347   1.894   5.559  12.201  0.5516  0.3031  0.8644
 7952TIP3    H245348   1.802   5.672  12.159  2.4846  2.0863  1.3735
 7953TIP3   OH245349   5.937   0.053  15.864 -0.0542  0.2029 -0.4871
 7953TIP3    H145350   5.999  -0.013  15.894 -0.1772 -0.5116 -1.7648
 7953TIP3    H245351   5.903   0.093  15.945  0.6931 -0.6587  0.2641
 7954TIP3   OH245352   4.840   3.245   6.631  0.4064 -0.3090  0.1875
 7954TIP3    H145353   4.826   3.259   6.725 -0.4894 -3.2059  0.5309
 7954TIP3    H245354   4.761   3.280   6.589  0.2922 -0.0449  0.6224
 7955TIP3   OH245355   3.058   0.305  12.957 -0.5092 -0.5340 -0.1944
 7955TIP3    H145356   3.139   0.300  13.008 -0.5048  2.4936  0.2327
 7955TIP3    H245357   3.076   0.372  12.891 -2.3238 -0.5503 -0.7183
 7956TIP3   OH245358   3.489   2.743   6.023  0.2215 -0.4225  0.0095
 7956TIP3    H145359   3.569   2.707   6.062  0.3986 -0.5362 -0.4564
 7956TIP3    H245360   3.418   2.696   6.066  0.4676 -1.8358 -1.0827
 7957TIP3   OH245361   5.457   5.940   2.092 -0.2259 -0.2492  0.2223
 7957TIP3    H145362   5.468   5.877   2.021 -0.6289  1.5716 -1.5219
 7957TIP3    H245363   5.545   5.976   2.105 -0.1056 -0.7577  0.8113
 7958TIP3   OH245364   4.578   2.008   6.405 -0.0867  0.0124  0.0850
 7958TIP3    H145365   4.554   1.958   6.327  4.1784  0.1294 -1.4290
 7958TIP3    H245366   4.558   2.099   6.383 -1.5730 -0.2696  0.2510
 7959TIP3   OH245367   3.059   1.034   5.656 -0.3989 -0.6713  0.1595
 7959TIP3    H145368   3.146   1.055   5.621  0.1472 -1.9972  0.6941
 7959TIP3    H245369   3.010   1.000   5.581 -1.3728  2.6415 -0.7743
 7960TIP3   OH245370   3.592   1.530   1.624 -0.1370 -0.3088 -0.1919
 7960TIP3    H145371   3.514   1.579   1.599  0.8767  0.9910 -0.8991
 7960TIP3    H245372   3.663   1.573   1.575  1.6476  1.1522  3.5178
 7961TIP3   OH245373   3.335   2.867   1.589 -0.2072  0.0118  0.2821
 7961TIP3    H145374   3.317   2.942   1.532 -0.2007  0.1195  0.4209
 7961TIP3    H245375   3.387   2.808   1.535 -2.3166 -1.0293 -0.6547
 7962TIP3   OH245376   6.118   4.462   3.069 -0.0379 -0.5676  0.1376
 7962TIP3    H145377   6.126   4.550   3.107 -1.8219 -1.1524  1.9580
 7962TIP3    H245378   6.032   4.463   3.027  0.7062 -0.8848 -1.4480
 7963TIP3   OH245379   2.313   1.148  13.946  0.0242 -0.2717  0.2542
 7963TIP3    H145380   2.386   1.194  13.988  0.7501 -0.4696 -0.7714
 7963TIP3    H245381   2.328   1.159  13.852 -0.1518 -2.0283 -0.0014
 7964TIP3   OH245382   2.234   1.425   2.588  0.4852  0.4053 -0.5747
 7964TIP3    H145383   2.215   1.481   2.512  1.2793  1.1577 -0.2125
 7964TIP3    H245384   2.329   1.421   2.592  0.4851  1.8492  1.4818
 7965TIP3   OH245385   4.171   5.305  14.312  0.2031  0.6528  0.0856
 7965TIP3    H145386   4.217   5.235  14.358  0.5952  0.1563 -1.0303
 7965TIP3    H245387   4.240   5.367  14.288  0.0011  0.9224  0.2021
 7966TIP3   OH245388   5.537   6.383   4.114 -0.5875 -0.0674 -0.0354
 7966TIP3    H145389   5.575   6.309   4.159 -2.7576  0.3446  2.6093
 7966TIP3    H245390   5.510   6.349   4.029  1.3199 -1.4726 -0.0932
 7967TIP3   OH245391   4.302   6.099   3.637 -0.0157 -0.8719  0.1072
 7967TIP3    H145392   4.316   6.008   3.665  0.4058 -1.8956 -3.1556
 7967TIP3    H245393   4.214   6.098   3.598 -0.7696  0.5835  1.7218
 7968TIP3   OH245394   3.988   6.290   5.690  0.2240 -0.2044 -0.0721
 7968TIP3    H145395   4.010   6.345   5.765  1.5819  1.0494 -1.3690
 7968TIP3    H245396   3.896   6.310   5.672 -0.2257 -0.7645  1.4199
 7969TIP3   OH245397   6.270   4.548  17.065  0.0144 -0.3808 -0.5989
 7969TIP3    H145398   6.191   4.568  17.116  0.4757  0.3837 -0.1597
 7969TIP3    H245399   6.259   4.598  16.984 -0.2511 -0.7883 -0.8148
 7970TIP3   OH245400   1.759   4.488  10.849 -0.5199 -0.2275 -0.2749
 7970TIP3    H145401   1.761   4.399  10.815 -0.2840  0.0885 -1.0909
 7970TIP3    H245402   1.848   4.521  10.838 -0.5761  0.0788  0.1257
 7971TIP3   OH245403   6.020   3.676  14.676  0.1522  0.0728 -0.0736
 7971TIP3    H145404   6.036   3.668  14.770  1.5818  1.3751 -0.1789
 7971TIP3    H245405   5.941   3.729  14.669 -0.9058 -1.4019  0.3961
 7972TIP3   OH245406   1.166   0.797   3.695  0.9052  0.2916  0.3224
 7972TIP3    H145407   1.132   0.725   3.642  0.6568 -0.5865  1.6514
 7972TIP3    H245408   1.107   0.802   3.770  2.0862  0.5578  1.2589
 7973TIP3   OH245409   6.155   2.595  12.661 -0.3020  0.7750  0.1251
 7973TIP3    H145410   6.079   2.537  12.663  1.2519 -1.3634 -0.8630
 7973TIP3    H245411   6.206   2.572  12.738 -0.0812  1.4301  0.1838
 7974TIP3   OH245412   2.444   4.230   6.301  0.4546  0.0006  0.5699
 7974TIP3    H145413   2.535   4.206   6.285  0.7633  1.2889  0.2863
 7974TIP3    H245414   2.448   4.292   6.374 -0.0586  1.0359 -0.2603
 7975TIP3   OH245415   4.349   4.426   2.715 -0.3239 -0.3382  0.0793
 7975TIP3    H145416   4.311   4.391   2.795  1.4419  0.0602  1.1032
 7975TIP3    H245417   4.407   4.356   2.683 -1.4683 -0.7360 -1.1958
 7976TIP3   OH245418   5.922   0.545  14.388 -0.0555  0.1913 -0.1623
 7976TIP3    H145419   5.996   0.521  14.333 -0.7041  1.2184 -1.5164
 7976TIP3    H245420   5.947   0.517  14.476  0.8268 -1.8390 -1.0380
 7977TIP3   OH245421   3.387   4.669  12.975  0.3117 -0.1296 -0.0271
 7977TIP3    H145422   3.448   4.656  12.903  0.0009  1.3323 -0.5741
 7977TIP3    H245423   3.301   4.678  12.932  0.1598  0.9791  0.5076
 7978TIP3   OH245424   3.341   4.044  11.570 -0.0954 -0.0554 -0.7370
 7978TIP3    H145425   3.272   4.008  11.513  0.2722 -2.0602  0.0303
 7978TIP3    H245426   3.412   4.066  11.509 -0.4547 -0.3414 -1.2691
 7979TIP3   OH245427   2.987   1.905   2.074 -0.7452 -0.5546 -0.3323
 7979TIP3    H145428   3.023   1.864   1.995 -1.4606 -2.9025  0.5497
 7979TIP3    H245429   2.923   1.968   2.041  1.9360  1.5372 -1.7929
 7980TIP3   OH245430   2.758   2.723   4.929  0.4707  0.2119 -0.1298
 7980TIP3    H145431   2.716   2.809   4.926 -0.3775 -0.2455 -1.7676
 7980TIP3    H245432   2.790   2.709   4.840 -0.8799 -1.8957 -0.2969
 7981TIP3   OH245433   4.408   6.297   2.522  0.1960  0.4902  0.2168
 7981TIP3    H145434   4.422   6.362   2.591  1.5846  1.7096 -1.1497
 7981TIP3    H245435   4.496   6.264   2.503 -0.4279 -1.3136  0.4253
 7982TIP3   OH245436   0.786   0.327   1.163 -0.3246  0.0763  0.1854
 7982TIP3    H145437   0.880   0.315   1.175 -0.3517 -0.0701  0.2526
 7982TIP3    H245438   0.776   0.355   1.072 -0.1976  0.2859  0.2365
 7983TIP3   OH245439   6.353   5.848   4.940 -0.0871 -0.2724  0.3993
 7983TIP3    H145440   6.274   5.832   4.991 -1.3272  2.3641 -0.6179
 7983TIP3    H245441   6.423   5.852   5.005 -0.4048 -4.6156  1.1313
 7984TIP3   OH245442   3.993   4.916  13.294  0.4954  0.0068 -0.6668
 7984TIP3    H145443   3.956   4.894  13.208 -2.5643 -1.0146  0.8554
 7984TIP3    H245444   4.073   4.863  13.299 -0.1450 -1.1539 -2.2287
 7985TIP3   OH245445   4.001   1.340  13.540  0.1127  0.2144  0.0328
 7985TIP3    H145446   3.978   1.266  13.484 -0.4603  0.4593 -0.0598
 7985TIP3    H245447   4.011   1.301  13.627  1.7827 -0.2985 -0.3627
 7986TIP3   OH245448   6.361   5.364   2.027  0.4678  0.1741 -0.0765
 7986TIP3    H145449   6.384   5.434   1.966 -3.2909  0.8901 -0.7868
 7986TIP3    H245450   6.336   5.291   1.970 -0.1693 -0.1636  0.6349
 7987TIP3   OH245451   5.191   5.653   1.316  0.2041 -0.6536 -0.8193
 7987TIP3    H145452   5.235   5.736   1.300 -0.6327 -0.3226 -1.4838
 7987TIP3    H245453   5.206   5.602   1.237 -0.4153 -0.6110 -0.9734
 7988TIP3   OH245454   4.737   4.746   6.292 -0.3063  0.5660  0.3616
 7988TIP3    H145455   4.783   4.673   6.251  0.8553  1.7242 -0.4571
 7988TIP3    H245456   4.790   4.767   6.369 -0.9736  0.1462  0.9299
 7989TIP3   OH245457   5.116   1.561   1.938 -0.0404  0.0507 -0.1511
 7989TIP3    H145458   5.100   1.613   1.858 -0.3498  0.2753  0.0542
 7989TIP3    H245459   5.209   1.537   1.933  0.3545  1.4309  0.2174
 7990TIP3   OH245460   3.547   3.904  11.725  0.3173 -0.3787  0.4865
 7990TIP3    H145461   3.553   3.936  11.635  1.4640 -1.3072  0.2239
 7990TIP3    H245462   3.454   3.889  11.739  0.1654 -0.5567 -0.6666
 7991TIP3   OH245463   6.144   3.533  16.481  0.3087 -0.2251 -0.8358
 7991TIP3    H145464   6.079   3.590  16.522 -0.2624 -1.3130 -0.2153
 7991TIP3    H245465   6.147   3.456  16.536  0.8739 -0.9307 -1.8309
 7992TIP3   OH245466   1.132   0.988  12.478  0.2214  0.0907  0.0018
 7992TIP3    H145467   1.118   1.022  12.389  1.1557  1.9789  0.5429
 7992TIP3    H245468   1.047   0.998  12.522  0.4396  1.5774  0.0955
 7993TIP3   OH245469   0.129   3.391   5.166  0.1490  0.0874  0.3257
 7993TIP3    H145470   0.110   3.484   5.158 -2.1686 -0.3677  0.1317
 7993TIP3    H245471   0.061   3.348   5.114  0.3321 -1.7726  1.5529
 7994TIP3   OH245472   3.433   0.727  15.977  0.0771 -0.0287 -0.0505
 7994TIP3    H145473   3.428   0.820  16.000 -2.0449  0.3169 -1.7443
 7994TIP3    H245474   3.485   0.725  15.897 -1.8108 -0.0342 -1.2956
 7995TIP3   OH245475   2.215   3.826   0.694 -0.0175 -0.6175  0.2697
 7995TIP3    H145476   2.234   3.884   0.620  0.2707 -1.2924 -0.1900
 7995TIP3    H245477   2.150   3.873   0.746 -0.0462 -0.0383 -0.2929
 7996TIP3   OH245478   0.809   3.175   2.493 -0.6023  0.7784  0.0432
 7996TIP3    H145479   0.771   3.245   2.440 -1.3070  0.8775  0.6732
 7996TIP3    H245480   0.737   3.114   2.507  0.5529 -1.2044 -2.3359
 7997TIP3   OH245481   5.148   6.441   5.600  0.2097  0.4027 -0.3621
 7997TIP3    H145482   5.088   6.510   5.627 -0.4033 -0.7384  1.3042
 7997TIP3    H245483   5.112   6.409   5.517  0.1771  1.6800 -0.8474
 7998TIP3   OH245484   3.664   6.760  12.010 -0.4962  0.2409 -0.1257
 7998TIP3    H145485   3.728   6.831  12.015 -2.0041  1.6318 -0.0032
 7998TIP3    H245486   3.640   6.755  11.918  0.9100 -1.3380 -0.4333
 7999TIP3   OH245487   0.381   1.151  13.071  0.3611  0.6475 -0.8078
 7999TIP3    H145488   0.301   1.199  13.093  0.7049  0.9156 -0.1315
 7999TIP3    H245489   0.448   1.189  13.128  0.7108 -0.4047 -0.5231
 8000TIP3   OH245490   0.531   1.790   3.930 -0.3470 -0.9495  0.1973
 8000TIP3    H145491   0.557   1.763   4.018 -0.5903 -3.2012 -0.3780
 8000TIP3    H245492   0.457   1.850   3.944  1.3634  0.8899  1.5973
 8001TIP3   OH245493   6.789   3.177   4.097 -0.1362 -0.4397 -0.5151
 8001TIP3    H145494   6.708   3.179   4.147  0.9590 -0.9610  1.3658
 8001TIP3    H245495   6.836   3.100   4.131  0.7029 -0.7319 -2.2703
 8002TIP3   OH245496   1.627   1.448   3.180  0.2843  0.1595  0.5196
 8002TIP3    H145497   1.709   1.400   3.194 -0.3184 -1.1879 -0.4497
 8002TIP3    H245498   1.655   1.530   3.137  1.1718 -0.0034  0.7654
 8003TIP3   OH245499   3.437   1.914   0.830 -0.4513  0.3506 -0.0034
 8003TIP3    H145500   3.509   1.977   0.831  0.2928 -0.5042  1.5537
 8003TIP3    H245501   3.369   1.954   0.885 -0.4679  0.3529 -0.0257
 8004TIP3   OH245502   5.325   4.488  11.426 -0.2968  0.5978 -0.1876
 8004TIP3    H145503   5.358   4.575  11.445 -0.6584  0.5910  0.4885
 8004TIP3    H245504   5.403   4.437  11.403  0.2669  0.4349  1.9292
 8005TIP3   OH245505   4.821   4.571  11.037  0.8727  0.1262 -0.3809
 8005TIP3    H145506   4.780   4.628  11.101  0.5681  0.6996 -1.0817
 8005TIP3    H245507   4.760   4.570  10.963  0.8552 -1.1282 -0.3595
 8006TIP3   OH245508   1.581   1.381   3.786  0.3015  0.5301  0.2732
 8006TIP3    H145509   1.505   1.409   3.835 -0.3683  1.4938 -1.2801
 8006TIP3    H245510   1.550   1.370   3.696  1.9525  0.8346 -0.3658
 8007TIP3   OH245511   6.200   1.730   4.484 -0.2646 -0.5547  0.3546
 8007TIP3    H145512   6.217   1.661   4.419  1.1071 -1.1191  1.2766
 8007TIP3    H245513   6.287   1.757   4.513 -0.8640 -0.5361  2.1931
 8008TIP3   OH245514   1.621   3.991   6.256 -0.4333  0.1299  0.4339
 8008TIP3    H145515   1.682   3.959   6.323 -1.4896 -1.2801  0.7410
 8008TIP3    H245516   1.615   3.919   6.193 -1.3402  0.4802  0.1105
 8009TIP3   OH245517   4.427   6.300  15.109  0.1306 -0.2156 -0.7472
 8009TIP3    H145518   4.468   6.250  15.038 -1.7958 -2.3884 -0.4049
 8009TIP3    H245519   4.438   6.391  15.084  1.6891 -0.8800 -2.5941
 8010TIP3   OH245520   5.820   5.848  16.885 -0.0399 -0.4526 -0.3230
 8010TIP3    H145521   5.897   5.805  16.920 -0.1242  0.9167  1.6590
 8010TIP3    H245522   5.830   5.940  16.910 -0.9024  0.2952 -2.5630
 8011TIP3   OH245523   2.691   3.566  11.065 -0.1025 -0.1698 -0.5718
 8011TIP3    H145524   2.758   3.601  11.123 -1.1827 -0.0880  0.6806
 8011TIP3    H245525   2.671   3.637  11.005  1.1771 -0.3215 -1.1912
 8012TIP3   OH245526   3.149   4.391  16.167  0.1900 -0.4141 -0.2714
 8012TIP3    H145527   3.243   4.381  16.152  0.5093  0.8315  0.8468
 8012TIP3    H245528   3.133   4.343  16.248 -0.4608 -2.0126 -1.3024
 8013TIP3   OH245529   4.209   4.296  12.520 -0.3037  0.6293  0.4551
 8013TIP3    H145530   4.202   4.390  12.538 -0.2649  0.4054  1.6431
 8013TIP3    H245531   4.135   4.257  12.566 -0.5932  0.1242 -0.4260
 8014TIP3   OH245532   3.068   3.950  13.535  0.5475 -0.0705 -0.1025
 8014TIP3    H145533   2.987   3.914  13.571  0.1760 -0.8813 -1.7109
 8014TIP3    H245534   3.084   4.029  13.587 -0.1924 -0.9715  1.5425
 8015TIP3   OH245535   4.979   3.941  10.584  0.4177  0.5291  0.7139
 8015TIP3    H145536   4.965   4.035  10.572 -0.8605  0.4375  1.3313
 8015TIP3    H245537   5.058   3.921  10.534  0.8368  1.9789  0.7815
 8016TIP3   OH245538   2.131   3.697  12.698  0.0166  0.4784 -0.0701
 8016TIP3    H145539   2.047   3.716  12.656  0.8596 -0.8947 -2.5193
 8016TIP3    H245540   2.192   3.761  12.660  0.5018  0.1275  0.1029
 8017TIP3   OH245541   3.831   1.220   0.405  0.0071  0.4166  0.2484
 8017TIP3    H145542   3.918   1.258   0.409 -0.1229  0.8806 -1.1408
 8017TIP3    H245543   3.845   1.129   0.381  0.1042  0.5380 -0.1586
 8018TIP3   OH245544   6.658   5.584  14.908  0.0760  0.0093 -0.4385
 8018TIP3    H145545   6.573   5.619  14.883  0.2813 -0.1154 -1.3067
 8018TIP3    H245546   6.707   5.660  14.941 -0.6451 -0.0605  0.8280
 8019TIP3   OH245547   4.541   5.845   1.791  0.0687  0.2036  0.4062
 8019TIP3    H145548   4.513   5.937   1.786  1.8301  0.7672  0.4346
 8019TIP3    H245549   4.619   5.841   1.736 -1.3095 -1.8333 -1.4591
 8020TIP3   OH245550   5.637   5.519   0.291 -1.0213  0.5446 -0.5517
 8020TIP3    H145551   5.551   5.502   0.251 -0.8653  0.2479 -0.7613
 8020TIP3    H245552   5.620   5.518   0.385 -0.9119 -1.4424 -0.5156
 8021TIP3   OH245553   3.195   6.353   0.034 -0.1360  0.2252  0.1115
 8021TIP3    H145554   3.209   6.431   0.087  1.0035  1.1252 -1.5049
 8021TIP3    H245555   3.237   6.372  -0.050 -0.4930 -1.8229 -0.5626
 8022TIP3   OH245556   4.014   0.519   5.568 -0.0743  0.1597  0.1758
 8022TIP3    H145557   4.025   0.605   5.530 -0.0677  0.7054  1.3932
 8022TIP3    H245558   3.952   0.532   5.640  0.1234 -0.7991  0.5328
 8023TIP3   OH245559   1.189   6.641  14.215  0.1535  0.4649  0.7743
 8023TIP3    H145560   1.212   6.598  14.132 -0.0728  0.7579  0.5564
 8023TIP3    H245561   1.152   6.725  14.188 -0.7028  0.2110  1.1388
 8024TIP3   OH245562   6.815   0.152  14.229 -0.0999  0.2153 -0.0531
 8024TIP3    H145563   6.846   0.064  14.251  2.2083  0.4601 -2.1104
 8024TIP3    H245564   6.777   0.143  14.142 -0.3539  1.1274 -0.0390
 8025TIP3   OH245565   1.896   5.891   4.242  0.0039 -0.5716 -0.1511
 8025TIP3    H145566   1.818   5.880   4.188  0.6019 -0.1441 -1.1237
 8025TIP3    H245567   1.888   5.978   4.280  0.0609 -0.4816 -0.3445
 8026TIP3   OH245568   0.342   2.939   1.358  0.4989  0.5739 -0.2297
 8026TIP3    H145569   0.390   2.968   1.280  0.9014  1.8500  0.4744
 8026TIP3    H245570   0.269   3.001   1.366  1.1180  1.1691  1.0429
 8027TIP3   OH245571   5.603   5.637   1.466 -0.4523  0.2618 -0.1780
 8027TIP3    H145572   5.688   5.599   1.444  0.0422  0.5345  1.2158
 8027TIP3    H245573   5.542   5.594   1.407  0.4002 -1.2399 -0.0080
 8028TIP3   OH245574   0.807   2.817  15.655  0.5914 -0.0063 -0.5278
 8028TIP3    H145575   0.718   2.839  15.625 -0.2520  0.0358  1.8632
 8028TIP3    H245576   0.826   2.733  15.614 -2.1918 -2.0071  1.9951
 8029TIP3   OH245577   5.340   6.144   1.388  0.8292  0.4307  0.6288
 8029TIP3    H145578   5.416   6.184   1.346 -0.7362  1.8583 -0.8829
 8029TIP3    H245579   5.325   6.064   1.340 -0.5538  1.7347 -1.1668
 8030TIP3   OH245580   1.948   4.603   2.422 -0.1573  0.1754 -0.1676
 8030TIP3    H145581   1.861   4.609   2.383  0.2277 -1.6076 -1.3972
 8030TIP3    H245582   1.933   4.575   2.512 -0.8326 -1.0328 -0.6426
 8031TIP3   OH245583   5.162   4.869   4.746  0.0440 -0.0019  0.1604
 8031TIP3    H145584   5.213   4.794   4.776  0.2874  0.4545  0.8947
 8031TIP3    H245585   5.095   4.882   4.813 -0.0427  0.3970  0.0003
 8032TIP3   OH245586   1.581   1.644   5.346 -0.1204 -0.2756  0.2041
 8032TIP3    H145587   1.489   1.660   5.324  0.0734 -0.9918 -1.1660
 8032TIP3    H245588   1.622   1.730   5.341 -0.4637 -0.1475 -0.4112
 8033TIP3   OH245589   2.351   0.853  14.030 -0.5692  0.5508 -0.1902
 8033TIP3    H145590   2.329   0.942  14.059  0.8450  1.0271 -0.5114
 8033TIP3    H245591   2.366   0.861  13.936 -0.6779 -0.0826 -0.2621
 8034TIP3   OH245592   3.667   3.055  10.830  0.5159  0.0812  0.3809
 8034TIP3    H145593   3.751   3.014  10.810  0.4485  0.3811 -0.5169
 8034TIP3    H245594   3.688   3.122  10.896  0.9204 -0.1036  0.4400
 8035TIP3   OH245595   5.263   3.392  13.321  0.4177 -0.2271 -0.7696
 8035TIP3    H145596   5.327   3.462  13.334 -0.0723  0.3089 -1.2779
 8035TIP3    H245597   5.188   3.434  13.281  0.1042 -1.0366 -1.0474
 8036TIP3   OH245598   3.280   1.303   5.326  0.4075 -0.3168  0.5435
 8036TIP3    H145599   3.371   1.319   5.305 -0.3954  0.2732 -2.7373
 8036TIP3    H245600   3.241   1.390   5.337 -0.0699 -0.5193  0.4830
 8037TIP3   OH245601   5.502   4.778  10.711  0.0333 -0.1566  0.0702
 8037TIP3    H145602   5.497   4.697  10.660 -0.4133 -0.1629  0.1161
 8037TIP3    H245603   5.433   4.768  10.777 -0.9897  0.8842 -0.8236
 8038TIP3   OH245604   2.148   5.824  14.879  0.1927  0.4217 -0.7538
 8038TIP3    H145605   2.217   5.763  14.905 -1.5852 -0.8482  1.1485
 8038TIP3    H245606   2.162   5.901  14.934 -0.1154  0.0140 -0.0960
 8039TIP3   OH245607   5.280   1.539  12.910  0.0701 -0.2240  0.9087
 8039TIP3    H145608   5.257   1.556  12.819 -0.5363 -1.2403  0.8673
 8039TIP3    H245609   5.209   1.577  12.961 -1.1202 -2.2456  0.8277
 8040TIP3   OH245610   6.757   4.960   3.691 -0.6380 -0.6028  0.1900
 8040TIP3    H145611   6.684   4.902   3.670 -2.1351  1.2056  0.2924
 8040TIP3    H245612   6.718   5.046   3.702  1.6270  0.5747 -0.5449
 8041TIP3   OH245613   2.858   0.242  15.373  0.0606 -0.2000  0.1734
 8041TIP3    H145614   2.940   0.194  15.373 -0.9714 -2.1317 -2.8736
 8041TIP3    H245615   2.874   0.317  15.316  0.3233  0.5614  1.2498
 8042TIP3   OH245616   0.625   3.831  14.587  0.6799  0.0172 -0.2185
 8042TIP3    H145617   0.595   3.843  14.677  0.1243 -1.1778 -0.2357
 8042TIP3    H245618   0.667   3.914  14.565 -1.3622  1.2321  0.3158
 8043TIP3   OH245619   1.275   0.941   0.235  0.1689  0.1025  0.1565
 8043TIP3    H145620   1.337   1.005   0.200 -0.9811  1.9951  1.4749
 8043TIP3    H245621   1.295   0.938   0.329 -0.6685 -0.4897  0.3169
 8044TIP3   OH245622   6.230   5.476   1.811 -0.1921 -0.3224 -0.3339
 8044TIP3    H145623   6.253   5.413   1.743  0.5905 -0.8550  0.4199
 8044TIP3    H245624   6.153   5.522   1.776 -2.0241 -3.0544 -0.0573
 8045TIP3   OH245625   3.618   5.638   5.363 -0.0015 -0.2335  0.5573
 8045TIP3    H145626   3.563   5.605   5.291 -0.1033  0.1633  0.4558
 8045TIP3    H245627   3.602   5.576   5.434 -0.4951 -0.1789  0.4923
 8046TIP3   OH245628   1.179   6.347   1.265 -0.4265  0.3535  0.5006
 8046TIP3    H145629   1.098   6.399   1.261 -0.1598  0.7392  0.0786
 8046TIP3    H245630   1.249   6.410   1.246 -0.1202 -0.2120 -0.2671
 8047TIP3   OH245631   3.678   2.075   4.406 -0.3313  0.4574  0.3378
 8047TIP3    H145632   3.593   2.115   4.424 -2.3984 -2.8753 -1.4475
 8047TIP3    H245633   3.693   2.090   4.313 -1.1887 -2.7499 -0.3894
 8048TIP3   OH245634   4.584   5.452   6.393 -0.0788 -0.3188 -0.1445
 8048TIP3    H145635   4.670   5.483   6.419 -0.1402 -0.5507  0.3513
 8048TIP3    H245636   4.536   5.531   6.370  0.2518 -0.1858 -0.3786
 8049TIP3   OH245637   2.334   0.968   1.822 -0.5765  0.3396  0.3991
 8049TIP3    H145638   2.347   0.895   1.761 -1.7895 -0.0925  0.6518
 8049TIP3    H245639   2.253   1.010   1.792 -1.1398  0.1728  1.6671
 8050TIP3   OH245640   6.793   3.651   2.180 -0.2585 -1.0319  0.1069
 8050TIP3    H145641   6.833   3.729   2.140 -1.5223 -1.3777 -1.8865
 8050TIP3    H245642   6.843   3.578   2.144  0.6685 -1.1903  1.6694
 8051TIP3   OH245643   2.758   5.491  14.096 -0.4113 -0.2834 -0.0338
 8051TIP3    H145644   2.669   5.527  14.099 -1.0794 -1.9768  2.1819
 8051TIP3    H245645   2.759   5.438  14.016 -1.4378 -0.3251 -0.0368
 8052TIP3   OH245646   2.606   0.948   1.948 -0.2479 -0.2470  0.3647
 8052TIP3    H145647   2.572   0.877   2.003 -0.8661 -0.0488  0.2384
 8052TIP3    H245648   2.675   0.988   2.001 -0.1794 -0.6743  0.6031
 8053TIP3   OH245649   3.221   6.158  13.311 -0.2161  0.4494  0.3814
 8053TIP3    H145650   3.132   6.181  13.341 -0.7736 -2.8375  1.5473
 8053TIP3    H245651   3.278   6.188  13.382 -0.5921  0.8924  0.5022
 8054TIP3   OH245652   5.181   3.289   4.496 -0.2218  0.2768 -0.2047
 8054TIP3    H145653   5.221   3.320   4.577 -0.0208  2.2663 -1.0297
 8054TIP3    H245654   5.135   3.366   4.461 -1.0380 -0.7876 -1.5238
 8055TIP3   OH245655   4.816   3.638   5.789  0.3696  0.5775 -0.4927
 8055TIP3    H145656   4.888   3.627   5.851 -0.2580  1.0095  0.3406
 8055TIP3    H245657   4.796   3.550   5.759  0.6236  0.3521 -0.0058
 8056TIP3   OH245658   4.307   1.856   3.179 -0.0241  0.4008 -0.2580
 8056TIP3    H145659   4.306   1.793   3.251  1.0426  0.6464 -0.0092
 8056TIP3    H245660   4.343   1.936   3.218 -0.2252  0.7830 -0.8597
 8057TIP3   OH245661   3.497   6.177  12.464 -0.4394  0.1089  0.4520
 8057TIP3    H145662   3.464   6.267  12.456 -1.6837 -0.2731  1.3070
 8057TIP3    H245663   3.543   6.162  12.381 -1.0074  1.2071 -0.0743
 8058TIP3   OH245664   2.548   6.444  16.317  0.1900  0.4327 -0.0755
 8058TIP3    H145665   2.574   6.506  16.249  0.6375  1.2127  0.7903
 8058TIP3    H245666   2.468   6.403  16.283 -0.2915  1.7240 -0.5252
 8059TIP3   OH245667   2.102   6.423  13.286  0.2643  0.1517 -0.3380
 8059TIP3    H145668   2.026   6.454  13.335  1.3799  1.5474  0.5463
 8059TIP3    H245669   2.141   6.502  13.248  0.7061 -0.6622 -1.6137
 8060TIP3   OH245670   4.310   5.626  12.318 -0.2273 -0.0227 -0.0178
 8060TIP3    H145671   4.225   5.654  12.285  0.5831  3.0841  0.3689
 8060TIP3    H245672   4.361   5.606  12.240 -0.7656 -0.1653 -0.3296
 8061TIP3   OH245673   6.113   1.514  14.940 -0.1194  0.0975  0.0671
 8061TIP3    H145674   6.068   1.440  14.900  1.6084 -0.3797 -1.0700
 8061TIP3    H245675   6.132   1.573  14.867 -0.3313  1.0551  0.7713
 8062TIP3   OH245676   4.335   0.063   2.482  0.0353  0.3265 -0.6338
 8062TIP3    H145677   4.304   0.066   2.392 -0.4634  1.6150 -0.4285
 8062TIP3    H245678   4.266   0.106   2.533  1.1743  1.3046  0.1122
 8063TIP3   OH245679   2.178   5.280   0.010  0.0767  0.1940 -0.4890
 8063TIP3    H145680   2.099   5.313   0.054 -0.5035 -0.2167 -1.2009
 8063TIP3    H245681   2.184   5.189   0.038  0.8803  0.5036  0.3652
 8064TIP3   OH245682   0.222   2.367   2.927  0.0818  0.2833 -0.5977
 8064TIP3    H145683   0.128   2.359   2.911 -0.2875  0.4455  1.3742
 8064TIP3    H245684   0.238   2.316   3.007  1.6734  0.2592 -0.8971
 8065TIP3   OH245685   0.499   4.650   5.639 -0.6189 -0.1363 -0.0535
 8065TIP3    H145686   0.540   4.726   5.598  0.4742 -1.2112 -1.0234
 8065TIP3    H245687   0.563   4.620   5.704 -0.1640 -1.3583 -1.0283
 8066TIP3   OH245688   2.802   5.145  10.868 -0.2643  0.2483  0.2825
 8066TIP3    H145689   2.780   5.221  10.813  2.5481  1.6129  0.9528
 8066TIP3    H245690   2.863   5.094  10.814  0.1897  0.0441  0.9826
 8067TIP3   OH245691   4.246   0.688   5.574 -0.4051  0.4868 -0.0843
 8067TIP3    H145692   4.277   0.605   5.611 -0.7614  0.5675  0.3988
 8067TIP3    H245693   4.169   0.711   5.627 -1.2317  0.3424 -1.2018
 8068TIP3   OH245694   3.249   5.675  10.582 -0.3876  0.1622  0.4815
 8068TIP3    H145695   3.265   5.584  10.609  0.0572 -0.5303 -1.9247
 8068TIP3    H245696   3.199   5.713  10.654  0.8633 -1.4930  2.2956
 8069TIP3   OH245697   0.937   3.419  14.560 -0.6017  0.0281 -0.1050
 8069TIP3    H145698   1.014   3.436  14.615 -1.0766  0.5863  0.3826
 8069TIP3    H245699   0.947   3.328  14.533  1.5654  0.8025 -2.1079
 8070TIP3   OH245700   1.045   1.542   0.666 -0.6279 -0.0901  0.3288
 8070TIP3    H145701   1.067   1.496   0.747 -3.4836 -0.6023  0.8622
 8070TIP3    H245702   1.004   1.476   0.611 -0.5470  0.7372 -0.7355
 8071TIP3   OH245703   3.490   2.138  17.278  0.3527 -0.3768  0.0586
 8071TIP3    H145704   3.508   2.148  17.371 -0.3024 -2.0504  0.3820
 8071TIP3    H245705   3.538   2.210  17.237  0.2940  0.6466  1.7133
 8072TIP3   OH245706   1.060   2.477  16.567 -0.0538  0.0394  0.4430
 8072TIP3    H145707   1.009   2.399  16.544 -1.1413  1.5334 -2.3848
 8072TIP3    H245708   1.014   2.514  16.642 -1.2975 -0.3731 -0.1108
 8073TIP3   OH245709   6.069   6.168   6.243 -0.2939  0.0009 -0.3716
 8073TIP3    H145710   5.990   6.182   6.296 -0.4540 -0.9609 -0.3417
 8073TIP3    H245711   6.092   6.077   6.258 -0.1769 -0.2126 -1.7390
 8074TIP3   OH245712   3.742   5.315   1.574  0.2591  0.3887  0.0888
 8074TIP3    H145713   3.760   5.277   1.488 -0.6300 -1.8874  0.8615
 8074TIP3    H245714   3.692   5.247   1.620  1.7878  1.0644  2.8331
 8075TIP3   OH245715   0.424   0.174   3.385 -0.3418  0.4196 -0.0090
 8075TIP3    H145716   0.380   0.228   3.319 -1.5201  1.1434  1.3371
 8075TIP3    H245717   0.408   0.219   3.468  2.4293  0.3271  0.6077
 8076TIP3   OH245718   3.604   6.276  16.425 -0.1057 -0.6522 -0.1723
 8076TIP3    H145719   3.628   6.336  16.354  0.4308 -0.5400  0.0985
 8076TIP3    H245720   3.652   6.196  16.406  0.8406 -0.2838  0.6066
 8077TIP3   OH245721   3.815   6.715  16.344  0.1719 -0.4137 -0.1062
 8077TIP3    H145722   3.829   6.722  16.439  1.7634 -1.2459 -0.2720
 8077TIP3    H245723   3.852   6.796  16.309 -0.2000 -0.2163 -0.0522
 8078TIP3   OH245724   3.976   4.992  11.496 -0.2657  0.2914 -0.1815
 8078TIP3    H145725   3.993   5.086  11.489 -3.7410  0.8683 -1.7923
 8078TIP3    H245726   4.033   4.953  11.430  1.2511  1.2457  0.5369
 8079TIP3   OH245727   4.409   1.246   0.794  0.3190 -0.0940 -0.8012
 8079TIP3    H145728   4.504   1.255   0.792  0.2243  1.5676  1.0729
 8079TIP3    H245729   4.380   1.301   0.867 -2.0318 -1.0646 -0.9297
 8080TIP3   OH245730   6.508   3.383   2.605  0.0776  0.1581 -0.0100
 8080TIP3    H145731   6.531   3.476   2.613 -0.5611  0.3205 -0.0266
 8080TIP3    H245732   6.540   3.358   2.519  0.6094  0.2579  0.1554
 8081TIP3   OH245733   6.025   1.803   4.268  0.1317 -0.4604  0.1277
 8081TIP3    H145734   6.031   1.717   4.228  0.2694 -0.5218  0.2806
 8081TIP3    H245735   6.067   1.793   4.353 -0.6680 -0.4748  0.5266
 8082TIP3   OH245736   5.526   4.013   4.928  0.1522  0.0872 -0.0494
 8082TIP3    H145737   5.594   3.945   4.933 -0.0082 -0.0147  0.9750
 8082TIP3    H245738   5.569   4.087   4.885  0.7034 -0.2319 -0.0572
 8083TIP3   OH245739   6.564   1.875   6.175 -0.5176  0.2708 -0.6416
 8083TIP3    H145740   6.611   1.958   6.174 -0.2261  0.1072 -0.6950
 8083TIP3    H245741   6.517   1.874   6.258  0.3331  0.0124 -0.1612
 8084TIP3   OH245742   0.418   1.557   6.033  0.1026  0.4473 -0.4448
 8084TIP3    H145743   0.460   1.592   6.110  0.4633 -1.2785  0.1783
 8084TIP3    H245744   0.452   1.608   5.960  1.1810  0.8589  0.3497
 8085TIP3   OH245745   5.062   3.565  10.454  0.4137 -0.0046  0.3747
 8085TIP3    H145746   4.990   3.511  10.423  1.3866 -1.3341  0.3695
 8085TIP3    H245747   5.092   3.522  10.534  1.8811 -0.0795 -0.1972
 8086TIP3   OH245748   4.334   3.611  16.792 -0.5164  0.2167  0.2071
 8086TIP3    H145749   4.310   3.566  16.874  0.0192 -0.0959  0.2004
 8086TIP3    H245750   4.363   3.697  16.820 -0.1790  0.0534  0.3697
 8087TIP3   OH245751   5.599   5.109   4.740 -0.1148 -0.4436 -0.0024
 8087TIP3    H145752   5.676   5.140   4.787 -0.2768 -1.7144  1.1331
 8087TIP3    H245753   5.526   5.123   4.801 -0.7983  0.7741 -1.0739
 8088TIP3   OH245754   0.907   1.972   2.712 -0.3413  0.3514  0.1069
 8088TIP3    H145755   0.907   1.917   2.790  0.1587 -2.8792 -2.1009
 8088TIP3    H245756   0.980   2.033   2.726  1.0968 -1.5622  1.2181
 8089TIP3   OH245757   0.098   2.354   4.546 -0.2429  0.2370  0.0304
 8089TIP3    H145758   0.179   2.400   4.524  0.4676 -0.5424  0.9869
 8089TIP3    H245759   0.062   2.402   4.620  0.1910 -0.3748  0.6455
 8090TIP3   OH245760   2.314   0.221   5.692  0.2147  0.2013  0.2666
 8090TIP3    H145761   2.389   0.225   5.632  0.7638  2.0477  1.0445
 8090TIP3    H245762   2.351   0.242   5.778 -0.7588 -1.3905  1.0983
 8091TIP3   OH245763   2.040   6.217   4.709 -0.4420  0.9166  1.1170
 8091TIP3    H145764   1.994   6.229   4.792 -1.1372  1.0767  0.7157
 8091TIP3    H245765   2.126   6.182   4.734 -1.1503 -0.3711  1.8253
 8092TIP3   OH245766   0.222   5.908  15.877  0.3752 -0.4067  0.1665
 8092TIP3    H145767   0.288   5.919  15.808  0.0167 -1.4083 -0.3376
 8092TIP3    H245768   0.147   5.870  15.832 -1.8024  3.7057  0.0072
 8093TIP3   OH245769   2.833   3.037   2.003  0.1224 -0.6551  0.9387
 8093TIP3    H145770   2.862   3.036   2.094 -0.3929 -1.1152  1.1040
 8093TIP3    H245771   2.898   3.090   1.957  1.0759 -1.4716  1.3430
 8094TIP3   OH245772   6.700   6.364  14.721  0.2042  0.0875  0.2147
 8094TIP3    H145773   6.652   6.388  14.641  1.1462  0.8554 -0.1242
 8094TIP3    H245774   6.722   6.271  14.708 -0.6016 -0.0896  0.0782
 8095TIP3   OH245775   6.421   2.707  11.517 -0.4528 -0.1217 -0.0395
 8095TIP3    H145776   6.433   2.689  11.424  0.1171  0.0101  0.0014
 8095TIP3    H245777   6.364   2.783  11.521 -1.0032 -0.5205 -0.2644
 8096TIP3   OH245778   1.105   1.793  10.657 -0.1261  0.1785  0.4477
 8096TIP3    H145779   1.084   1.779  10.565  0.6493  0.3425  0.2462
 8096TIP3    H245780   1.083   1.885  10.673  0.2944  0.3105  0.2731
 8097TIP3   OH245781   3.225   5.522  12.977 -0.3843  0.2208  0.6767
 8097TIP3    H145782   3.172   5.600  12.994  1.5311  1.6614  0.3281
 8097TIP3    H245783   3.203   5.497  12.887  0.7345  1.8665 -0.1013
 8098TIP3   OH245784   0.145   4.905  13.045  0.1687  0.6574 -0.1134
 8098TIP3    H145785   0.181   4.992  13.061  1.0815  0.1425  0.6987
 8098TIP3    H245786   0.062   4.904  13.092 -0.6900  1.6827 -1.5829
 8099TIP3   OH245787   0.712   2.382   2.948 -0.2748  0.9185  0.4171
 8099TIP3    H145788   0.785   2.345   2.997 -1.7432 -0.2131  1.8142
 8099TIP3    H245789   0.721   2.476   2.959  0.2471  0.7372  1.6660
 8100TIP3   OH245790   3.137   2.786  11.607  1.2005  0.0153 -0.6506
 8100TIP3    H145791   3.060   2.732  11.587  0.4933  1.2237 -1.2649
 8100TIP3    H245792   3.129   2.805  11.701 -1.1352  2.9195 -1.3270
 8101TIP3   OH245793   3.357   3.135   4.788  0.6504  0.3564  0.9643
 8101TIP3    H145794   3.369   3.045   4.758  1.7943  0.8108  0.0321
 8101TIP3    H245795   3.317   3.180   4.714  0.2748  0.6723  1.3567
 8102TIP3   OH245796   5.590   2.672  12.997  0.6624  0.2997 -0.0478
 8102TIP3    H145797   5.579   2.629  13.082 -0.8406  0.7211  0.0011
 8102TIP3    H245798   5.676   2.645  12.966  0.3364 -1.5842  0.6299
 8103TIP3   OH245799   6.336   5.346   5.486  0.3039  0.0798 -0.0512
 8103TIP3    H145800   6.315   5.252   5.491  0.4667 -0.0306 -1.4137
 8103TIP3    H245801   6.405   5.357   5.551 -0.8803 -0.4017  1.3317
 8104TIP3   OH245802   2.228   1.955   5.358 -0.0624 -0.2714 -0.2770
 8104TIP3    H145803   2.288   1.892   5.397 -1.7444 -2.1512 -0.6174
 8104TIP3    H245804   2.143   1.933   5.397 -0.9772  0.6605 -1.7147
 8105TIP3   OH245805   0.077   6.454  17.135  0.0796  0.1572 -0.2815
 8105TIP3    H145806   0.135   6.506  17.191 -1.2130  0.9976  0.3060
 8105TIP3    H245807   0.048   6.381  17.192  0.2666 -0.0475 -0.4473
 8106TIP3   OH245808   5.427   2.110  13.364  0.8829  0.3296 -0.0308
 8106TIP3    H145809   5.359   2.167  13.327  2.2728  1.9814 -0.0964
 8106TIP3    H245810   5.476   2.079  13.288 -0.1269 -1.3665 -0.0364
 8107TIP3   OH245811   5.284   5.862   4.620  0.9074 -0.0506  0.0360
 8107TIP3    H145812   5.233   5.937   4.651 -0.1319 -0.2556 -1.1534
 8107TIP3    H245813   5.365   5.867   4.670  0.8628  1.8746 -0.0303
 8108TIP3   OH245814   5.563   4.951  17.100 -0.5631  0.1574  0.3128
 8108TIP3    H145815   5.481   4.998  17.085 -0.6669 -0.1459 -0.0779
 8108TIP3    H245816   5.632   5.012  17.073 -0.7431 -0.3751 -1.4357
 8109TIP3   OH245817   5.371   4.353  12.187  0.0144  0.1401  0.6858
 8109TIP3    H145818   5.328   4.438  12.191 -2.9569 -1.2880  0.1754
 8109TIP3    H245819   5.374   4.324  12.279 -1.9458 -0.6042  0.5401
 8110TIP3   OH245820   3.482   0.892   4.079  0.3239 -0.3563 -0.0160
 8110TIP3    H145821   3.473   0.837   4.157  1.5959 -2.2232 -1.1560
 8110TIP3    H245822   3.396   0.889   4.038 -0.7308  1.6194  1.8816
 8111TIP3   OH245823   1.365   5.648   0.794 -0.5460 -0.1491 -0.4586
 8111TIP3    H145824   1.442   5.616   0.746  1.7789  2.1145  1.6363
 8111TIP3    H245825   1.343   5.731   0.752  0.2167  0.8192  1.0210
 8112TIP3   OH245826   6.720   5.634  11.433 -0.2708 -0.0800 -0.1477
 8112TIP3    H145827   6.625   5.634  11.433 -0.2737 -0.5548 -0.7445
 8112TIP3    H245828   6.744   5.711  11.380 -0.3317 -0.5505 -0.8700
 8113TIP3   OH245829   3.053   6.184  11.193  0.4371 -0.4644 -0.3425
 8113TIP3    H145830   3.068   6.279  11.192 -0.0971 -0.3907 -1.5690
 8113TIP3    H245831   2.969   6.173  11.149 -1.0261 -1.2616  2.5622
 8114TIP3   OH245832   2.246   2.095   1.570 -0.1309 -0.5316 -0.2192
 8114TIP3    H145833   2.182   2.076   1.638 -0.9167 -1.3338 -1.1732
 8114TIP3    H245834   2.196   2.133   1.499  1.1712  3.6658  0.9532
 8115TIP3   OH245835   2.431   6.699   1.279  0.5119 -0.7712  0.4166
 8115TIP3    H145836   2.368   6.771   1.285  1.0220 -0.1472 -1.4707
 8115TIP3    H245837   2.507   6.737   1.236  1.7082 -1.8522  1.5456
 8116TIP3   OH245838   3.632   2.608   1.801  0.2962 -0.1769  0.0033
 8116TIP3    H145839   3.674   2.574   1.722  2.5375 -0.4611  1.2665
 8116TIP3    H245840   3.700   2.662   1.843 -1.0326  0.4096  1.4476
 8117TIP3   OH245841   1.891   2.984  15.486 -0.1608  0.2081 -0.2099
 8117TIP3    H145842   1.956   2.937  15.540  0.8257 -0.3499 -1.8599
 8117TIP3    H245843   1.837   2.915  15.448 -1.4012  0.6501  0.7189
 8118TIP3   OH245844   3.249   4.325  14.485 -0.0325 -0.1127  0.0609
 8118TIP3    H145845   3.156   4.350  14.485 -0.4548 -1.6162  0.2122
 8118TIP3    H245846   3.295   4.405  14.460 -1.4968  0.1780 -1.8206
 8119TIP3   OH245847   0.287   2.386  14.154  0.4613 -0.0100  0.0794
 8119TIP3    H145848   0.253   2.302  14.122  0.3293  0.2718 -0.5355
 8119TIP3    H245849   0.379   2.369  14.172  0.5910 -0.1272 -0.6593
 8120TIP3   OH245850   4.115   2.692  15.875  0.0821 -0.3219 -0.6679
 8120TIP3    H145851   4.192   2.664  15.826 -0.1120  1.2614 -1.9128
 8120TIP3    H245852   4.139   2.777  15.911 -0.4168 -0.6749  0.5291
 8121TIP3   OH245853   1.560   6.405  12.183 -0.4466  0.1781 -0.2401
 8121TIP3    H145854   1.528   6.435  12.098 -0.1773 -1.6264 -1.0113
 8121TIP3    H245855   1.487   6.419  12.243 -0.4082  2.0999 -0.6090
 8122TIP3   OH245856   1.979   0.094   0.397 -0.1645 -0.3746  0.4488
 8122TIP3    H145857   1.910   0.027   0.400 -0.0224 -0.6244 -1.4346
 8122TIP3    H245858   1.932   0.177   0.391 -0.3121 -0.3897  1.2568
 8123TIP3   OH245859   6.372   4.904  15.633 -0.2693 -0.4063  0.0059
 8123TIP3    H145860   6.457   4.900  15.591 -0.7786 -2.8315 -0.8593
 8123TIP3    H245861   6.390   4.938  15.721  1.6449 -1.3404 -0.0157
 8124TIP3   OH245862   2.074   5.750  16.614  0.3370  0.0229 -0.2284
 8124TIP3    H145863   2.129   5.739  16.692 -1.6217  0.5582  1.2593
 8124TIP3    H245864   2.083   5.843  16.592 -0.4868  0.2552  0.4116
 8125TIP3   OH245865   3.319   0.835   0.132 -0.6548  0.2025  0.0334
 8125TIP3    H145866   3.310   0.757   0.187 -0.2292 -0.5359 -0.9370
 8125TIP3    H245867   3.317   0.802   0.043  1.1958  1.1376 -0.3633
 8126TIP3   OH245868   4.204   6.745  16.902  0.3857 -0.2717  0.5886
 8126TIP3    H145869   4.193   6.839  16.919  0.2490 -0.3703  1.0412
 8126TIP3    H245870   4.114   6.713  16.888  0.5032 -0.1713 -0.4196
 8127TIP3   OH245871   4.479   2.648  14.730  0.3245  0.4417 -0.2953
 8127TIP3    H145872   4.430   2.600  14.663  1.4396  0.0676 -0.8593
 8127TIP3    H245873   4.421   2.650  14.806  0.5933 -2.5179  0.0296
 8128TIP3   OH245874   6.663   0.921   0.046  0.4381 -0.2892  0.1534
 8128TIP3    H145875   6.757   0.936   0.032  0.5052  1.3644  2.0686
 8128TIP3    H245876   6.632   0.882  -0.035  2.7505 -0.6305 -0.5989
 8129TIP3   OH245877   1.967   2.488  14.355  0.3699 -0.6676 -0.4083
 8129TIP3    H145878   1.985   2.406  14.309 -0.1620 -1.2477  0.4000
 8129TIP3    H245879   1.872   2.494  14.358  0.4088  0.0676 -0.6181
 8130TIP3   OH245880   3.311   0.715  12.404  0.0288 -0.0829 -0.0308
 8130TIP3    H145881   3.252   0.647  12.437 -0.1021  1.3151  2.7750
 8130TIP3    H245882   3.396   0.672  12.398  0.0189 -0.4637  2.0454
 8131TIP3   OH245883   5.617   0.379   6.998 -0.0138  0.2207 -0.5911
 8131TIP3    H145884   5.581   0.467   6.988 -0.1031  0.3783  0.9715
 8131TIP3    H245885   5.644   0.374   7.090 -1.6106 -1.9556 -0.1710
 8132TIP3   OH245886   1.730   4.557   0.707 -0.0222 -0.2835  0.2680
 8132TIP3    H145887   1.761   4.490   0.769 -0.1436 -0.9749 -0.4039
 8132TIP3    H245888   1.645   4.524   0.677 -0.7176  0.8618  0.9643
 8133TIP3   OH245889   4.189   3.047   5.488 -0.2196 -0.2430  0.4081
 8133TIP3    H145890   4.095   3.056   5.503 -0.1963 -0.7368  0.8700
 8133TIP3    H245891   4.207   3.106   5.415 -0.0583  3.5210  3.2876
 8134TIP3   OH245892   4.579   3.896   5.157  0.5732  0.0591 -0.2198
 8134TIP3    H145893   4.554   3.917   5.247  2.3468  0.8587  0.1016
 8134TIP3    H245894   4.600   3.802   5.160 -2.2347 -0.6346 -0.4934
 8135TIP3   OH245895   0.550   5.819   5.579  0.5100 -0.0668  0.0025
 8135TIP3    H145896   0.455   5.809   5.565  0.2264 -0.7249  2.1891
 8135TIP3    H245897   0.566   5.775   5.662  2.6309  0.6966  0.0161
 8136TIP3   OH245898   1.286   0.815   1.500 -1.1655 -0.4563  0.1464
 8136TIP3    H145899   1.274   0.791   1.591  0.0110 -1.4612  0.0439
 8136TIP3    H245900   1.339   0.745   1.463  0.3187  1.0953 -0.7436
 8137TIP3   OH245901   2.004   1.262   2.556 -0.4573  1.0569 -0.2214
 8137TIP3    H145902   1.991   1.263   2.650  1.6321  0.3254  0.0971
 8137TIP3    H245903   2.096   1.286   2.544 -0.7286  1.2771 -2.0769
 8138TIP3   OH245904   2.241   0.079   1.307 -0.1070  0.5138 -0.0226
 8138TIP3    H145905   2.163   0.129   1.283  0.2312  0.5421 -1.0602
 8138TIP3    H245906   2.207   0.000   1.350 -0.6856  0.8690  0.1684
 8139TIP3   OH245907   4.049   4.357  13.742 -0.1796  0.0034  0.0369
 8139TIP3    H145908   4.043   4.281  13.800 -0.1080 -0.1439 -0.1499
 8139TIP3    H245909   4.006   4.329  13.661 -1.3995  0.6274  0.4488
 8140TIP3   OH245910   6.548   2.192  14.153  0.3272  0.5671 -0.2092
 8140TIP3    H145911   6.495   2.147  14.219 -0.6278  0.5755 -0.9558
 8140TIP3    H245912   6.639   2.172  14.177 -0.0257  0.1672  0.8147
 8141TIP3   OH245913   3.933   3.742   3.733 -0.2769  0.7959  0.0569
 8141TIP3    H145914   3.886   3.724   3.651  0.4889  0.4400 -0.3063
 8141TIP3    H245915   3.998   3.808   3.709 -0.9446  1.6969  0.6829
 8142TIP3   OH245916   3.345   4.390  11.462 -0.5179  0.4107 -0.2118
 8142TIP3    H145917   3.384   4.390  11.549 -0.9688 -1.7360  0.0120
 8142TIP3    H245918   3.417   4.412  11.403  0.2355 -0.0896  0.5133
 8143TIP3   OH245919   5.693   0.864   0.632  0.5621 -0.2729 -0.1816
 8143TIP3    H145920   5.729   0.844   0.546 -0.9671 -2.6370 -0.3238
 8143TIP3    H245921   5.604   0.826   0.631  0.2675  0.2384  2.1751
 8144TIP3   OH245922   2.349   4.805   5.648  0.3232 -0.0291  0.0309
 8144TIP3    H145923   2.305   4.798   5.733 -1.7560  2.8500 -0.7352
 8144TIP3    H245924   2.293   4.755   5.589 -1.6638  3.0810 -0.8117
 8145TIP3   OH245925   6.437   5.363  13.120  0.0247  0.3764  0.3234
 8145TIP3    H145926   6.403   5.276  13.097 -0.8483  0.9545 -0.6065
 8145TIP3    H245927   6.399   5.381  13.207 -0.4241  0.1635  0.1748
 8146TIP3   OH245928   4.722   4.642  15.552  0.6199 -0.0378 -0.3718
 8146TIP3    H145929   4.695   4.727  15.515 -0.4865 -0.3890 -0.3909
 8146TIP3    H245930   4.653   4.581  15.525  0.9293 -0.7576  0.4363
 8147TIP3   OH245931   1.770   0.035  11.382  0.8595  0.3467  0.3749
 8147TIP3    H145932   1.833   0.096  11.421  0.8990 -1.1586  2.7675
 8147TIP3    H245933   1.823  -0.038  11.351  0.5940  0.5273 -0.5171
 8148TIP3   OH245934   2.284   3.877  16.675  0.2029 -0.5191  0.6217
 8148TIP3    H145935   2.281   3.811  16.744  0.0174 -0.4532  0.6786
 8148TIP3    H245936   2.316   3.831  16.598  1.1759 -0.4117  0.9619
 8149TIP3   OH245937   0.572   2.137  15.143  0.5683 -0.0162  0.5287
 8149TIP3    H145938   0.500   2.135  15.207 -0.5837 -0.0018 -0.7599
 8149TIP3    H245939   0.598   2.045  15.134 -0.6055 -0.2501 -0.4822
 8150TIP3   OH245940   2.340   4.158  11.723  0.3263  0.6115 -0.3918
 8150TIP3    H145941   2.348   4.245  11.684 -4.9206  1.4980  0.0569
 8150TIP3    H245942   2.393   4.161  11.803 -0.6141  3.7985  0.1527
 8151TIP3   OH245943   3.586   1.513  13.953 -0.4312 -0.2276 -0.7793
 8151TIP3    H145944   3.517   1.448  13.964  0.6029 -0.9139  2.2007
 8151TIP3    H245945   3.638   1.506  14.033  1.9774  1.5928 -2.1225
 8152TIP3   OH245946   0.114   1.636   6.503 -0.3420 -0.0570 -0.0840
 8152TIP3    H145947   0.195   1.591   6.481  0.9449  1.6696  0.9685
 8152TIP3    H245948   0.045   1.584   6.463  1.3973 -0.8145 -2.1346
 8153TIP3   OH245949   0.905   6.687  15.538  0.2363  0.2901  0.5093
 8153TIP3    H145950   0.980   6.663  15.484  0.9954  1.7820  0.8813
 8153TIP3    H245951   0.902   6.620  15.607  0.5908 -0.3622 -0.1084
 8154TIP3   OH245952   6.712   5.516  15.309  0.0491  0.0774 -0.2848
 8154TIP3    H145953   6.795   5.529  15.355 -0.8001  2.0405  0.7307
 8154TIP3    H245954   6.681   5.431  15.341  0.1834  0.7451  1.7281
 8155TIP3   OH245955   4.648   3.085   4.202  0.0621 -0.1104  0.0556
 8155TIP3    H145956   4.575   3.041   4.158  0.5415 -1.0011  0.1426
 8155TIP3    H245957   4.615   3.102   4.291  0.1844 -1.0852  0.2890
 8156TIP3   OH245958   2.400   5.578  11.953  0.5644  0.3358  0.4960
 8156TIP3    H145959   2.393   5.488  11.984 -4.0612 -0.3618 -2.1421
 8156TIP3    H245960   2.404   5.571  11.858  1.4963  2.8845  0.3019
 8157TIP3   OH245961   4.237   3.150   3.964  0.2560 -0.6898 -0.2001
 8157TIP3    H145962   4.251   3.142   4.058  1.1958 -3.7490 -0.5341
 8157TIP3    H245963   4.325   3.164   3.928 -0.1384  0.8105 -0.6163
 8158TIP3   OH245964   0.688   2.896  11.842  0.0085  0.5917 -0.1793
 8158TIP3    H145965   0.625   2.954  11.883 -0.2421  0.6797 -0.6834
 8158TIP3    H245966   0.731   2.851  11.915  1.6486  2.8867  0.3362
 8159TIP3   OH245967   5.508   3.794   5.182  0.8208  0.0849 -0.2100
 8159TIP3    H145968   5.504   3.804   5.277  1.3534 -0.5389 -0.1188
 8159TIP3    H245969   5.418   3.777   5.156  0.4510  1.6429  0.0192
 8160TIP3   OH245970   2.247   5.757  11.608  0.4662  0.2466 -0.1333
 8160TIP3    H145971   2.189   5.698  11.561 -1.1385  0.6385  1.3158
 8160TIP3    H245972   2.210   5.844  11.595  1.9376  0.7600 -0.9650
 8161TIP3   OH245973   3.589   1.416   0.276 -0.4268  0.6279  0.7340
 8161TIP3    H145974   3.499   1.393   0.252  0.0294  0.8410 -1.2395
 8161TIP3    H245975   3.614   1.485   0.214  1.5424 -0.3465  0.3924
 8162TIP3   OH245976   0.927   1.958   4.651 -0.4303  0.0031  0.2539
 8162TIP3    H145977   0.898   1.909   4.728  0.0446 -0.9794 -0.1806
 8162TIP3    H245978   0.943   2.047   4.683  1.3657 -0.7984  1.6244
 8163TIP3   OH245979   4.009   0.692  15.673  0.3887  0.1521 -0.1629
 8163TIP3    H145980   3.930   0.743  15.656  0.6795  1.0132  0.9550
 8163TIP3    H245981   3.983   0.627  15.738 -0.2548 -1.8935 -2.3925
 8164TIP3   OH245982   6.582   1.389   5.552 -0.1945 -0.1693 -0.1315
 8164TIP3    H145983   6.501   1.440   5.558  1.1369  2.0708 -0.4732
 8164TIP3    H245984   6.574   1.339   5.471 -0.1377  2.0937 -1.5789
 8165TIP3   OH245985   5.060   6.102   1.135  0.4669  0.0411  0.2081
 8165TIP3    H145986   5.025   6.171   1.192 -1.0991 -0.3789 -0.2036
 8165TIP3    H245987   5.114   6.149   1.071  0.4930  0.7458  0.7389
 8166TIP3   OH245988   0.133   2.855  16.269  0.9320 -0.4455  0.4329
 8166TIP3    H145989   0.135   2.790  16.199 -0.3299 -1.2018  1.0879
 8166TIP3    H245990   0.209   2.835  16.323  0.7038 -1.1932  0.4711
 8167TIP3   OH245991   5.064   3.798  16.106 -0.5885  0.7454 -0.0895
 8167TIP3    H145992   4.987   3.793  16.050 -0.0771  0.0672 -0.7401
 8167TIP3    H245993   5.087   3.891  16.108 -2.2803  1.1517  1.2971
 8168TIP3   OH245994   2.582   4.256   5.285 -0.4417  0.0651  0.2894
 8168TIP3    H145995   2.628   4.174   5.265  0.8309  1.1736 -1.6415
 8168TIP3    H245996   2.653   4.318   5.304 -1.0164  1.8662 -2.9553
 8169TIP3   OH245997   2.786   6.717   0.730  0.1396 -0.1805 -0.3202
 8169TIP3    H145998   2.749   6.795   0.688 -0.2125  0.4019  1.0472
 8169TIP3    H245999   2.713   6.654   0.732  0.3621 -0.4689 -1.2278
 8170TIP3   OH246000   6.084   2.207  11.867  0.2467 -0.0304  0.1125
 8170TIP3    H146001   6.010   2.155  11.837 -1.9392  0.2560  4.5651
 8170TIP3    H246002   6.063   2.296  11.839 -0.7921 -0.0593  0.7757
 8171TIP3   OH246003   5.304   0.920   2.082 -0.1114  0.2288  0.6181
 8171TIP3    H146004   5.241   0.952   2.147 -0.1130  0.2844  0.5886
 8171TIP3    H246005   5.300   0.825   2.090 -0.5281  0.2174  0.3023
 8172TIP3   OH246006   2.239   6.445  11.692 -0.3776  0.3450 -0.3780
 8172TIP3    H146007   2.213   6.429  11.602  1.5298  0.3999 -0.9498
 8172TIP3    H246008   2.335   6.444  11.691 -0.3224 -0.2908  1.7543
 8173TIP3   OH246009   2.333   6.305  16.218  0.8938  0.5178 -0.2275
 8173TIP3    H146010   2.348   6.218  16.256  2.0057  0.3119 -1.0852
 8173TIP3    H246011   2.244   6.302  16.185  0.9220 -0.3142 -0.2559
 8174TIP3   OH246012   0.075   6.192  10.862  1.0579 -0.3601 -0.3865
 8174TIP3    H146013   0.102   6.145  10.783 -0.9119  1.5802 -2.2899
 8174TIP3    H246014   0.076   6.284  10.837 -0.6460  0.2188  1.5095
 8175TIP3   OH246015   4.097   0.893  16.192  0.1510 -0.2966  0.3098
 8175TIP3    H146016   4.044   0.968  16.166  1.1416  0.2902 -0.0766
 8175TIP3    H246017   4.162   0.929  16.252  0.7230 -0.8106  0.0104
 8176TIP3   OH246018   5.861   5.517  16.181  0.5947 -0.2283 -0.0895
 8176TIP3    H146019   5.787   5.460  16.200 -0.6407  0.4057 -2.7472
 8176TIP3    H246020   5.879   5.562  16.264 -0.9222 -1.5854  1.0056
 8177TIP3   OH246021   6.765   4.439  14.184  0.4621  0.1257 -0.1967
 8177TIP3    H146022   6.719   4.407  14.262  1.1383  0.8352  0.5054
 8177TIP3    H246023   6.743   4.532  14.180 -0.1021 -0.0513 -1.2404
 8178TIP3   OH246024   5.275   0.981  13.593  0.1261 -0.1665  0.8524
 8178TIP3    H146025   5.259   1.072  13.618  0.2803 -0.4811  2.1580
 8178TIP3    H246026   5.370   0.970  13.602  0.3139 -0.0032 -0.8903
 8179TIP3   OH246027   4.691   2.854  16.156  0.5103  0.2340 -0.2175
 8179TIP3    H146028   4.779   2.833  16.186  0.1283 -0.7292  0.2492
 8179TIP3    H246029   4.704   2.913  16.082  1.5147  0.8833  0.4684
 8180TIP3   OH246030   3.072   1.780  10.811  0.4586 -0.0294 -0.2646
 8180TIP3    H146031   3.041   1.854  10.864  0.2779  0.6006 -1.2462
 8180TIP3    H246032   2.993   1.737  10.780  0.5676  0.3792 -1.1056
 8181TIP3   OH246033   0.411   2.528  16.373  0.3108 -0.3832  0.1968
 8181TIP3    H146034   0.469   2.571  16.436  0.7545 -1.5797  0.6186
 8181TIP3    H246035   0.345   2.484  16.427 -0.6474  0.4551 -0.2596
 8182TIP3   OH246036   3.368   1.215  15.709  0.2116  0.0954  0.7731
 8182TIP3    H146037   3.409   1.132  15.684  0.1189  0.0889  0.6445
 8182TIP3    H246038   3.292   1.222  15.652  0.4676  0.4878  0.4771
 8183TIP3   OH246039   2.460   6.339   4.742 -0.1812 -0.3586  0.2468
 8183TIP3    H146040   2.407   6.299   4.810 -0.2191  1.3897  1.2737
 8183TIP3    H246041   2.421   6.425   4.728  0.1482 -0.4798 -1.6148
 8184TIP3   OH246042   0.768   6.570   5.569  0.0698  0.0763 -0.6770
 8184TIP3    H146043   0.717   6.490   5.576  0.2184  0.2413  3.3572
 8184TIP3    H246044   0.703   6.640   5.566 -0.0264 -0.0693 -2.8502
 8185TIP3   OH246045   3.383   1.088  11.027  0.1004  0.3171  0.1791
 8185TIP3    H146046   3.436   1.022  10.983  0.6834  0.9456 -0.0809
 8185TIP3    H246047   3.415   1.171  10.992 -0.3315  0.7546  0.8139
 8186TIP3   OH246048   1.793   1.750   1.363 -0.2534  0.0080  0.2225
 8186TIP3    H146049   1.747   1.695   1.427  0.3265 -0.2800  0.3965
 8186TIP3    H246050   1.876   1.772   1.406 -0.0648  0.2096 -0.2409
 8187TIP3   OH246051   3.410   4.991  12.105  0.2617 -0.4499 -0.1024
 8187TIP3    H146052   3.459   5.059  12.150 -1.0251  0.6582 -0.3396
 8187TIP3    H246053   3.450   4.984  12.019  0.8402 -0.4854  0.1737
 8188TIP3   OH246054   2.988   6.533   4.950 -0.5504 -0.5052  0.2500
 8188TIP3    H146055   3.057   6.471   4.975  1.6229  0.4671 -3.0684
 8188TIP3    H246056   2.933   6.484   4.889 -0.8847 -0.2333  0.3308
 8189TIP3   OH246057   1.086   5.581  12.048  0.0933  0.1082  0.2499
 8189TIP3    H146058   1.029   5.554  12.120 -0.6457 -1.2446 -0.8199
 8189TIP3    H246059   1.109   5.672  12.070 -1.2393  0.1854  1.4819
 8190TIP3   OH246060   2.856   4.217   1.951  0.0867 -0.5124  0.2306
 8190TIP3    H146061   2.879   4.124   1.958  1.6110 -0.1322  0.4796
 8190TIP3    H246062   2.934   4.258   1.914 -0.5783  0.6740  0.1247
 8191TIP3   OH246063   5.830   2.324   4.778 -0.4103 -0.7154 -0.3443
 8191TIP3    H146064   5.866   2.292   4.861 -0.1411  0.5586  0.0357
 8191TIP3    H246065   5.803   2.414   4.797 -2.8329 -1.2717 -0.9037
 8192TIP3   OH246066   3.771   4.154   3.010 -0.0773 -0.2436  0.4857
 8192TIP3    H146067   3.820   4.214   3.065 -0.6238 -1.1854  2.0353
 8192TIP3    H246068   3.837   4.109   2.958  0.3396  1.6313 -0.6560
 8193TIP3   OH246069   5.037   3.617  13.551  0.0915 -0.3545 -0.0921
 8193TIP3    H146070   5.130   3.631  13.572 -0.0171  1.5350 -0.7904
 8193TIP3    H246071   5.005   3.703  13.524 -1.8966 -0.9804  0.1859
 8194TIP3   OH246072   2.182   3.359   3.618 -0.3918  0.1676 -0.0287
 8194TIP3    H146073   2.199   3.348   3.711 -0.5893  1.6963  0.1901
 8194TIP3    H246074   2.155   3.272   3.588 -1.3739 -0.0815  1.5534
 8195TIP3   OH246075   1.575   5.526  13.095 -0.3848 -0.2892  0.3903
 8195TIP3    H146076   1.545   5.483  13.015  2.4088  1.5161 -1.7220
 8195TIP3    H246077   1.537   5.613  13.093 -1.9705 -0.9063  2.1197
 8196TIP3   OH246078   5.123   1.762   5.552 -0.8121  0.3357 -0.3488
 8196TIP3    H146079   5.199   1.818   5.538 -1.2958  1.1292  0.2028
 8196TIP3    H246080   5.065   1.813   5.608 -1.0278 -0.9191  0.5795
 8197TIP3   OH246081   3.187   2.207   2.567  0.3403 -0.6161  0.7193
 8197TIP3    H146082   3.214   2.248   2.485 -0.5318 -0.0035  0.7367
 8197TIP3    H246083   3.177   2.279   2.629 -2.6663 -0.6432  0.3433
 8198TIP3   OH246084   0.895   6.070  12.162 -0.2135 -0.0593  0.6618
 8198TIP3    H146085   0.933   6.147  12.204  1.9927 -0.5454 -0.3847
 8198TIP3    H246086   0.811   6.101  12.127  0.3727  1.7085  0.7798
 8199TIP3   OH246087   2.118   6.285   1.198 -0.5626 -0.0556 -0.4726
 8199TIP3    H146088   2.166   6.211   1.161 -0.7644 -0.7010  0.5259
 8199TIP3    H246089   2.181   6.356   1.202  0.5263 -1.0845  1.4313
 8200TIP3   OH246090   2.537   3.397   5.883 -0.0487 -0.7523  1.0830
 8200TIP3    H146091   2.579   3.332   5.940  0.6341  0.3829  1.8878
 8200TIP3    H246092   2.524   3.473   5.939 -0.9739 -0.2400  0.1786
 8201TIP3   OH246093   6.764   4.922   5.729 -0.2189  0.1002  0.1868
 8201TIP3    H146094   6.751   4.841   5.779  1.1168 -0.1447  0.1655
 8201TIP3    H246095   6.751   4.991   5.794 -2.0219 -0.0842  0.0596
 8202TIP3   OH246096   5.799   2.744   5.973  0.8834 -0.3796  0.3428
 8202TIP3    H146097   5.893   2.730   5.965  1.1287  1.8252 -1.1808
 8202TIP3    H246098   5.789   2.796   6.053  0.9443 -0.6521  0.5287
 8203TIP3   OH246099   6.371   0.033  15.281 -0.0691 -0.5630 -0.3865
 8203TIP3    H146100   6.459   0.065  15.303 -0.7841  0.2331  1.3951
 8203TIP3    H246101   6.329   0.019  15.365 -2.5238  1.4617 -1.2003
 8204TIP3   OH246102   0.062   2.809  14.135  0.5421 -0.3575  0.1629
 8204TIP3    H146103   0.096   2.879  14.190  1.0656 -1.2004  0.9345
 8204TIP3    H246104   0.007   2.853  14.070  0.9560  0.7642  0.5694
 8205TIP3   OH246105   1.687   2.414  14.321 -0.7781 -0.0780 -0.2990
 8205TIP3    H146106   1.688   2.432  14.227 -2.1560  1.9185  0.0216
 8205TIP3    H246107   1.594   2.415  14.344 -0.4074  0.3149  1.2293
 8206TIP3   OH246108   6.665   4.614  11.098 -0.6681  0.2579 -0.1765
 8206TIP3    H146109   6.727   4.673  11.055  0.8123 -1.8410 -1.0063
 8206TIP3    H246110   6.601   4.672  11.140  0.7073  2.4236 -1.0180
 8207TIP3   OH246111   5.829   4.686   1.745 -0.4682  0.1201 -0.5926
 8207TIP3    H146112   5.821   4.675   1.651 -0.2319  0.5804 -0.6706
 8207TIP3    H246113   5.921   4.666   1.764 -0.4529  0.2825 -0.4952
 8208TIP3   OH246114   2.637   4.767   5.645 -0.4032  0.2697 -1.0253
 8208TIP3    H146115   2.683   4.835   5.596  0.5258  0.4397  0.0714
 8208TIP3    H246116   2.584   4.814   5.709 -0.1790 -0.0149 -0.6296
 8209TIP3   OH246117   3.349   1.844   0.571 -0.1544 -0.4905 -0.3100
 8209TIP3    H146118   3.426   1.808   0.528  1.0283 -0.0288  1.3682
 8209TIP3    H246119   3.378   1.863   0.660 -2.0534  0.2218  0.1814
 8210TIP3   OH246120   4.601   0.482  12.106  0.0634 -0.4453 -0.0644
 8210TIP3    H146121   4.558   0.465  12.189 -1.4750  2.7312 -0.1126
 8210TIP3    H246122   4.555   0.428  12.043  0.2028 -1.6797  0.8741
 8211TIP3   OH246123   1.468   5.102  16.839 -0.5972  0.3428  0.2173
 8211TIP3    H146124   1.460   5.128  16.747 -0.8742 -0.8614 -0.0983
 8211TIP3    H246125   1.545   5.046  16.841  0.2202  1.4625  0.9710
 8212TIP3   OH246126   6.244   5.495  11.427  0.5123  0.1187 -0.1564
 8212TIP3    H146127   6.232   5.410  11.386  0.8562 -0.4908  0.9689
 8212TIP3    H246128   6.155   5.531  11.436  0.3668 -0.1274 -0.6185
 8213TIP3   OH246129   0.092   5.454  14.911 -0.1029  0.4883 -0.2817
 8213TIP3    H146130   0.009   5.498  14.931  0.4023  0.6220  1.6294
 8213TIP3    H246131   0.146   5.467  14.990  0.6105 -2.2673 -0.2636
 8214TIP3   OH246132   3.766   6.395   5.304 -0.1342  0.3117  0.1960
 8214TIP3    H146133   3.837   6.331   5.302 -0.2973  0.0784  1.2686
 8214TIP3    H246134   3.689   6.346   5.272  0.0463  0.3769 -0.3397
 8215TIP3   OH246135   2.896   5.618   0.372  0.6907 -0.4120 -0.3565
 8215TIP3    H146136   2.870   5.568   0.294 -1.4288 -0.7787  0.5472
 8215TIP3    H246137   2.847   5.699   0.365  1.8097  0.2807 -0.2502
 8216TIP3   OH246138   4.040   1.432   3.260 -0.2498  0.4049 -0.3343
 8216TIP3    H146139   3.993   1.405   3.181  0.1125 -1.0720 -0.0799
 8216TIP3    H246140   3.978   1.416   3.332 -0.3913  1.2367 -0.2699
 8217TIP3   OH246141   1.027   1.092  14.808 -0.5704 -0.4279 -0.1852
 8217TIP3    H146142   1.099   1.029  14.817 -0.5794 -0.4888 -0.5640
 8217TIP3    H246143   0.982   1.066  14.728 -2.9499 -2.3726  1.7101
 8218TIP3   OH246144   1.218   5.991  14.567 -0.2373  0.5875  0.0808
 8218TIP3    H146145   1.124   6.004  14.554 -0.3617  0.0676  0.4207
 8218TIP3    H246146   1.256   6.077  14.556 -0.8889  1.0187  1.0846
 8219TIP3   OH246147   6.334   5.952  11.299  0.0394  0.4727 -0.2363
 8219TIP3    H146148   6.392   5.896  11.248  2.0570  2.5837 -0.3419
 8219TIP3    H246149   6.383   5.970  11.379 -0.2008  2.7518 -0.5710
 8220TIP3   OH246150   3.731   2.360   5.070 -0.6323  0.4135  0.1901
 8220TIP3    H146151   3.730   2.392   5.160 -0.4981 -1.2716  0.8112
 8220TIP3    H246152   3.763   2.434   5.019  0.6444  0.9440  1.7112
 8221TIP3   OH246153   3.130   1.799  17.136 -0.7781 -0.1879 -0.7576
 8221TIP3    H146154   3.047   1.794  17.184 -0.8345  0.6321 -0.7714
 8221TIP3    H246155   3.181   1.725  17.170 -1.6787 -0.9720 -1.0756
 8222TIP3   OH246156   3.941   1.773  13.090  0.2327  0.5142 -0.0813
 8222TIP3    H146157   3.937   1.690  13.042 -1.6394  0.0437  0.8356
 8222TIP3    H246158   3.949   1.840  13.022  0.0301 -0.2971 -0.9090
 8223TIP3   OH246159   4.716   0.734   1.903 -0.1880 -0.8556  0.6906
 8223TIP3    H146160   4.774   0.752   1.830 -0.3196  0.0515  0.7933
 8223TIP3    H246161   4.772   0.693   1.969  0.6154  1.0117  1.2238
 8224TIP3   OH246162   5.335   5.161  10.353  0.0158 -0.1132  1.0782
 8224TIP3    H146163   5.308   5.199  10.269 -0.8085 -1.7016  0.5942
 8224TIP3    H246164   5.355   5.237  10.408 -2.7793  1.0897  0.5473
 8225TIP3   OH246165   2.112   3.504   2.309 -0.3188  0.1755  0.3053
 8225TIP3    H146166   2.196   3.511   2.264  0.5560 -0.4735  1.8298
 8225TIP3    H246167   2.055   3.459   2.246  0.6698 -0.0553 -0.4342
 8226TIP3   OH246168   6.332   1.123   5.324 -0.3790  0.0118  0.3892
 8226TIP3    H146169   6.287   1.064   5.263 -2.0597  0.7425  0.9248
 8226TIP3    H246170   6.329   1.077   5.408  0.5269 -0.2581  0.2856
 8227TIP3   OH246171   4.211   4.973  11.314  0.1030 -0.1920  0.3694
 8227TIP3    H146172   4.223   4.885  11.278 -0.8104  0.7194 -2.2092
 8227TIP3    H246173   4.296   5.015  11.302  0.6653 -0.8023  1.9736
 8228TIP3   OH246174   3.559   6.067  11.740  0.1874  0.2817  0.5338
 8228TIP3    H146175   3.467   6.088  11.723  0.1944  0.1207  0.2917
 8228TIP3    H246176   3.605   6.092  11.660  0.1975 -0.6478  0.2431
 8229TIP3   OH246177   1.817   6.126  17.163 -0.0729 -0.2545 -0.3417
 8229TIP3    H146178   1.798   6.219  17.154 -2.6699 -0.8682 -1.7496
 8229TIP3    H246179   1.818   6.093  17.074 -0.6658 -1.8269  0.2171
 8230TIP3   OH246180   3.944   1.892  12.600 -0.1916  0.2709  0.4819
 8230TIP3    H146181   3.882   1.961  12.623 -0.9146 -0.1001 -0.3239
 8230TIP3    H246182   3.909   1.814  12.644 -0.4705 -0.0068 -0.2307
 8231TIP3   OH246183   4.749   1.435  15.368  0.5740  0.2026 -0.1969
 8231TIP3    H146184   4.658   1.451  15.343  0.0365 -2.6000 -0.1834
 8231TIP3    H246185   4.801   1.475  15.298 -0.7252 -0.4022 -1.5313
 8232TIP3   OH246186   1.792   1.954  12.044  0.5597  0.6905 -0.0888
 8232TIP3    H146187   1.761   1.945  12.134 -0.9030  1.2680 -0.5291
 8232TIP3    H246188   1.772   2.044  12.020  2.4406  1.0439 -0.4493
 8233TIP3   OH246189   6.193   1.414   0.939  0.5146  0.0942 -0.3154
 8233TIP3    H146190   6.273   1.428   0.989 -0.8671  0.2428  1.9352
 8233TIP3    H246191   6.216   1.439   0.850  2.4561  1.9349  0.6399
 8234TIP3   OH246192   5.211   0.653   5.534 -0.3391 -0.0812 -0.2653
 8234TIP3    H146193   5.245   0.743   5.534 -0.5457  0.0582  2.5702
 8234TIP3    H246194   5.280   0.601   5.495  0.3226  1.1472 -0.7634
 8235TIP3   OH246195   5.948   3.747  13.986  0.1155  0.0480 -0.2611
 8235TIP3    H146196   5.956   3.843  13.991 -0.2819  0.0827 -0.2258
 8235TIP3    H246197   5.922   3.721  14.074  2.7850 -0.3717  0.4187
 8236TIP3   OH246198   3.577   0.315   3.715  0.1908  0.0442 -0.5319
 8236TIP3    H146199   3.589   0.318   3.620 -0.3569  1.0647 -0.5811
 8236TIP3    H246200   3.648   0.370   3.749 -1.0786  1.7033 -0.5088
 8237TIP3   OH246201   5.092   1.473   1.604 -0.1652 -0.2125  0.6859
 8237TIP3    H146202   5.005   1.450   1.635 -0.5847  0.5159  0.0605
 8237TIP3    H246203   5.105   1.564   1.633 -0.2725  0.2316 -0.6040
 8238TIP3   OH246204   1.009   6.564   1.269 -0.3688 -0.7960  0.0615
 8238TIP3    H146205   0.949   6.595   1.336 -1.2979 -0.4151 -0.9398
 8238TIP3    H246206   1.093   6.606   1.290 -0.7147 -0.4900  0.8265
 8239TIP3   OH246207   4.494   5.546  12.524  0.5937  0.1518 -0.2353
 8239TIP3    H146208   4.425   5.565  12.461  0.3540  0.5373  0.1441
 8239TIP3    H246209   4.479   5.607  12.596  0.6431 -0.5361  0.3640
 8240TIP3   OH246210   4.731   5.077   3.646 -0.1706 -0.6254  0.1752
 8240TIP3    H146211   4.746   5.115   3.559 -1.8073  1.2567  0.6758
 8240TIP3    H246212   4.679   4.998   3.628 -1.9415  0.6473 -0.4734
 8241TIP3   OH246213   0.220   1.372   0.254  0.5331 -0.3539 -0.4247
 8241TIP3    H146214   0.256   1.459   0.275  2.1933 -0.5951 -2.1522
 8241TIP3    H246215   0.130   1.389   0.229  0.5290  0.7510  0.2858
 8242TIP3   OH246216   4.155   5.076  13.460  0.0062 -0.2250 -0.0713
 8242TIP3    H146217   4.076   5.051  13.413 -0.2540  0.2465  0.1069
 8242TIP3    H246218   4.170   5.005  13.523  0.2401 -0.7535 -0.7211
 8243TIP3   OH246219   5.716   0.895  10.782 -0.3745  0.0896 -0.5669
 8243TIP3    H146220   5.656   0.880  10.708 -0.8586 -0.6363 -0.0348
 8243TIP3    H246221   5.718   0.990  10.792 -0.6121  0.1753 -1.2625
 8244TIP3   OH246222   0.700   5.408  15.893  0.0441 -0.4679 -0.5512
 8244TIP3    H146223   0.696   5.365  15.978 -0.6483  0.4146 -0.1243
 8244TIP3    H246224   0.777   5.372  15.851  2.4468  1.6421  1.8570
 8245TIP3   OH246225   1.948   3.877  14.699  0.2080  0.0083 -0.3247
 8245TIP3    H146226   1.979   3.964  14.727  0.8225 -0.2402 -0.2152
 8245TIP3    H246227   1.913   3.838  14.779 -1.0154  0.5501 -0.5866
 8246TIP3   OH246228   1.070   5.285   4.046 -0.3948  0.8027 -0.1561
 8246TIP3    H146229   1.048   5.262   3.955 -0.3167  0.3198 -0.0561
 8246TIP3    H246230   1.163   5.264   4.054 -0.6748 -0.2441  0.3662
 8247TIP3   OH246231   4.186   1.931   5.754 -0.5823 -0.5070 -0.3198
 8247TIP3    H146232   4.172   1.889   5.839  0.4461  0.9458  0.5896
 8247TIP3    H246233   4.154   2.020   5.765  1.0132  0.1726 -0.9376
 8248TIP3   OH246234   0.612   0.195   5.410 -0.4925 -0.1488  0.4329
 8248TIP3    H146235   0.605   0.168   5.319  0.3915  0.4249  0.1914
 8248TIP3    H246236   0.601   0.114   5.460 -2.4607 -0.2590 -0.1083
 8249TIP3   OH246237   1.942   0.625  11.798  0.5505 -0.5024  0.5199
 8249TIP3    H146238   1.856   0.610  11.759  1.8257 -1.2048 -2.1387
 8249TIP3    H246239   1.971   0.538  11.826  1.3301 -0.6134 -0.6200
 8250TIP3   OH246240   6.350   2.632   0.043  0.7192  0.4737  0.3123
 8250TIP3    H146241   6.316   2.545   0.061  0.1600  0.8919  1.3313
 8250TIP3    H246242   6.285   2.672  -0.014 -0.8599  1.4793  2.7213
 8251TIP3   OH246243   0.424   4.351  16.893  0.4611 -0.5118 -0.2245
 8251TIP3    H146244   0.372   4.359  16.973  0.7190 -0.9616 -0.0136
 8251TIP3    H246245   0.437   4.441  16.864  1.2121 -0.2962  0.7853
 8252TIP3   OH246246   5.331   1.917   1.640 -0.1128  0.0992  0.5478
 8252TIP3    H146247   5.391   1.938   1.711 -0.5008  0.3056  0.8149
 8252TIP3    H246248   5.388   1.904   1.564  0.3073 -0.2198  0.9184
 8253TIP3   OH246249   5.522   4.745   5.831 -0.5137 -0.4351  0.4117
 8253TIP3    H146250   5.435   4.779   5.852 -0.2596  0.1120  0.5649
 8253TIP3    H246251   5.545   4.691   5.907 -1.6892 -2.4408 -0.6165
 8254TIP3   OH246252   2.686   5.790  16.008  0.3932 -0.0216  0.0950
 8254TIP3    H146253   2.720   5.719  15.954  0.9229  0.0367  0.3541
 8254TIP3    H246254   2.591   5.780  16.003  0.4415 -0.2000 -0.5986
 8255TIP3   OH246255   0.291   1.148   0.066 -0.0875 -1.0185 -0.5936
 8255TIP3    H146256   0.277   1.216   0.132 -0.4460 -2.7237  1.1339
 8255TIP3    H246257   0.386   1.142   0.058 -0.0645  0.0474 -1.1397
 8256TIP3   OH246258   6.246   2.499   4.366  0.7203  0.2665  0.0515
 8256TIP3    H146259   6.294   2.517   4.447  0.6792  0.6065  0.0033
 8256TIP3    H246260   6.276   2.567   4.306  3.5338 -2.1289 -1.3938
 8257TIP3   OH246261   2.547   1.958   3.156  0.0278  0.1234 -0.3336
 8257TIP3    H146262   2.616   2.004   3.109  0.5414 -0.4095 -0.1146
 8257TIP3    H246263   2.539   1.874   3.110  0.4041 -0.3281  0.4021
 8258TIP3   OH246264   5.532   6.780   3.835 -0.4222  0.0197  0.2507
 8258TIP3    H146265   5.600   6.715   3.855  0.2136  0.8922  1.0097
 8258TIP3    H246266   5.550   6.807   3.746  1.5631  1.7879  1.1453
 8259TIP3   OH246267   0.999   2.807  11.765 -0.2424  0.1735  0.2916
 8259TIP3    H146268   0.946   2.730  11.781  0.5196 -0.4665 -0.2653
 8259TIP3    H246269   1.068   2.778  11.705 -0.0175  1.3031 -0.0146
 8260TIP3   OH246270   2.224   5.442   4.345  0.1228 -0.0693  0.0852
 8260TIP3    H146271   2.310   5.434   4.386 -0.2629  0.3847  1.0061
 8260TIP3    H246272   2.241   5.486   4.261  1.1440 -2.7163 -1.1207
 8261TIP3   OH246273   4.065   6.052  10.973  0.4142 -0.0021 -0.2213
 8261TIP3    H146274   4.042   6.145  10.980 -0.9992 -0.1909 -1.8609
 8261TIP3    H246275   4.134   6.049  10.906  0.3943 -0.1333 -0.2347
 8262TIP3   OH246276   5.958   4.220  14.865  0.3974  0.4495  0.1801
 8262TIP3    H146277   6.006   4.204  14.784  0.8355 -0.7357  0.6652
 8262TIP3    H246278   5.871   4.250  14.836 -0.4132 -2.6773 -0.7685
 8263TIP3   OH246279   6.050   5.853   0.942 -0.4588  0.4403  0.1527
 8263TIP3    H146280   6.017   5.939   0.918  0.6804  0.2172 -2.3700
 8263TIP3    H246281   6.063   5.858   1.037 -1.2723  2.7196  0.1768
 8264TIP3   OH246282   0.713   3.046   1.628 -1.1094 -0.3215  0.3874
 8264TIP3    H146283   0.674   3.132   1.612 -0.7271 -0.0764  0.7718
 8264TIP3    H246284   0.667   3.012   1.705 -0.3673  0.0984  1.0284
 8265TIP3   OH246285   4.113   0.907   2.959 -0.1945 -0.3612 -0.3187
 8265TIP3    H146286   4.102   0.815   2.981  0.3894 -0.4058 -0.2077
 8265TIP3    H246287   4.195   0.932   3.000  0.0424  0.0041 -1.0023
 8266TIP3   OH246288   2.946   6.073  16.093  0.6237  0.6335  0.0166
 8266TIP3    H146289   2.961   5.985  16.057  0.7309  0.2554  0.9625
 8266TIP3    H246290   3.033   6.109  16.106  0.5821  0.8259 -0.2480
 8267TIP3   OH246291   2.308   2.714   1.681 -0.5469 -0.3606 -0.1037
 8267TIP3    H146292   2.362   2.679   1.751  0.9702  1.7022 -0.1795
 8267TIP3    H246293   2.344   2.676   1.601  0.7402  0.8563 -0.1363
 8268TIP3   OH246294   0.611   5.757  15.579  0.2325 -0.4202 -0.4270
 8268TIP3    H146295   0.675   5.791  15.517  3.5626 -2.3534  1.7892
 8268TIP3    H246296   0.593   5.668  15.548 -1.8041  0.2704 -1.3028
 8269TIP3   OH246297   1.305   5.343   5.856 -0.1281  0.5710  0.8009
 8269TIP3    H146298   1.395   5.366   5.881  0.2823  0.6279 -0.6570
 8269TIP3    H246299   1.272   5.292   5.929  0.8141  1.2461  1.7161
 8270TIP3   OH246300   0.595   3.880   1.148  0.2981  0.5861 -0.4371
 8270TIP3    H146301   0.627   3.952   1.203  1.6164 -0.1256 -0.2465
 8270TIP3    H246302   0.674   3.843   1.109 -0.3612 -0.7985 -0.4872
 8271TIP3   OH246303   3.641   0.758  14.583  0.2853 -0.0530  0.7941
 8271TIP3    H146304   3.731   0.727  14.592 -0.3289 -1.7616  1.1684
 8271TIP3    H246305   3.649   0.853  14.575  2.2016 -0.2830 -0.3601
 8272TIP3   OH246306   1.205   6.757   5.336 -0.4543  0.0867  0.0251
 8272TIP3    H146307   1.249   6.789   5.415  1.2768 -0.6129 -0.6346
 8272TIP3    H246308   1.114   6.746   5.363  0.4228 -1.7668  2.4372
 8273TIP3   OH246309   6.560   4.463  13.828  0.6223  0.2952 -0.0957
 8273TIP3    H146310   6.608   4.439  13.749 -1.3233 -0.1270 -1.1980
 8273TIP3    H246311   6.540   4.380  13.870 -0.3387  0.3585 -0.4007
 8274TIP3   OH246312   1.307   3.039   0.028 -0.2793  0.2794  0.0839
 8274TIP3    H146313   1.251   3.096  -0.025 -0.5584  0.3830  0.4930
 8274TIP3    H246314   1.285   3.061   0.119  0.5488  0.4444  0.2441
 8275TIP3   OH246315   5.635   0.024  13.247  0.0862  0.3088 -0.1403
 8275TIP3    H146316   5.650   0.083  13.174 -1.0195 -1.5599 -1.9312
 8275TIP3    H246317   5.721   0.015  13.289  0.7636  1.2585 -1.3030
 8276TIP3   OH246318   3.415   1.226   1.706  0.0201  1.1525 -0.5976
 8276TIP3    H146319   3.338   1.172   1.690  1.7461 -0.9382 -1.9100
 8276TIP3    H246320   3.382   1.298   1.761 -2.6206 -0.2980 -0.2209
 8277TIP3   OH246321   3.434   1.188   5.754 -0.1060 -0.6334  0.1480
 8277TIP3    H146322   3.499   1.196   5.823 -0.2158  0.1800  0.1581
 8277TIP3    H246323   3.410   1.278   5.732 -3.3722 -0.9302  2.1303
 8278TIP3   OH246324   4.676   5.474  12.984  0.3684 -0.2931  0.5874
 8278TIP3    H146325   4.744   5.527  12.943  0.3297  0.1241  1.0653
 8278TIP3    H246326   4.687   5.487  13.078 -1.2663  0.9185  0.6374
 8279TIP3   OH246327   6.217   0.095  15.544 -0.2898  0.1889  0.1525
 8279TIP3    H146328   6.296   0.071  15.592  1.0756  2.3041 -0.9343
 8279TIP3    H246329   6.172   0.012  15.528  2.4139 -1.2293 -0.4044
 8280TIP3   OH246330   2.275   5.293  11.662 -0.6190  0.0485  0.4307
 8280TIP3    H146331   2.274   5.387  11.643 -1.2449 -0.1156 -0.3693
 8280TIP3    H246332   2.354   5.261  11.618  0.3921  0.4448  1.9324
 8281TIP3   OH246333   5.020   4.205   3.762  0.1530  0.4260 -0.3097
 8281TIP3    H146334   5.063   4.186   3.846  0.6262  2.4621 -0.0569
 8281TIP3    H246335   5.007   4.300   3.764 -1.6658  0.2116 -1.6845
 8282TIP3   OH246336   3.570   1.654  15.938  0.5820 -0.2545 -0.2781
 8282TIP3    H146337   3.652   1.629  15.982  0.3709  2.1472  1.5810
 8282TIP3    H246338   3.584   1.744  15.910 -1.0187 -0.2104 -0.9829
 8283TIP3   OH246339   1.432   1.470  11.490  0.1689 -0.0863  0.4357
 8283TIP3    H146340   1.432   1.475  11.585 -0.1882 -2.4594  0.5789
 8283TIP3    H246341   1.462   1.556  11.461 -0.0497  0.7572  2.6787
 8284TIP3   OH246342   4.681   1.045   3.162 -0.9536  0.1553  0.5017
 8284TIP3    H146343   4.775   1.038   3.148 -0.8675  1.3863  0.4260
 8284TIP3    H246344   4.649   0.955   3.156  0.5596 -0.6127  3.0687
 8285TIP3   OH246345   3.158   5.017  14.427 -0.0778  0.3235  0.3843
 8285TIP3    H146346   3.191   5.029  14.338 -1.0704  1.4700  0.1572
 8285TIP3    H246347   3.222   5.062  14.482 -0.4884  1.3404  0.0631
 8286TIP3   OH246348   4.856   1.566   2.100  0.0089 -0.3512 -0.2523
 8286TIP3    H146349   4.864   1.612   2.016  0.6310  0.7147  0.3694
 8286TIP3    H246350   4.811   1.629   2.157 -2.4730 -1.9302 -0.4262
 8287TIP3   OH246351   4.441   5.565  10.628  0.0101  0.1540 -0.1501
 8287TIP3    H146352   4.393   5.554  10.546  3.1848  2.3284 -2.4542
 8287TIP3    H246353   4.475   5.478  10.648 -1.7676 -0.6411 -0.4782
 8288TIP3   OH246354   4.478   5.509  12.141 -0.0654  0.1740  0.3646
 8288TIP3    H146355   4.573   5.500  12.152 -0.0761  0.5167  0.7368
 8288TIP3    H246356   4.452   5.430  12.093  0.4209  0.1271  0.1731
 8289TIP3   OH246357   1.105   1.230  15.025 -0.6887  0.2513 -0.1200
 8289TIP3    H146358   1.154   1.167  15.078  0.2190 -1.1307 -2.5071
 8289TIP3    H246359   1.042   1.176  14.976 -2.3641  1.6301  0.4641
 8290TIP3   OH246360   1.062   5.320   1.788 -0.3975 -0.7907  0.4805
 8290TIP3    H146361   0.979   5.365   1.804  0.5902  1.7177 -1.3004
 8290TIP3    H246362   1.086   5.344   1.699  1.1161 -3.3938  0.1298
 8291TIP3   OH246363   3.869   5.003  16.862 -0.5061  0.3695  0.3733
 8291TIP3    H146364   3.838   4.914  16.842 -1.7204  0.7281  0.5956
 8291TIP3    H246365   3.884   5.003  16.957  0.0592  0.2364  0.2880
 8292TIP3   OH246366   4.394   3.869   5.723  0.6095 -0.0248  0.0617
 8292TIP3    H146367   4.414   3.781   5.691  0.7268  0.4053 -1.0632
 8292TIP3    H246368   4.317   3.896   5.674 -0.7837 -0.3572  2.0011
 8293TIP3   OH246369   3.264   5.863  13.351 -0.0757  0.2910 -0.0384
 8293TIP3    H146370   3.243   5.944  13.306  0.1475  1.1705  1.4149
 8293TIP3    H246371   3.181   5.831  13.385 -0.0676  0.2366 -0.0699
 8294TIP3   OH246372   3.198   3.952   5.137 -0.4009  0.3440 -0.5329
 8294TIP3    H146373   3.222   3.891   5.206  0.9486 -0.7885 -1.9648
 8294TIP3    H246374   3.114   3.988   5.165  0.3366  0.2686  1.8971
 8295TIP3   OH246375   6.388   1.058  10.960  0.2346  0.0084 -0.3320
 8295TIP3    H146376   6.382   1.126  10.893 -0.4317  1.4792  1.1842
 8295TIP3    H246377   6.297   1.030  10.973  0.5317 -1.4046 -1.1509
 8296TIP3   OH246378   6.098   4.316   5.405  0.2276  0.0738 -0.2961
 8296TIP3    H146379   6.137   4.356   5.482  1.0022  1.4244 -1.3511
 8296TIP3    H246380   6.004   4.330   5.415  0.1212 -1.7022  1.4417
 8297TIP3   OH246381   0.696   4.636  11.463  0.2803 -0.2971 -0.6637
 8297TIP3    H146382   0.789   4.630  11.442 -0.1031 -2.7280 -1.9315
 8297TIP3    H246383   0.687   4.589  11.545  0.5187  2.0949  0.7667
 8298TIP3   OH246384   4.924   4.706  13.764 -0.5477 -0.1447  0.1557
 8298TIP3    H146385   4.905   4.613  13.775  1.7539 -0.6607  0.0969
 8298TIP3    H246386   4.978   4.710  13.684  0.6865  1.0295  1.0250
 8299TIP3   OH246387   1.477   3.938  14.759 -0.2413 -0.3932 -0.1263
 8299TIP3    H146388   1.392   3.978  14.743  0.0431 -0.2506 -1.3707
 8299TIP3    H246389   1.457   3.858  14.808 -0.9400  0.4441  0.9785
 8300TIP3   OH246390   4.761   4.071  10.732  0.7345  0.7522 -0.1912
 8300TIP3    H146391   4.797   3.992  10.692  0.3907  0.7326 -0.4693
 8300TIP3    H246392   4.680   4.087  10.683 -0.1750  0.1963  1.1123
 8301TIP3   OH246393   0.104   5.113  12.563 -0.0125  0.5554 -0.0792
 8301TIP3    H146394   0.122   5.093  12.655 -0.8021  2.7434  0.5818
 8301TIP3    H246395   0.190   5.126  12.524  0.4535 -2.5663 -0.2119
 8302TIP3   OH246396   3.112   4.822  15.317  0.0712  0.1544 -0.1853
 8302TIP3    H146397   3.169   4.780  15.253 -0.2232 -0.5256 -0.0067
 8302TIP3    H246398   3.086   4.905  15.276 -0.0948 -0.2659 -0.9375
 8303TIP3   OH246399   4.536   2.462   3.855 -0.2515  0.9459  0.2766
 8303TIP3    H146400   4.479   2.481   3.780  0.2738  0.4619 -0.2495
 8303TIP3    H246401   4.622   2.495   3.829 -0.0279  0.6212  0.5976
 8304TIP3   OH246402   5.555   2.051  11.278 -0.5219  0.5213  0.0855
 8304TIP3    H146403   5.647   2.073  11.290 -0.0752 -1.1784 -0.1594
 8304TIP3    H246404   5.543   2.049  11.183  0.0086 -2.5328  0.0526
 8305TIP3   OH246405   0.448   4.145  17.238 -0.1547 -0.0214 -0.4757
 8305TIP3    H146406   0.462   4.181  17.326  0.6619 -1.2166 -0.1180
 8305TIP3    H246407   0.536   4.132  17.203 -0.4759  1.2975 -1.8370
 8306TIP3   OH246408   3.907   4.871   0.878  0.1340 -0.0199  0.2231
 8306TIP3    H146409   3.942   4.922   0.952  2.2730  1.6800 -1.8668
 8306TIP3    H246410   3.876   4.790   0.918 -2.1435  2.3060  3.4781
 8307TIP3   OH246411   3.102   4.270   5.574 -0.4572  0.1947 -0.0933
 8307TIP3    H146412   3.027   4.275   5.635 -0.7558  0.2730 -0.4663
 8307TIP3    H246413   3.134   4.360   5.569 -0.1818  0.1201  0.2550
 8308TIP3   OH246414   0.665   6.538  12.042 -0.4594 -0.2131  0.3118
 8308TIP3    H146415   0.688   6.508  11.955 -3.5793  1.7251 -1.2829
 8308TIP3    H246416   0.610   6.468  12.078  1.4743 -1.3723  1.0948
 8309TIP3   OH246417   4.636   4.081  10.979 -0.0264  0.2712  0.2870
 8309TIP3    H146418   4.575   4.154  10.966  0.2365  0.7185  1.4841
 8309TIP3    H246419   4.673   4.065  10.893 -2.7292 -0.8164 -0.7267
 8310TIP3   OH246420   5.588   1.040  13.323 -0.2213 -0.2354  0.2507
 8310TIP3    H146421   5.504   1.026  13.279 -1.0505 -0.2097  1.7811
 8310TIP3    H246422   5.622   1.120  13.284 -0.8064 -0.3514 -0.5229
 8311TIP3   OH246423   0.984   6.668   3.907 -0.1904 -0.0917 -0.2508
 8311TIP3    H146424   0.923   6.625   3.847 -1.9246  0.6886  0.9075
 8311TIP3    H246425   0.956   6.760   3.907 -0.0658 -0.0420  1.5510
 8312TIP3   OH246426   4.918   0.587  16.770 -0.2719 -0.3087 -0.0975
 8312TIP3    H146427   5.005   0.608  16.736 -0.1189  3.5966  2.3845
 8312TIP3    H246428   4.934   0.543  16.853 -0.6724 -0.5473 -0.1449
 8313TIP3   OH246429   1.875   2.982  17.109  0.3002 -0.2807 -0.4515
 8313TIP3    H146430   1.949   2.947  17.060 -0.2063 -1.1684 -0.5819
 8313TIP3    H246431   1.798   2.955  17.059 -0.0547  2.2035 -1.3425
 8314TIP3   OH246432   3.001   6.211   2.246 -0.1865  0.1949 -0.3276
 8314TIP3    H146433   2.979   6.118   2.253 -1.5047  0.5662  0.7883
 8314TIP3    H246434   3.052   6.229   2.325  0.6608  0.2781 -0.8831
 8315TIP3   OH246435   2.501   3.534   4.734  0.1462 -0.2237 -0.0524
 8315TIP3    H146436   2.444   3.467   4.696  0.4380 -0.0154 -0.8752
 8315TIP3    H246437   2.454   3.617   4.721 -1.0682 -0.4362  2.6162
 8316TIP3   OH246438   5.670   1.845   0.697  0.0469  0.3051  0.3683
 8316TIP3    H146439   5.590   1.871   0.742  0.3257  1.4048  0.2461
 8316TIP3    H246440   5.678   1.906   0.624  0.1377 -0.8221 -0.5928
 8317TIP3   OH246441   5.101   3.536  15.841  0.7659  0.2596  0.3947
 8317TIP3    H146442   5.018   3.577  15.863  1.9027  1.0865  3.4117
 8317TIP3    H246443   5.090   3.444  15.865  1.0791  0.5924  1.8177
 8318TIP3   OH246444   3.960   2.861  15.636  0.0689  0.2828  0.2591
 8318TIP3    H146445   3.956   2.813  15.553  1.3471 -2.2184  1.6046
 8318TIP3    H246446   4.050   2.894  15.640  0.1292  0.0465  0.8420
 8319TIP3   OH246447   1.141   6.210   2.632 -0.1704  0.6618 -0.1124
 8319TIP3    H146448   1.202   6.224   2.704 -0.3771 -1.2230  0.4596
 8319TIP3    H246449   1.196   6.195   2.555  0.0767  0.2510  0.1447
 8320TIP3   OH246450   6.736   3.811  16.972  0.2898 -0.5330 -0.2224
 8320TIP3    H146451   6.666   3.826  17.035  1.2949  1.7204  0.4012
 8320TIP3    H246452   6.699   3.841  16.888 -0.1781 -1.2202 -0.2662
 8321TIP3   OH246453   5.100   2.933  16.806 -0.1084  0.4300  0.3692
 8321TIP3    H146454   5.133   2.897  16.888  1.1948  0.5567 -0.0959
 8321TIP3    H246455   5.172   2.923  16.744 -0.8921  0.8339 -0.6247
 8322TIP3   OH246456   5.267   3.922   5.693 -0.0728 -0.2590 -0.3360
 8322TIP3    H146457   5.268   3.862   5.767  0.7888  0.5620  0.3230
 8322TIP3    H246458   5.175   3.948   5.685 -0.6132 -2.3820 -1.2233
 8323TIP3   OH246459   1.605   1.585   6.100  0.1712  0.9045  0.1482
 8323TIP3    H146460   1.692   1.566   6.134 -1.6540 -0.7412  4.3173
 8323TIP3    H246461   1.573   1.500   6.068 -1.1797  0.6516  2.0284
 8324TIP3   OH246462   1.638   1.027  14.175 -0.1409 -0.1686 -0.1724
 8324TIP3    H146463   1.671   1.106  14.218  0.8803 -0.4025 -0.5105
 8324TIP3    H246464   1.564   1.000  14.229  0.3450  0.2544  0.7251
 8325TIP3   OH246465   5.550   0.100   5.092 -0.3251  0.9192 -0.1377
 8325TIP3    H146466   5.610   0.159   5.136 -0.4502  1.7579 -1.0710
 8325TIP3    H246467   5.473   0.095   5.149 -0.1851  1.4081  0.0925
 8326TIP3   OH246468   6.741   3.873   4.303  0.1596 -0.6696  0.3501
 8326TIP3    H146469   6.703   3.834   4.382 -0.4071 -1.2356 -0.1934
 8326TIP3    H246470   6.676   3.935   4.272  1.1830  0.9475  1.3672
 8327TIP3   OH246471   4.244   0.052  17.220 -0.3299 -0.4388  0.0099
 8327TIP3    H146472   4.217   0.058  17.311 -0.4903 -0.1422 -0.0585
 8327TIP3    H246473   4.163   0.060  17.170 -0.0592  1.0545 -0.2175
 8328TIP3   OH246474   2.342   6.304   2.247  0.0021  0.7332  0.1391
 8328TIP3    H146475   2.381   6.276   2.330 -0.7536 -0.9720 -0.0560
 8328TIP3    H246476   2.414   6.302   2.185  0.2919  0.7338  0.4723
 8329TIP3   OH246477   2.596   5.445  15.412  0.3238 -0.2810  0.0405
 8329TIP3    H146478   2.594   5.540  15.415  0.0813 -0.2238 -1.6216
 8329TIP3    H246479   2.669   5.424  15.354 -0.9721 -1.0539 -1.3327
 8330TIP3   OH246480   0.616   6.066   3.477 -0.2110  0.4766 -0.1231
 8330TIP3    H146481   0.552   6.103   3.418  1.5752  1.4892 -1.4686
 8330TIP3    H246482   0.680   6.024   3.420  1.7448  1.8022  1.0395
 8331TIP3   OH246483   4.293   2.292   5.420 -0.1390  0.5881 -0.3358
 8331TIP3    H146484   4.270   2.368   5.473 -0.8826 -0.2345  0.5604
 8331TIP3    H246485   4.294   2.325   5.330 -1.2164  1.4946 -0.0380
 8332TIP3   OH246486   0.143   6.410   2.812 -0.2928 -0.0385  0.3827
 8332TIP3    H146487   0.113   6.351   2.743  2.0438 -0.7510 -0.0597
 8332TIP3    H246488   0.151   6.354   2.889 -2.7822  0.7329  1.2543
 8333TIP3   OH246489   0.330   3.398  11.909 -0.7682 -0.0726 -0.2310
 8333TIP3    H146490   0.302   3.413  11.819  0.8390  1.4940 -0.5041
 8333TIP3    H246491   0.424   3.378  11.903 -0.6095  0.1833  1.0959
 8334TIP3   OH246492   1.275   6.369  16.564 -0.3743 -0.2084 -0.2226
 8334TIP3    H146493   1.306   6.459  16.577 -1.5281 -0.1387  2.5350
 8334TIP3    H246494   1.182   6.373  16.587  0.3128 -2.7505  3.3743
 8335TIP3   OH246495   3.843   2.187  16.174  0.2823 -0.3572  0.2651
 8335TIP3    H146496   3.781   2.138  16.228  0.1168  0.7819  1.1449
 8335TIP3    H246497   3.928   2.172  16.215  0.4429 -1.1229 -0.3551
 8336TIP3   OH246498   2.200   6.140   3.794 -0.0462  0.7721  0.4441
 8336TIP3    H146499   2.218   6.061   3.744  0.8314  1.3772 -0.2249
 8336TIP3    H246500   2.264   6.139   3.865 -1.5020 -0.2511  1.7679
 8337TIP3   OH246501   5.933   6.169  11.574  0.2799 -1.0162 -0.0199
 8337TIP3    H146502   5.935   6.261  11.550 -1.0598 -1.1331 -0.6475
 8337TIP3    H246503   6.008   6.130  11.527  0.8741 -0.2536  0.2896
 8338TIP3   OH246504   2.463   5.683   1.965  0.0381 -0.3444 -0.3122
 8338TIP3    H146505   2.373   5.666   1.991 -0.4333  2.8385  0.2373
 8338TIP3    H246506   2.458   5.707   1.873 -0.1763  3.2844  0.5715
 8339TIP3   OH246507   4.468   1.605  16.372 -0.1261 -0.0822 -0.2334
 8339TIP3    H146508   4.560   1.627  16.357 -0.9276  2.4088 -1.7704
 8339TIP3    H246509   4.424   1.690  16.379 -2.2810 -1.2434  0.7854
 8340TIP3   OH246510   4.949   4.672  10.677 -0.3373 -0.8106  0.7053
 8340TIP3    H146511   4.863   4.641  10.649 -0.1031 -0.3765 -0.5349
 8340TIP3    H246512   4.950   4.765  10.655  0.2090 -0.6706  1.3088
 8341TIP3   OH246513   4.002   4.221   0.806  0.4782  0.3217  0.1215
 8341TIP3    H146514   4.044   4.244   0.723  0.6050 -0.4038 -0.0134
 8341TIP3    H246515   3.912   4.253   0.797  1.0237  1.9974  0.4621
 8342TIP3   OH246516   2.765   3.199  12.534 -0.5680  0.0087  0.0036
 8342TIP3    H146517   2.712   3.195  12.455 -0.4853  2.1220 -0.1812
 8342TIP3    H246518   2.736   3.124  12.586 -0.5111 -1.4970 -2.0680
 8343TIP3   OH246519   5.236   1.264  14.034  0.2835 -0.6581 -0.1107
 8343TIP3    H146520   5.209   1.341  14.085  0.2002  0.1156 -1.3044
 8343TIP3    H246521   5.197   1.190  14.080 -1.2617  0.1812 -0.0214
 8344TIP3   OH246522   0.242   5.281  14.411  0.2225 -0.1769 -0.2185
 8344TIP3    H146523   0.302   5.341  14.366 -0.1866  0.3475 -0.0756
 8344TIP3    H246524   0.205   5.333  14.482  0.3565 -0.7994  0.3159
 8345TIP3   OH246525   0.773   6.545   1.729 -0.2115 -0.4970  0.5763
 8345TIP3    H146526   0.715   6.598   1.784  1.1441 -0.2076  1.7552
 8345TIP3    H246527   0.759   6.456   1.760  0.0711 -0.4092  0.9676
 8346TIP3   OH246528   5.543   3.767  16.454  0.7578 -1.2233 -0.2141
 8346TIP3    H146529   5.497   3.767  16.370  1.2669 -1.3837 -0.4934
 8346TIP3    H246530   5.494   3.705  16.508 -0.5845  0.1359  0.1667
 8347TIP3   OH246531   4.232   5.958   2.444 -0.3960 -0.2702  0.2883
 8347TIP3    H146532   4.145   5.917   2.444 -1.0360  1.0620  0.2316
 8347TIP3    H246533   4.244   5.987   2.534  0.4261 -1.3167  0.5320
 8348TIP3   OH246534   1.203   1.605   4.063 -0.1817 -0.3143  0.0647
 8348TIP3    H146535   1.141   1.670   4.030 -0.7302 -0.9914 -0.2629
 8348TIP3    H246536   1.149   1.528   4.082  0.4560 -0.6705  0.4602
 8349TIP3   OH246537   0.313   5.255   0.130 -0.2166  0.4662  0.6767
 8349TIP3    H146538   0.311   5.286   0.220 -2.2760 -1.3727  1.2885
 8349TIP3    H246539   0.398   5.211   0.121 -1.0859 -1.6503  2.5234
 8350TIP3   OH246540   2.102   5.065  11.084 -0.2985  0.0040 -0.1761
 8350TIP3    H146541   2.036   5.018  11.033  0.6718  0.5248 -1.9711
 8350TIP3    H246542   2.185   5.042  11.042  0.4395  1.1728  0.6233
 8351TIP3   OH246543   2.966   6.023   3.867 -0.6021 -0.2380  0.2008
 8351TIP3    H146544   3.059   6.002   3.862 -0.8928 -1.1737 -1.5215
 8351TIP3    H246545   2.935   5.975   3.943  0.3287  0.1065  0.8049
 8352TIP3   OH246546   3.595   3.249   5.825 -0.4346  0.2814 -0.2330
 8352TIP3    H146547   3.634   3.180   5.771 -2.8977 -1.1625 -0.2409
 8352TIP3    H246548   3.538   3.203   5.886  1.3609  2.0069  2.8491
 8353TIP3   OH246549   0.720   4.454   0.768  0.4307  0.2589 -0.5159
 8353TIP3    H146550   0.685   4.452   0.856  1.1172  1.1044 -0.2085
 8353TIP3    H246551   0.739   4.363   0.746 -0.5434 -0.0364 -0.1220
 8354TIP3   OH246552   5.760   5.699   2.653  0.0515 -1.2589  0.1079
 8354TIP3    H146553   5.755   5.782   2.606 -0.1667 -1.2054  0.2242
 8354TIP3    H246554   5.850   5.670   2.642  0.5246 -0.2674  1.3723
 8355TIP3   OH246555   6.105   6.243   6.684 -0.4291 -0.4555  0.6615
 8355TIP3    H146556   6.065   6.176   6.738 -2.1880 -0.1662 -0.2384
 8355TIP3    H246557   6.034   6.305   6.665  1.0264  1.4053  1.0670
 8356TIP3   OH246558   2.291   5.246   2.743 -0.1982  0.4998 -0.0827
 8356TIP3    H146559   2.233   5.213   2.811 -0.9655  0.9995 -0.4891
 8356TIP3    H246560   2.244   5.232   2.661  1.2463 -1.2451 -0.6543
 8357TIP3   OH246561   6.679   1.650   3.767  0.3190 -0.5130 -0.3698
 8357TIP3    H146562   6.688   1.608   3.852  1.1518 -0.5290 -0.4624
 8357TIP3    H246563   6.594   1.693   3.770  0.4943 -0.2284  0.5946
 8358TIP3   OH246564   5.369   1.083  16.508  0.4175  0.0723  0.3608
 8358TIP3    H146565   5.399   1.076  16.599  0.4628  2.0110  0.5106
 8358TIP3    H246566   5.280   1.117  16.515 -0.5264 -2.1866 -0.2334
 8359TIP3   OH246567   5.247   5.505  15.712  0.1805 -0.1595  0.5715
 8359TIP3    H146568   5.214   5.473  15.796 -0.0815 -0.4248  0.3652
 8359TIP3    H246569   5.177   5.487  15.650 -0.1654  1.2681  0.5390
 8360TIP3   OH246570   4.114   5.612   2.487  0.3185  0.2827 -0.3607
 8360TIP3    H146571   4.131   5.647   2.575  1.6366 -1.9879  0.3274
 8360TIP3    H246572   4.171   5.662   2.429 -1.4790  2.6608 -0.1310
 8361TIP3   OH246573   6.324   3.120   2.563  0.0402  0.1068 -0.0634
 8361TIP3    H146574   6.278   3.048   2.606 -2.4387  2.3758  1.1777
 8361TIP3    H246575   6.409   3.124   2.607  0.3177 -2.1638 -0.3056
 8362TIP3   OH246576   1.513   5.524   0.562  0.1624 -0.4539 -0.4648
 8362TIP3    H146577   1.536   5.461   0.631  1.4585 -0.6359 -1.0456
 8362TIP3    H246578   1.570   5.600   0.580  0.0256 -0.2421 -0.9375
 8363TIP3   OH246579   4.721   0.624  12.779 -0.2590 -0.5103 -0.6263
 8363TIP3    H146580   4.782   0.599  12.709 -1.0098 -2.2073 -0.6903
 8363TIP3    H246581   4.717   0.720  12.773  1.6267 -0.4415 -1.2555
 8364TIP3   OH246582   2.451   5.065  12.335  0.1631  0.1993  0.2899
 8364TIP3    H146583   2.524   5.112  12.294 -0.1216  0.1028 -0.3342
 8364TIP3    H246584   2.492   4.987  12.374  0.3775  0.0770 -0.1728
 8365TIP3   OH246585   1.213   3.074   3.353  0.3916 -0.3510  0.1443
 8365TIP3    H146586   1.251   2.992   3.388  1.1263 -0.8465 -1.7533
 8365TIP3    H246587   1.285   3.114   3.304  0.2155  1.7691  1.5651
 8366TIP3   OH246588   6.502   4.814  14.959 -0.7193 -0.0936 -0.0200
 8366TIP3    H146589   6.539   4.821  15.047 -1.1206  1.1548  0.0619
 8366TIP3    H246590   6.518   4.900  14.920 -1.9376 -0.1352 -0.6201
 8367TIP3   OH246591   3.636   5.001   3.731  0.5011  0.1200  0.2382
 8367TIP3    H146592   3.689   5.051   3.792 -0.8489  0.0868  1.4866
 8367TIP3    H246593   3.589   5.067   3.680  0.7465  0.1367  0.0319
 8368TIP3   OH246594   1.386   4.085  12.350 -0.1210 -0.3632  0.1124
 8368TIP3    H146595   1.425   4.168  12.376 -0.0850 -0.2032 -0.4404
 8368TIP3    H246596   1.295   4.106  12.330  0.5087  0.0435 -2.4756
 8369TIP3   OH246597   0.866   5.400   4.800  0.0008  0.1991 -0.2889
 8369TIP3    H146598   0.812   5.480   4.796  0.5144  0.6358  1.1853
 8369TIP3    H246599   0.899   5.389   4.711 -0.1983  1.5561 -0.5432
 8370TIP3   OH246600   4.215   0.393   3.952  0.0999 -0.6975  0.4747
 8370TIP3    H146601   4.234   0.411   3.860  1.9534 -0.0834  0.9351
 8370TIP3    H246602   4.302   0.379   3.991 -0.3554  2.2050  2.7319
 8371TIP3   OH246603   2.629   4.225   0.026 -0.3173  0.6211 -0.4579
 8371TIP3    H146604   2.562   4.257   0.087 -0.6812  2.7475 -1.9033
 8371TIP3    H246605   2.622   4.130   0.031 -1.8978  0.7833  1.1138
 8372TIP3   OH246606   5.546   4.847   1.700  0.6114 -0.3428  0.2935
 8372TIP3    H146607   5.609   4.891   1.756  1.0952  0.4418 -0.8503
 8372TIP3    H246608   5.578   4.862   1.611 -1.0728 -0.1042 -0.2920
 8373TIP3   OH246609   4.472   5.817  16.643 -0.3386  0.3905  0.3302
 8373TIP3    H146610   4.533   5.872  16.693  0.1403  1.4706 -1.4113
 8373TIP3    H246611   4.513   5.807  16.557 -1.1751 -1.4177  0.1277
 8374TIP3   OH246612   2.268   4.601   2.686 -0.2658 -0.0779 -0.1088
 8374TIP3    H146613   2.183   4.619   2.725  0.4227  0.9065  0.9906
 8374TIP3    H246614   2.298   4.686   2.653  0.8566 -0.1562  0.6770
 8375TIP3   OH246615   5.585   6.051  13.204  0.5366 -0.4231 -0.3924
 8375TIP3    H146616   5.626   6.133  13.232 -1.0380 -0.5610  2.4829
 8375TIP3    H246617   5.505   6.078  13.160 -0.2188 -0.3990  0.9682
 8376TIP3   OH246618   2.831   0.864  13.398 -0.9802 -0.2155  0.0158
 8376TIP3    H146619   2.786   0.864  13.314  0.2606 -0.1724 -0.6698
 8376TIP3    H246620   2.890   0.789  13.394 -0.2066  0.3538  0.4367
 8377TIP3   OH246621   4.907   1.100   6.270 -0.7054  0.1620  0.0995
 8377TIP3    H146622   4.995   1.139   6.263  0.1865 -1.9930 -1.2903
 8377TIP3    H246623   4.847   1.173   6.257  0.8780  1.5833  0.5654
 8378TIP3   OH246624   6.784   1.479   2.706 -0.3121  0.1108 -0.9011
 8378TIP3    H146625   6.753   1.394   2.675  0.9483 -0.1449 -1.4847
 8378TIP3    H246626   6.755   1.541   2.638 -2.9069  0.4529  0.4624
 8379TIP3   OH246627   2.659   4.978  16.530  0.0303 -0.3918 -0.4584
 8379TIP3    H146628   2.592   4.979  16.598  1.4121 -0.9756  0.9646
 8379TIP3    H246629   2.727   4.921  16.565  1.1281 -0.0775 -2.0106
 8380TIP3   OH246630   4.059   0.416   5.880  0.5259  0.1163 -0.0410
 8380TIP3    H146631   4.009   0.340   5.907 -0.3746  1.7469  3.1220
 8380TIP3    H246632   3.997   0.470   5.830  0.6055 -0.2816 -0.5720
 8381TIP3   OH246633   0.803   3.852   2.507 -0.4869 -0.5589 -0.2407
 8381TIP3    H146634   0.761   3.814   2.584 -1.4098 -3.0515 -1.9008
 8381TIP3    H246635   0.896   3.852   2.528 -0.6428 -2.0981  0.5018
 8382TIP3   OH246636   0.403   0.626  14.715  0.4114 -0.3795 -0.5303
 8382TIP3    H146637   0.385   0.672  14.633 -0.9251  2.3004  1.1866
 8382TIP3    H246638   0.473   0.677  14.756  0.2186 -0.9839  0.5591
 8383TIP3   OH246639   3.989   6.674  14.646 -0.3378  0.7662  0.2278
 8383TIP3    H146640   3.944   6.707  14.724 -0.8860  1.3462 -0.3276
 8383TIP3    H246641   3.966   6.581  14.643  1.3111  0.2621  1.8645
 8384TIP3   OH246642   0.855   2.469   3.509  0.0143  0.4133 -0.4392
 8384TIP3    H146643   0.858   2.502   3.419  1.1160  1.1738 -0.1255
 8384TIP3    H246644   0.786   2.403   3.507  1.2172 -0.8442 -2.2621
 8385TIP3   OH246645   5.352   5.614  14.712 -0.0754 -0.5176 -0.5680
 8385TIP3    H146646   5.326   5.523  14.702 -0.2105 -0.7746  1.8544
 8385TIP3    H246647   5.317   5.640  14.797  1.3886  1.2946 -0.4858
 8386TIP3   OH246648   4.229   4.552  12.665 -0.2884  0.1702  0.2347
 8386TIP3    H146649   4.149   4.598  12.689 -1.6049 -0.8776 -1.9752
 8386TIP3    H246650   4.281   4.617  12.617  1.5875  1.7405  4.1010
 8387TIP3   OH246651   3.618   0.347  14.064  0.0274  0.6161 -0.2939
 8387TIP3    H146652   3.537   0.397  14.060 -0.3498 -0.0287 -0.8849
 8387TIP3    H246653   3.666   0.374  13.986 -0.1633  0.0874 -0.5962
 8388TIP3   OH246654   6.738   6.697   2.623  0.0365 -0.2637 -0.0233
 8388TIP3    H146655   6.785   6.651   2.553 -2.5632  0.2486 -2.1559
 8388TIP3    H246656   6.798   6.766   2.650  1.8793 -1.6889 -0.3607
 8389TIP3   OH246657   5.628   2.527   2.739 -0.0376 -0.2756  0.3686
 8389TIP3    H146658   5.591   2.609   2.774  1.6469  1.7295 -2.2878
 8389TIP3    H246659   5.576   2.458   2.780 -2.8477  2.1959  1.2093
 8390TIP3   OH246660   1.789   0.473   3.169 -0.4170 -0.5920  0.3646
 8390TIP3    H146661   1.778   0.567   3.186 -0.0746 -0.5915  0.5817
 8390TIP3    H246662   1.862   0.447   3.225  0.7200 -0.5874 -1.0814
 8391TIP3   OH246663   2.897   0.009   4.066 -0.3098 -0.2050  0.1673
 8391TIP3    H146664   2.952   0.085   4.085 -1.4774  0.7271 -0.1410
 8391TIP3    H246665   2.949  -0.066   4.095  0.2251  0.8064  1.9275
 8392TIP3   OH246666   3.514   0.416   2.659 -0.0411  0.2202 -0.3127
 8392TIP3    H146667   3.520   0.500   2.614  2.0360  0.2218 -0.0595
 8392TIP3    H246668   3.464   0.361   2.599 -0.7514  1.3836 -0.8192
 8393TIP3   OH246669   0.417   2.852  16.408  0.4614 -0.6085 -0.6152
 8393TIP3    H146670   0.497   2.902  16.392  0.1887 -0.2063 -0.7328
 8393TIP3    H246671   0.435   2.766  16.369  0.8951 -0.5740 -0.4963
 8394TIP3   OH246672   2.251   0.757  15.162  0.6118  0.6419 -0.0127
 8394TIP3    H146673   2.244   0.822  15.092 -0.5195  0.6287  0.0802
 8394TIP3    H246674   2.345   0.750  15.178  0.8076  1.5655 -0.6679
 8395TIP3   OH246675   6.675   2.989   1.009 -0.2336  0.4135  0.2173
 8395TIP3    H146676   6.584   2.960   1.005 -0.1326  0.2307 -0.8158
 8395TIP3    H246677   6.682   3.033   1.094 -0.6432 -1.7121  1.3815
 8396TIP3   OH246678   3.254   5.309  15.425 -0.0111  0.2688  0.4872
 8396TIP3    H146679   3.197   5.386  15.430 -0.5138  0.0698 -1.6167
 8396TIP3    H246680   3.202   5.237  15.460 -0.1063  0.5908  1.0059
 8397TIP3   OH246681   3.174   5.949  16.384  0.1020  0.3717  0.1147
 8397TIP3    H146682   3.187   5.907  16.469  0.7203 -0.1492 -0.2333
 8397TIP3    H246683   3.091   5.996  16.393 -0.1022 -0.1171  0.8299
 8398TIP3   OH246684   0.094   6.350   0.195 -0.4741  0.0550 -0.3567
 8398TIP3    H146685   0.119   6.287   0.128 -1.1892  0.2417 -0.7995
 8398TIP3    H246686   0.078   6.432   0.148  0.9345  0.7094  0.2740
 8399TIP3   OH246687   4.121   4.152  15.366  0.2764  0.2432  0.1788
 8399TIP3    H146688   4.112   4.245  15.346 -1.1138 -0.0022 -0.3772
 8399TIP3    H246689   4.215   4.135  15.355  0.6698  1.7236  0.9901
 8400TIP3   OH246690   0.059   0.540  10.563  0.1177  0.2279 -0.3412
 8400TIP3    H146691   0.052   0.635  10.557  0.4746  0.2328 -0.7117
 8400TIP3    H246692   0.141   0.526  10.610  0.6115  0.0864 -1.2436
 8401TIP3   OH246693   2.169   0.507   2.971 -0.6997 -0.1498  0.3410
 8401TIP3    H146694   2.154   0.593   3.010 -0.6151  0.2692 -0.5370
 8401TIP3    H246695   2.097   0.496   2.909  0.0179 -0.1502 -0.4956
 8402TIP3   OH246696   5.960   5.328   3.861 -0.6840 -0.6307 -0.2612
 8402TIP3    H146697   5.970   5.248   3.912  0.1366  0.0192  0.6244
 8402TIP3    H246698   5.888   5.310   3.801 -0.3714 -2.1043 -0.2098
 8403TIP3   OH246699   4.637   4.559   0.089 -0.0544  0.1211 -0.6018
 8403TIP3    H146700   4.684   4.536   0.170 -3.2535  0.9421  1.5686
 8403TIP3    H246701   4.632   4.655   0.091 -2.4592  0.0211 -0.3822
 8404TIP3   OH246702   6.115   0.123   6.175  0.0201  0.8155 -0.2696
 8404TIP3    H146703   6.032   0.122   6.223  1.2550 -2.8843  2.0178
 8404TIP3    H246704   6.092   0.092   6.087 -1.0737  0.0406  0.2773
 8405TIP3   OH246705   5.412   6.819   4.309  0.2773 -0.1959  0.4569
 8405TIP3    H146706   5.448   6.807   4.397  2.1429 -1.4852 -0.4508
 8405TIP3    H246707   5.347   6.750   4.299  0.5745 -0.4881  0.5606
 8406TIP3   OH246708   3.261   3.594   1.391  0.3970  0.1393  0.0617
 8406TIP3    H146709   3.198   3.642   1.444  1.6064  0.3079  1.3964
 8406TIP3    H246710   3.263   3.506   1.431 -0.3820 -0.4494 -1.1614
 8407TIP3   OH246711   2.168   4.786   0.827 -0.7816 -0.2121  0.1033
 8407TIP3    H146712   2.098   4.733   0.865 -0.4253 -0.6305  0.1815
 8407TIP3    H246713   2.189   4.742   0.745 -0.0227 -0.5879  0.4876
 8408TIP3   OH246714   5.192   5.119  13.583  0.0396 -0.6113  0.1867
 8408TIP3    H146715   5.158   5.174  13.512  2.4898 -0.6782 -1.1028
 8408TIP3    H246716   5.273   5.163  13.610 -0.0162 -1.4934  1.8044
 8409TIP3   OH246717   0.689   2.251  14.015 -0.4319 -0.1465  0.2352
 8409TIP3    H146718   0.666   2.168  14.058 -2.3948 -1.0069 -2.3770
 8409TIP3    H246719   0.707   2.311  14.088  0.1812 -2.6053  2.1934
 8410TIP3   OH246720   2.141   2.414  17.216  0.0399  0.3164 -0.2020
 8410TIP3    H146721   2.125   2.435  17.124  0.5701  0.0595 -0.3563
 8410TIP3    H246722   2.054   2.409  17.256 -0.1493  1.3666 -0.4765
 8411TIP3   OH246723   3.005   6.525  13.603  0.4045  0.2460 -0.0923
 8411TIP3    H146724   2.975   6.434  13.604  1.2016 -0.0186  1.1325
 8411TIP3    H246725   2.925   6.577  13.607  0.0015 -0.4190  0.5530
 8412TIP3   OH246726   0.972   5.155   3.786  0.0741  0.2119 -0.0366
 8412TIP3    H146727   1.040   5.117   3.729 -0.4333 -0.9409  0.1036
 8412TIP3    H246728   0.934   5.226   3.734  2.0762  1.5650  0.2815
 8413TIP3   OH246729   2.282   2.877   0.480  0.4410  0.1542  0.1218
 8413TIP3    H146730   2.305   2.852   0.390  1.4374  0.1243  0.3846
 8413TIP3    H246731   2.365   2.877   0.527 -0.0316  0.5283  0.9628
 8414TIP3   OH246732   5.335   4.704  10.921  0.6285  0.2249  0.1224
 8414TIP3    H146733   5.250   4.662  10.910  0.4536  0.9391 -1.4994
 8414TIP3    H246734   5.341   4.724  11.014 -0.3799 -1.0615  0.4767
 8415TIP3   OH246735   0.456   1.882   1.285 -0.4787  0.2521 -0.9273
 8415TIP3    H146736   0.504   1.891   1.202  0.2323  1.9919 -0.3649
 8415TIP3    H246737   0.522   1.851   1.348 -0.6362  0.4492 -0.6638
 8416TIP3   OH246738   4.394   3.077   0.724  0.7188 -0.9670 -0.3435
 8416TIP3    H146739   4.405   3.149   0.786  0.3821 -0.7216 -0.5661
 8416TIP3    H246740   4.300   3.065   0.717  0.6982 -0.0404 -1.8868
 8417TIP3   OH246741   6.253   5.957  16.256 -0.1941 -0.0747 -0.0577
 8417TIP3    H146742   6.273   5.920  16.170 -1.3522 -0.0925 -0.3199
 8417TIP3    H246743   6.190   6.026  16.239 -1.5275 -1.0258  0.9193
 8418TIP3   OH246744   2.292   6.642   5.484  0.3170 -0.2051 -0.6856
 8418TIP3    H146745   2.283   6.670   5.575 -2.3918  0.9811 -1.2548
 8418TIP3    H246746   2.369   6.585   5.484 -0.1694 -0.9805  2.5177
 8419TIP3   OH246747   5.589   3.875   5.437  0.4494 -0.0756  0.4594
 8419TIP3    H146748   5.670   3.842   5.476  0.7295  0.8939  0.7009
 8419TIP3    H246749   5.605   3.968   5.424 -0.7661  0.1876  0.8528
 8420TIP3   OH246750   2.468   5.789   6.446 -0.5311  0.1137  0.1652
 8420TIP3    H146751   2.553   5.799   6.402 -0.0722 -0.2885  0.9510
 8420TIP3    H246752   2.435   5.878   6.456 -0.6554  0.2117 -1.0118
 8421TIP3   OH246753   1.877   2.357  11.237 -0.8128  0.0087 -0.2627
 8421TIP3    H146754   1.860   2.326  11.148 -1.6038  0.9406 -0.4445
 8421TIP3    H246755   1.970   2.339  11.251 -0.4513  0.7015 -1.6313
 8422TIP3   OH246756   0.889   3.077   1.929  0.5829 -0.3167  0.4100
 8422TIP3    H146757   0.931   3.120   2.004  0.2756  0.8199 -0.0561
 8422TIP3    H246758   0.840   3.147   1.886 -0.2503 -1.2307 -0.1425
 8423TIP3   OH246759   6.013   6.714  15.475  0.7355 -0.1178 -0.6637
 8423TIP3    H146760   5.999   6.688  15.384  2.4234 -1.8655 -0.4603
 8423TIP3    H246761   5.999   6.634  15.526  1.8412  0.3478  0.3968
 8424TIP3   OH246762   4.000   4.378   0.151  0.6242 -0.0643 -0.3122
 8424TIP3    H146763   3.918   4.345   0.113  2.0035  0.3212 -3.8620
 8424TIP3    H246764   4.039   4.302   0.193 -0.8527 -0.6036  0.1330
 8425TIP3   OH246765   3.680   1.184  13.703 -0.5231  0.0530 -0.4365
 8425TIP3    H146766   3.681   1.134  13.622 -0.4786 -1.4504  0.4816
 8425TIP3    H246767   3.598   1.234  13.699 -0.9290 -0.6598 -1.0134
 8426TIP3   OH246768   1.907   4.596   5.988 -0.5785 -0.0275 -0.1013
 8426TIP3    H146769   1.941   4.682   6.015 -1.8329  0.1713  0.8680
 8426TIP3    H246770   1.958   4.533   6.039  1.2704  0.0547 -1.7896
 8427TIP3   OH246771   1.775   0.056  16.934  0.4367  0.5110 -0.3129
 8427TIP3    H146772   1.713   0.125  16.958 -0.2705  0.1326 -1.0071
 8427TIP3    H246773   1.841   0.058  17.002 -0.7162  0.4596  0.8216
 8428TIP3   OH246774   3.927   4.895  13.038 -0.0111 -0.2706 -0.1699
 8428TIP3    H146775   3.906   4.876  12.946  0.8513  0.2965 -0.4932
 8428TIP3    H246776   3.931   4.990  13.043  2.7159 -0.3445 -0.2113
 8429TIP3   OH246777   3.107   1.002   1.310  0.0505  0.3844 -0.3512
 8429TIP3    H146778   3.138   1.042   1.228 -1.0847  0.1251 -0.9178
 8429TIP3    H246779   3.133   0.910   1.303  0.3031  0.4471 -0.2417
 8430TIP3   OH246780   5.204   0.041   3.414 -0.0946  0.3551 -0.4766
 8430TIP3    H146781   5.129   0.006   3.463 -0.2861 -1.0936 -1.7735
 8430TIP3    H246782   5.260   0.080   3.482 -0.2959 -1.7277  0.9435
 8431TIP3   OH246783   5.433   1.498  16.966  0.0334  0.3387 -0.3081
 8431TIP3    H146784   5.467   1.538  17.046  2.1875  2.3830 -2.1519
 8431TIP3    H246785   5.501   1.437  16.939 -0.0863  0.6082 -1.2507
 8432TIP3   OH246786   0.306   6.253   1.965  0.5355 -0.1553 -0.8451
 8432TIP3    H146787   0.237   6.194   1.938  1.4527 -1.9865  0.7246
 8432TIP3    H246788   0.373   6.245   1.897  0.4967 -0.6622 -0.8247
 8433TIP3   OH246789   2.249   5.109   6.227 -0.1436  0.4390 -0.6762
 8433TIP3    H146790   2.334   5.116   6.272  0.3050 -0.8446 -1.2868
 8433TIP3    H246791   2.212   5.027   6.261 -0.4907  0.2604 -1.4739
 8434TIP3   OH246792   0.584   2.841   1.495 -0.1616 -0.1884 -0.6366
 8434TIP3    H146793   0.507   2.870   1.446 -2.2611 -1.0773  1.9723
 8434TIP3    H246794   0.618   2.921   1.535 -2.5515 -0.3510  1.9244
 8435TIP3   OH246795   2.664   2.952  15.827  0.3587  0.0273  0.5020
 8435TIP3    H146796   2.662   2.858  15.807 -0.5703 -0.3610  2.3188
 8435TIP3    H246797   2.699   2.992  15.748 -0.8073 -1.6807 -0.9257
 8436TIP3   OH246798   0.841   0.319   0.879  0.3237 -0.0133 -0.3985
 8436TIP3    H146799   0.751   0.291   0.861 -0.2949  1.4683  0.2852
 8436TIP3    H246800   0.867   0.368   0.801 -0.5477  2.0981  0.6057
 8437TIP3   OH246801   4.442   3.799   5.394  0.3910 -0.5584 -0.2273
 8437TIP3    H146802   4.510   3.733   5.408 -0.0994 -1.0833 -0.3351
 8437TIP3    H246803   4.361   3.756   5.419  0.2009  0.3841  0.8024
 8438TIP3   OH246804   4.362   5.198  14.516  0.5861 -0.4686 -0.5636
 8438TIP3    H146805   4.374   5.122  14.573 -1.3914 -0.8104 -0.5652
 8438TIP3    H246806   4.406   5.269  14.561  2.3144 -1.5541 -0.4756
 8439TIP3   OH246807   1.061   0.969  11.526 -0.4058  0.1052  1.1266
 8439TIP3    H146808   0.977   1.012  11.538 -0.0040  0.8914  1.1587
 8439TIP3    H246809   1.067   0.953  11.432 -2.2450 -3.3713  1.5334
 8440TIP3   OH246810   3.210   5.536   2.387 -0.1951 -0.3707  0.7703
 8440TIP3    H146811   3.154   5.547   2.310 -0.1753 -2.0341  0.4967
 8440TIP3    H246812   3.278   5.603   2.378 -0.6878  0.0013 -0.2113
 8441TIP3   OH246813   5.051   6.268  15.406  0.2897 -0.4090  0.3120
 8441TIP3    H146814   5.060   6.334  15.475 -2.2949  0.7988 -0.4274
 8441TIP3    H246815   5.136   6.265  15.364  0.9918  1.1111  1.5714
 8442TIP3   OH246816   1.224   3.937  15.155 -0.1745  0.4983  0.6783
 8442TIP3    H146817   1.129   3.924  15.151 -0.2157  1.0660 -0.6351
 8442TIP3    H246818   1.237   4.024  15.116  1.0789 -0.5215 -1.2081
 8443TIP3   OH246819   1.935   6.332   2.274  0.0851  0.1931  0.4964
 8443TIP3    H146820   1.859   6.302   2.323 -1.0449  1.2603 -0.5639
 8443TIP3    H246821   1.968   6.407   2.324  0.9300 -0.7557  1.3794
 8444TIP3   OH246822   1.272   1.327  14.546 -0.8026  0.3496  0.5458
 8444TIP3    H146823   1.214   1.397  14.517 -4.0243 -1.5464  2.1916
 8444TIP3    H246824   1.262   1.326  14.642  2.1513  0.1128  0.9031
 8445TIP3   OH246825   0.821   2.823  16.680 -0.1541  0.2890  0.0702
 8445TIP3    H146826   0.860   2.821  16.767 -2.5408 -0.5953  1.1713
 8445TIP3    H246827   0.884   2.777  16.624  0.5363 -0.8198  1.7142
 8446TIP3   OH246828   5.364   4.963  10.594  0.2068  1.2953 -0.5780
 8446TIP3    H146829   5.425   4.891  10.612 -2.1131 -0.1707  1.6921
 8446TIP3    H246830   5.350   4.958  10.500  1.4076 -0.1240 -0.7189
 8447TIP3   OH246831   0.164   4.569   4.505 -0.1340 -0.4129  0.6400
 8447TIP3    H146832   0.183   4.663   4.494  0.1479 -0.1544  2.9645
 8447TIP3    H246833   0.130   4.563   4.594  5.5965 -3.3200  2.8704
 8448TIP3   OH246834   5.256   6.043   0.829 -0.1025  0.3410  0.0795
 8448TIP3    H146835   5.221   5.958   0.802  0.1592 -0.5983  2.5065
 8448TIP3    H246836   5.341   6.049   0.786 -0.3462 -0.4109 -0.5171
 8449TIP3   OH246837   1.344   1.885  10.850  0.0219 -0.1720  0.2078
 8449TIP3    H146838   1.303   1.854  10.770  1.9999 -0.1750 -0.8186
 8449TIP3    H246839   1.353   1.980  10.837 -0.0306 -0.1113  0.6033
 8450TIP3   OH246840   5.122   0.302  16.105 -0.6317 -0.3973  0.4858
 8450TIP3    H146841   5.102   0.394  16.121  1.1845  0.2509 -0.7635
 8450TIP3    H246842   5.213   0.292  16.134 -0.5334 -1.5952 -0.1828
 8451TIP3   OH246843   6.791   5.453   1.434  0.7255 -0.0982 -0.3037
 8451TIP3    H146844   6.775   5.369   1.392  1.3365  0.6237 -2.0357
 8451TIP3    H246845   6.886   5.458   1.443  0.5995 -0.2854  1.2915
 8452TIP3   OH246846   5.203   4.115   0.456  0.0587  0.6210 -0.2115
 8452TIP3    H146847   5.249   4.177   0.401 -1.5840  2.4981  0.4707
 8452TIP3    H246848   5.110   4.137   0.444 -0.4379 -0.4294  1.5437
 8453TIP3   OH246849   1.546   4.364  16.098 -0.3857  0.5716 -0.5417
 8453TIP3    H146850   1.530   4.456  16.119  1.0920  1.3561 -2.7042
 8453TIP3    H246851   1.641   4.356  16.096 -0.4982 -0.6852 -1.6678
 8454TIP3   OH246852   4.815   5.014   1.711 -0.2503  0.7702  0.5194
 8454TIP3    H146853   4.812   5.098   1.757 -1.9944 -0.4426  2.6969
 8454TIP3    H246854   4.725   5.000   1.681  0.0523 -0.2657  0.0753
 8455TIP3   OH246855   0.311   1.834  12.409 -0.0528 -0.4570  0.6630
 8455TIP3    H146856   0.302   1.837  12.314  1.5632 -2.6585  0.4080
 8455TIP3    H246857   0.242   1.774  12.437 -0.2891 -0.0978  0.8552
 8456TIP3   OH246858   6.508   5.417   1.470  0.1981 -0.2566  0.3503
 8456TIP3    H146859   6.578   5.463   1.423  0.2094 -0.4405  0.1868
 8456TIP3    H246860   6.547   5.397   1.556  0.2517 -0.1162  0.3594
 8457TIP3   OH246861   2.774   6.121  13.557  0.5277 -0.5162  0.0284
 8457TIP3    H146862   2.742   6.044  13.509  0.1701 -0.1350 -0.3400
 8457TIP3    H246863   2.868   6.107  13.564  0.9095  0.5152 -2.7053
 8458TIP3   OH246864   3.539   5.968   2.033  0.0124  0.0649  0.1263
 8458TIP3    H146865   3.511   5.910   1.961  0.0077 -0.5257  0.5945
 8458TIP3    H246866   3.631   5.945   2.048 -0.3609 -0.7750  1.2018
 8459TIP3   OH246867   0.884   3.095  14.529 -0.1008  0.1251 -0.2939
 8459TIP3    H146868   0.973   3.068  14.550 -0.4570 -0.3603  0.5937
 8459TIP3    H246869   0.829   3.021  14.554 -1.0725  1.5827  2.0971
 8460TIP3   OH246870   3.471   2.630  14.412  0.1083 -0.0742  0.4942
 8460TIP3    H146871   3.385   2.610  14.449  0.5682 -1.5185  0.8240
 8460TIP3    H246872   3.532   2.577  14.463  0.9468 -0.7662 -1.1952
 8461TIP3   OH246873   6.560   4.906   3.346 -0.3647  0.2235  0.0914
 8461TIP3    H146874   6.620   4.837   3.319 -1.3127 -0.0843 -1.2677
 8461TIP3    H246875   6.541   4.888   3.438  0.7007 -0.3506  0.2006
 8462TIP3   OH246876   1.333   0.789  17.149 -0.5538 -0.2564  0.4753
 8462TIP3    H146877   1.293   0.777  17.235  1.0237  3.0586  1.7693
 8462TIP3    H246878   1.364   0.880  17.149  2.0446 -1.0396 -2.5156
 8463TIP3   OH246879   5.874   3.332  10.353 -0.0214 -0.2028 -0.3432
 8463TIP3    H146880   5.864   3.298  10.264 -2.7844 -1.7497  0.4843
 8463TIP3    H246881   5.868   3.427  10.344  1.4925 -0.2390 -1.9760
 8464TIP3   OH246882   0.998   4.143  15.147 -0.3617 -0.3329  0.2544
 8464TIP3    H146883   1.046   4.214  15.189 -0.2138 -0.0306 -0.4076
 8464TIP3    H246884   1.059   4.109  15.082 -0.7171 -0.5406  0.0276
 8465TIP3   OH246885   0.546   4.801   1.529  0.5979  0.5791 -0.8253
 8465TIP3    H146886   0.544   4.846   1.613  0.2378 -0.5414 -0.2259
 8465TIP3    H246887   0.508   4.864   1.467  0.6508  1.3158 -0.1118
 8466TIP3   OH246888   4.883   4.387   4.086  0.4991  0.6398 -0.0866
 8466TIP3    H146889   4.895   4.425   3.999  3.4247  2.6999  1.1319
 8466TIP3    H246890   4.887   4.462   4.145 -0.7186 -0.8233  1.9137
 8467TIP3   OH246891   0.683   1.224   1.980  0.0003  0.7573  0.3430
 8467TIP3    H146892   0.763   1.229   1.927 -0.8694 -0.3010 -1.1295
 8467TIP3    H246893   0.669   1.130   1.993 -0.0252  0.9897  2.1530
 8468TIP3   OH246894   5.068   1.950  14.100  0.3826  0.2320 -0.1454
 8468TIP3    H146895   5.006   1.955  14.026  0.0746  0.2367  0.1103
 8468TIP3    H246896   5.114   1.868  14.087 -1.6346 -1.1653  1.1876
 8469TIP3   OH246897   1.247   4.192   5.049 -0.3241  0.7653 -0.2062
 8469TIP3    H146898   1.238   4.162   4.958  2.6318  0.8166 -0.5541
 8469TIP3    H246899   1.285   4.117   5.095 -0.7239  1.1509  0.7653
 8470TIP3   OH246900   3.644   4.807   3.452 -0.4990 -0.3700  0.0855
 8470TIP3    H146901   3.666   4.894   3.484  0.6619 -0.4776 -0.4157
 8470TIP3    H246902   3.554   4.793   3.483 -0.1900  0.4089  1.3839
 8471TIP3   OH246903   3.659   6.174  15.258 -0.3036 -0.5488  0.6076
 8471TIP3    H146904   3.639   6.094  15.209 -0.4688  0.3113 -0.7873
 8471TIP3    H246905   3.748   6.161  15.291 -0.2277 -1.2098  0.1498
 8472TIP3   OH246906   0.754   2.939   0.619 -0.2961 -0.1100  0.2743
 8472TIP3    H146907   0.745   2.901   0.707 -1.2831 -0.2178  0.1375
 8472TIP3    H246908   0.802   2.873   0.569 -0.3274 -0.3479  0.5560
 8473TIP3   OH246909   1.498   4.802  14.861 -0.6414  0.1591 -0.0022
 8473TIP3    H146910   1.586   4.816  14.896 -0.6750  1.0440 -0.2558
 8473TIP3    H246911   1.454   4.887  14.872 -0.6852  0.4406 -2.0711
 8474TIP3   OH246912   4.419   3.770  13.891 -0.2939  0.0562 -0.2765
 8474TIP3    H146913   4.459   3.688  13.863  1.6394  0.3274  1.5211
 8474TIP3    H246914   4.365   3.745  13.966 -0.3480  0.2904 -0.2386
 8475TIP3   OH246915   6.128   1.890   1.790 -0.0269  0.2592  0.0303
 8475TIP3    H146916   6.180   1.824   1.745 -2.2059  0.1059 -2.3429
 8475TIP3    H246917   6.193   1.954   1.821  1.6834 -0.4743 -1.9223
 8476TIP3   OH246918   6.498   2.748  14.572 -0.3554  0.2917  0.0982
 8476TIP3    H146919   6.585   2.765  14.535  0.2826 -2.9014 -0.0316
 8476TIP3    H246920   6.512   2.749  14.667 -0.2991  0.2597  0.0888
 8477TIP3   OH246921   2.223   0.465   2.577 -0.7030  0.9407  0.1368
 8477TIP3    H146922   2.203   0.408   2.502 -0.9151  0.5151  0.5150
 8477TIP3    H246923   2.313   0.443   2.600 -1.3098 -0.4119  1.2988
 8478TIP3   OH246924   4.180   1.345   2.419 -0.2929 -0.1991 -0.1400
 8478TIP3    H146925   4.129   1.412   2.464  0.8102  2.2562 -2.3972
 8478TIP3    H246926   4.264   1.387   2.401 -0.2960 -1.4284 -3.4454
 8479TIP3   OH246927   5.010   2.268  11.416 -0.4553 -0.4413  0.2131
 8479TIP3    H146928   5.080   2.285  11.353  0.2156 -0.9719  0.8077
 8479TIP3    H246929   5.025   2.178  11.445 -1.3809 -0.5525  0.3472
 8480TIP3   OH246930   2.620   2.598   4.650  0.2178  0.3423  0.5126
 8480TIP3    H146931   2.625   2.683   4.694  0.3855 -0.2754  1.7254
 8480TIP3    H246932   2.629   2.618   4.557 -2.9673  1.9679  0.4735
 8481TIP3   OH246933   6.033   6.311   4.616 -0.1270  0.2196  0.2954
 8481TIP3    H146934   5.970   6.308   4.688 -2.4166 -1.0694 -1.6825
 8481TIP3    H246935   6.067   6.221   4.612  0.0099  0.2976 -0.2157
 8482TIP3   OH246936   1.543   1.066   2.807 -0.3728  0.2850 -0.2912
 8482TIP3    H146937   1.558   1.108   2.892 -0.9139 -0.2975  0.1018
 8482TIP3    H246938   1.467   1.009   2.822 -0.8463  0.6398 -1.3336
 8483TIP3   OH246939   3.543   1.081   0.923  0.4271  0.0868 -0.1903
 8483TIP3    H146940   3.615   1.133   0.885  0.3568  0.7829  0.6266
 8483TIP3    H246941   3.465   1.133   0.905 -0.0319 -1.1728 -2.0205
 8484TIP3   OH246942   5.962   6.135   4.193  0.3667 -0.1875  0.2432
 8484TIP3    H146943   6.004   6.150   4.109 -0.2525  0.3852  0.0270
 8484TIP3    H246944   5.981   6.044   4.214  1.3220 -0.0583 -0.0629
 8485TIP3   OH246945   5.796   4.382   1.738  0.0026  0.4685  0.4898
 8485TIP3    H146946   5.826   4.374   1.647  0.2886  0.8128  0.5492
 8485TIP3    H246947   5.836   4.464   1.768 -1.5609  1.2848  0.3654
 8486TIP3   OH246948   3.963   2.874   2.081 -0.2035 -0.1931  0.1582
 8486TIP3    H146949   3.927   2.950   2.127  0.4762  0.1715  0.0967
 8486TIP3    H246950   3.888   2.817   2.065 -0.8573  0.8429 -0.5116
 8487TIP3   OH246951   5.392   3.124  11.688  0.4740 -0.6748  0.3763
 8487TIP3    H146952   5.467   3.183  11.693  0.7838 -0.8820 -1.6394
 8487TIP3    H246953   5.376   3.112  11.594 -2.3098 -0.3460  0.7576
 8488TIP3   OH246954   4.510   1.634  10.991  0.1511 -0.1223 -0.2588
 8488TIP3    H146955   4.582   1.583  11.028  0.2619  0.5422  0.4634
 8488TIP3    H246956   4.553   1.708  10.947 -0.0875  0.2873  0.1939
 8489TIP3   OH246957   5.695   3.967  15.229  0.2490  0.1456 -0.1751
 8489TIP3    H146958   5.733   4.038  15.177 -0.0430  1.1305  0.9323
 8489TIP3    H246959   5.722   3.986  15.319 -1.6540  0.0564  0.4283
 8490TIP3   OH246960   2.739   0.881  16.015  0.4594 -0.3609  0.0344
 8490TIP3    H146961   2.672   0.813  16.007  0.6588 -0.6626  0.8648
 8490TIP3    H246962   2.690   0.963  16.008 -0.1147 -0.5721  1.4212
 8491TIP3   OH246963   1.576   1.611  17.093  0.2433 -0.2169 -0.0354
 8491TIP3    H146964   1.600   1.529  17.135  2.7235  1.1406  1.3475
 8491TIP3    H246965   1.506   1.646  17.149  0.0475 -0.8017  0.0921
 8492TIP3   OH246966   6.731   3.183  11.199  0.2212 -0.5591  0.6822
 8492TIP3    H146967   6.825   3.198  11.189 -0.1518  1.1268 -0.6059
 8492TIP3    H246968   6.724   3.114  11.264  2.3638 -0.8174  0.6635
 8493TIP3   OH246969   2.981   0.701   1.456 -0.0580 -0.4569  0.0955
 8493TIP3    H146970   3.073   0.713   1.482 -0.0650 -1.0156  0.3867
 8493TIP3    H246971   2.958   0.615   1.490 -1.5565  0.8464  2.6056
 8494TIP3   OH246972   5.814   5.479   4.032 -0.0264  0.0420  0.5008
 8494TIP3    H146973   5.874   5.422   3.986 -0.2340  0.4361 -0.2595
 8494TIP3    H246974   5.736   5.482   3.976 -0.3704  0.3273  0.9904
 8495TIP3   OH246975   5.816   0.014   3.924 -0.0703 -0.0144 -0.3407
 8495TIP3    H146976   5.780  -0.074   3.908 -0.6462  0.1052  0.2846
 8495TIP3    H246977   5.743   0.073   3.906  0.6555  0.4214 -1.9286
 8496TIP3   OH246978   5.012   0.436   4.770 -0.0759  0.5209 -0.0551
 8496TIP3    H146979   5.003   0.341   4.765  1.7329  0.3544 -0.6819
 8496TIP3    H246980   5.040   0.452   4.861 -2.3779  0.6651  0.6578
 8497TIP3   OH246981   3.420   0.653  12.768 -0.4454 -0.1009 -0.5996
 8497TIP3    H146982   3.475   0.728  12.745 -2.1841  1.1440 -0.7513
 8497TIP3    H246983   3.474   0.602  12.829  0.9414  0.9976 -0.8784
 8498TIP3   OH246984   3.459   1.821  14.288 -1.3970 -0.3859 -0.3791
 8498TIP3    H146985   3.494   1.757  14.350  0.6038  1.7882  0.8620
 8498TIP3    H246986   3.519   1.817  14.214  0.2354  1.7191  0.7621
 8499TIP3   OH246987   4.294   3.882   4.405  0.2207 -0.2917  0.8041
 8499TIP3    H146988   4.226   3.947   4.422 -1.1900 -1.4642 -0.1512
 8499TIP3    H246989   4.260   3.802   4.446  1.6830 -0.5770  1.5072
 8500TIP3   OH246990   2.945   4.729   5.838 -0.1694  0.6858  0.6316
 8500TIP3    H146991   2.939   4.679   5.757  0.0106 -0.5245  1.3633
 8500TIP3    H246992   3.019   4.691   5.885 -0.9509  0.6572  1.8640
 8501TIP3   OH246993   4.501   4.479   0.860  0.3664 -0.5253 -0.4986
 8501TIP3    H146994   4.506   4.569   0.892  3.4745 -0.8808  0.2396
 8501TIP3    H246995   4.476   4.427   0.936  2.7899 -0.7566  0.1858
 8502TIP3   OH246996   3.839   6.741   5.945 -0.1018  0.0305 -0.1917
 8502TIP3    H146997   3.854   6.727   6.038 -0.7961 -0.0481 -0.0901
 8502TIP3    H246998   3.771   6.807   5.941 -2.4463 -2.3437 -0.5997
 8503TIP3   OH246999   0.558   5.190  11.849 -0.2409  0.2768 -0.1388
 8503TIP3    H147000   0.547   5.262  11.787  0.3956  0.8516  0.4035
 8503TIP3    H247001   0.633   5.140  11.815 -0.4343  0.1008 -0.3027
 8504TIP3   OH247002   6.302   4.776  10.280 -0.0252  0.0283 -0.2560
 8504TIP3    H147003   6.240   4.743  10.345  0.7508 -0.0305  0.4485
 8504TIP3    H247004   6.348   4.847  10.324  1.0909 -0.5593 -0.4683
 8505TIP3   OH247005   1.558   4.805  16.833 -0.7342 -0.8240 -0.5292
 8505TIP3    H147006   1.600   4.719  16.839 -0.4842 -0.8363 -2.3008
 8505TIP3    H247007   1.485   4.799  16.894  2.0240 -0.6476  2.9880
 8506TIP3   OH247008   4.523   6.358  12.714 -0.3676  0.0324  0.0493
 8506TIP3    H147009   4.525   6.301  12.791 -1.0426 -1.5425 -1.0758
 8506TIP3    H247010   4.452   6.323  12.661 -0.4714  1.6506 -0.8900
 8507TIP3   OH247011   5.070   0.495  11.531 -0.2723 -0.1714  0.3929
 8507TIP3    H147012   5.067   0.563  11.463  0.3414 -2.3434 -1.8598
 8507TIP3    H247013   4.987   0.506  11.579 -0.6994  1.4197 -0.6458
 8508TIP3   OH247014   2.341   4.058   3.152  0.1873  0.0706  0.2770
 8508TIP3    H147015   2.416   4.032   3.099  0.9879  1.4843  0.6832
 8508TIP3    H247016   2.273   3.994   3.131  2.2884 -2.7709  1.7762
 8509TIP3   OH247017   2.089   1.038   5.987  0.0620 -0.5100 -0.0626
 8509TIP3    H147018   2.156   1.102   6.010 -0.7199 -0.2740  1.5945
 8509TIP3    H247019   2.081   1.046   5.892  1.7276  0.0923 -0.1714
 8510TIP3   OH247020   6.054   3.714  14.976 -0.0689 -0.0847 -0.6993
 8510TIP3    H147021   6.014   3.687  15.058 -0.9521  0.0098 -1.0935
 8510TIP3    H247022   6.040   3.809  14.972  0.0701 -0.0720 -0.8999
 8511TIP3   OH247023   5.249   3.638   4.383 -0.8056 -0.2266  0.0201
 8511TIP3    H147024   5.314   3.650   4.452 -0.8131 -0.4958  0.0763
 8511TIP3    H247025   5.260   3.714   4.326  0.1645 -0.7104 -0.4562
 8512TIP3   OH247026   1.829   4.204   5.792  0.3988  0.2585  0.6390
 8512TIP3    H147027   1.880   4.201   5.873  1.6663  0.0015 -0.1367
 8512TIP3    H247028   1.754   4.147   5.809  1.7790 -1.5580  0.9205
 8513TIP3   OH247029   2.517   4.312  16.390  0.4129 -0.1118  0.1687
 8513TIP3    H147030   2.589   4.369  16.419 -0.5549  0.4976  1.4108
 8513TIP3    H247031   2.557   4.226  16.382  0.8125 -0.2276  2.9889
 8514TIP3   OH247032   6.605   2.068  13.874 -0.0329 -0.4408 -0.2461
 8514TIP3    H147033   6.583   2.118  13.952  0.3929  0.0972 -0.4606
 8514TIP3    H247034   6.556   1.987  13.882  2.3422 -1.7240  2.1106
 8515TIP3   OH247035   6.607   2.246   0.606 -0.0355  0.3731  0.2949
 8515TIP3    H147036   6.658   2.319   0.571 -1.4300  0.2325 -2.1128
 8515TIP3    H247037   6.659   2.169   0.585  0.6268  0.5234  1.3444
 8516TIP3   OH247038   5.024   4.997  11.772  0.2910  0.1895  0.2463
 8516TIP3    H147039   5.058   4.920  11.727  1.0125  0.2485  0.6954
 8516TIP3    H247040   5.060   4.992  11.860  0.5453  1.1788  0.2025
 8517TIP3   OH247041   1.384   3.455  16.519 -0.0856 -0.5307  0.1048
 8517TIP3    H147042   1.303   3.408  16.500 -0.6712  0.9533 -1.1339
 8517TIP3    H247043   1.448   3.418  16.459  0.0033 -1.2324  0.6214
 8518TIP3   OH247044   2.798   5.351  13.789 -0.1531  0.1159  0.0680
 8518TIP3    H147045   2.863   5.319  13.727  1.2861  1.7058  0.7102
 8518TIP3    H247046   2.778   5.276  13.845  2.9693  0.2406  1.4127
 8519TIP3   OH247047   0.618   0.887   4.167 -0.1196  0.0977  0.0038
 8519TIP3    H147048   0.582   0.823   4.229  0.4844  0.7334  1.0157
 8519TIP3    H247049   0.547   0.950   4.154 -0.3975 -0.2766 -0.2803
 8520TIP3   OH247050   2.115   3.333  12.966  0.0260  0.3334 -0.8515
 8520TIP3    H147051   2.191   3.384  12.938  0.2929  0.1678 -0.4367
 8520TIP3    H247052   2.045   3.397  12.974  0.0633  0.4540 -1.4474
 8521TIP3   OH247053   6.530   0.536   4.355  0.7544  0.4285 -0.2084
 8521TIP3    H147054   6.621   0.564   4.362  1.4199 -1.3821 -1.5785
 8521TIP3    H247055   6.531   0.442   4.373 -0.5936  0.0519 -1.9646
 8522TIP3   OH247056   3.976   0.818  16.459 -0.2368  0.3795 -0.3006
 8522TIP3    H147057   4.059   0.853  16.490 -0.6275  1.3192 -0.2831
 8522TIP3    H247058   3.986   0.816  16.363 -0.6553  1.7455 -0.3946
 8523TIP3   OH247059   2.814   2.659   3.022 -0.0407 -0.5362  0.0680
 8523TIP3    H147060   2.776   2.611   2.948  0.9502  0.7710 -1.3079
 8523TIP3    H247061   2.809   2.751   2.997  0.7121 -0.0932  1.4571
 8524TIP3   OH247062   2.134   6.712   0.257  0.2191  0.4860  0.4357
 8524TIP3    H147063   2.061   6.761   0.295  0.1756  0.3201  0.5665
 8524TIP3    H247064   2.179   6.775   0.201 -0.5972  0.3409 -0.4070
 8525TIP3   OH247065   5.639   1.727  14.841  0.2999 -0.1029 -0.1707
 8525TIP3    H147066   5.680   1.673  14.910 -1.0072 -1.0563 -0.1185
 8525TIP3    H247067   5.569   1.672  14.807 -0.3648  1.1693 -0.8714
 8526TIP3   OH247068   2.928   0.516  13.326 -0.0091 -0.6711  0.2653
 8526TIP3    H147069   2.945   0.528  13.232  0.5083 -0.7135  0.3502
 8526TIP3    H247070   2.834   0.497  13.331 -0.5249  1.6384 -0.0361
 8527TIP3   OH247071   6.351   5.753  14.415  0.0402 -1.1788 -0.7436
 8527TIP3    H147072   6.270   5.710  14.386 -0.0001 -2.2185  0.8563
 8527TIP3    H247073   6.329   5.846  14.420 -0.8222 -1.3603 -1.0834
 8528TIP3   OH247074   1.406   5.666  13.932 -0.1685  0.3397 -0.3116
 8528TIP3    H147075   1.313   5.642  13.936 -0.0370 -0.4953 -2.0283
 8528TIP3    H247076   1.426   5.696  14.021 -0.9169 -3.7623  1.3574
 8529TIP3   OH247077   5.814   2.875   4.253 -0.0812  0.0698  0.4645
 8529TIP3    H147078   5.844   2.806   4.194 -2.8905 -0.6499 -0.2340
 8529TIP3    H247079   5.875   2.947   4.240  2.7860 -2.1626  1.0226
 8530TIP3   OH247080   0.870   1.419  12.675  0.0976 -0.7094 -0.2757
 8530TIP3    H147081   0.789   1.471  12.672 -0.1655 -0.9880  1.3201
 8530TIP3    H247082   0.854   1.347  12.614 -0.0802  0.3177 -1.4583
 8531TIP3   OH247083   1.435   2.322  13.025  0.5941 -0.4135 -0.6625
 8531TIP3    H147084   1.415   2.341  12.933 -0.3755  0.7715 -0.2285
 8531TIP3    H247085   1.508   2.260  13.021  0.9821  0.0906 -2.2304
 8532TIP3   OH247086   1.925   1.653   4.363  0.2227 -0.3007  0.2319
 8532TIP3    H147087   1.951   1.631   4.453 -0.0505  0.0800  0.4062
 8532TIP3    H247088   1.832   1.674   4.370  0.5155  1.0851  0.1009
 8533TIP3   OH247089   3.771   2.640  16.434 -0.3094  0.4795  0.6376
 8533TIP3    H147090   3.681   2.640  16.465 -1.6025 -0.4466 -2.9391
 8533TIP3    H247091   3.774   2.572  16.367  3.0926  0.3910  0.7912
 8534TIP3   OH247092   6.078   6.285   2.875 -0.1092 -0.3679  0.1580
 8534TIP3    H147093   6.170   6.312   2.870 -0.0491 -0.3313  1.3529
 8534TIP3    H247094   6.081   6.190   2.875 -0.1410 -0.3739 -0.9159
 8535TIP3   OH247095   5.291   0.957  15.210 -0.1709  0.2431 -0.4412
 8535TIP3    H147096   5.272   0.933  15.300 -1.4147  1.8054 -0.2785
 8535TIP3    H247097   5.387   0.954  15.204 -0.0895  0.1527  0.9199
 8536TIP3   OH247098   4.512   6.225  13.628 -0.3111  0.2583 -0.0842
 8536TIP3    H147099   4.506   6.163  13.701  1.1816 -1.0863 -1.0757
 8536TIP3    H247100   4.438   6.201  13.571 -1.0606  0.8558  0.6208
 8537TIP3   OH247101   0.004   5.885   4.356  0.2299  0.3126  0.0568
 8537TIP3    H147102   0.020   5.856   4.445 -0.8043  0.7703  0.3954
 8537TIP3    H247103   0.056   5.826   4.302 -0.2308 -0.8602  0.8728
 8538TIP3   OH247104   6.527   3.485   5.874  0.3829 -0.2098  0.2947
 8538TIP3    H147105   6.557   3.473   5.964  0.0142  1.1998  0.6151
 8538TIP3    H247106   6.453   3.424   5.866  0.5007 -0.4394  0.8990
 8539TIP3   OH247107   4.807   1.773  11.637  0.0127 -0.2613 -0.3594
 8539TIP3    H147108   4.876   1.790  11.702 -1.9111  2.2743  1.1020
 8539TIP3    H247109   4.821   1.839  11.569 -1.5278  0.9117  0.4341
 8540TIP3   OH247110   2.808   6.295  12.384 -0.1169  0.0618 -0.3492
 8540TIP3    H147111   2.810   6.312  12.290 -0.1205  0.2346 -0.3183
 8540TIP3    H247112   2.739   6.229  12.395  0.6765 -0.8297 -0.6000
 8541TIP3   OH247113   0.623   4.748  12.127 -0.2287 -0.2898 -0.3446
 8541TIP3    H147114   0.542   4.750  12.076  0.7342  0.0687 -1.9151
 8541TIP3    H247115   0.639   4.840  12.149 -1.1595 -0.5464  1.4803
 8542TIP3   OH247116   2.671   2.645   2.105 -0.4646  0.0705 -0.0234
 8542TIP3    H147117   2.708   2.631   2.193 -1.2939 -0.6703  0.2179
 8542TIP3    H247118   2.668   2.557   2.067 -0.1146  0.3924 -0.7919
 8543TIP3   OH247119   2.535   4.385   2.301 -0.5314 -0.3014  0.1136
 8543TIP3    H147120   2.475   4.370   2.374  0.5736 -1.4377  0.7920
 8543TIP3    H247121   2.609   4.327   2.318  1.0847  1.5829 -0.3504
 8544TIP3   OH247122   0.947   2.512   0.747 -0.1697 -0.0210 -0.0672
 8544TIP3    H147123   0.866   2.532   0.794 -0.3887 -0.1977 -0.3669
 8544TIP3    H247124   1.001   2.465   0.810 -0.4650 -0.2639  0.0033
 8545TIP3   OH247125   5.254   1.805   4.659 -0.0838 -0.4060 -0.0607
 8545TIP3    H147126   5.285   1.801   4.568  0.1481  0.8023 -0.0393
 8545TIP3    H247127   5.214   1.891   4.667  1.8585  0.3901  1.6081
 8546TIP3   OH247128   4.418   4.038  15.982  0.0829 -0.2183  0.4844
 8546TIP3    H147129   4.402   4.117  16.033 -0.9157 -1.4462  2.1205
 8546TIP3    H247130   4.331   4.008  15.955  0.5180 -0.2267 -0.9965
 8547TIP3   OH247131   5.655   1.126  12.061 -0.2826 -0.0787 -0.0704
 8547TIP3    H147132   5.639   1.220  12.057 -0.9764 -0.2299 -0.9257
 8547TIP3    H247133   5.703   1.105  11.981 -1.1642 -0.6396 -0.4676
 8548TIP3   OH247134   4.978   2.075   3.520 -0.1441  0.2737 -0.2683
 8548TIP3    H147135   4.980   1.984   3.550 -1.2276  1.3005  3.1644
 8548TIP3    H247136   4.900   2.081   3.465  0.1192 -0.9444 -0.7864
 8549TIP3   OH247137   5.073   5.490  12.908  0.0494  0.5942  0.1449
 8549TIP3    H147138   5.064   5.408  12.957  0.9434  2.2330  3.2179
 8549TIP3    H247139   5.158   5.483  12.866 -0.1980 -0.3614 -0.2163
 8550TIP3   OH247140   1.407   2.129  14.224 -0.5421  0.2188 -0.5635
 8550TIP3    H147141   1.345   2.086  14.284  0.2584 -0.6386 -0.3420
 8550TIP3    H247142   1.476   2.064  14.211  0.5746  1.3584 -0.3990
 8551TIP3   OH247143   0.193   5.100  14.193 -0.3914 -0.0698  0.1588
 8551TIP3    H147144   0.228   5.152  14.265  0.9014 -0.4290 -0.2003
 8551TIP3    H247145   0.099   5.120  14.193 -0.5168 -0.4882  2.2841
 8552TIP3   OH247146   4.338   1.202   1.243 -0.6224  0.0053 -0.4949
 8552TIP3    H147147   4.389   1.248   1.310 -0.0519  0.2383 -1.0847
 8552TIP3    H247148   4.328   1.265   1.172  1.5338 -1.2744 -1.9858
 8553TIP3   OH247149   6.003   1.056   2.049  1.0541 -0.1532  0.0856
 8553TIP3    H147150   6.085   1.008   2.059  1.9840  1.3365 -0.3398
 8553TIP3    H247151   6.026   1.134   2.000 -0.2252  1.3361  1.7736
 8554TIP3   OH247152   2.996   0.499   1.231  0.3227  0.7503 -0.2385
 8554TIP3    H147153   2.909   0.535   1.215 -1.0596 -2.1143  0.4489
 8554TIP3    H247154   3.000   0.486   1.326  1.0509 -0.1395 -0.3778
 8555TIP3   OH247155   3.682   3.884   2.748 -0.0053 -0.8227 -0.0229
 8555TIP3    H147156   3.602   3.935   2.760 -0.3704 -1.8327  1.9999
 8555TIP3    H247157   3.657   3.812   2.690  0.0795  0.2744 -1.4513
 8556TIP3   OH247158   2.022   1.936  12.655 -0.0456 -0.0455  0.1024
 8556TIP3    H147159   2.070   2.016  12.633  0.3892 -0.2258  0.3928
 8556TIP3    H247160   2.082   1.865  12.632  0.3172 -0.2475  1.6038
 8557TIP3   OH247161   4.407   4.772   4.785 -0.1515 -0.8008  0.6787
 8557TIP3    H147162   4.412   4.848   4.844 -1.2745 -0.4593  0.3462
 8557TIP3    H247163   4.366   4.704   4.838  0.9886 -1.2237  1.0219
 8558TIP3   OH247164   4.058   1.599  13.307  0.0874  0.2654  0.0478
 8558TIP3    H147165   4.154   1.594  13.310  0.1403  1.6355  0.9971
 8558TIP3    H247166   4.032   1.607  13.399 -1.0098 -1.1108 -0.1216
 8559TIP3   OH247167   3.040   2.321   1.052  0.2300  0.2830  0.1309
 8559TIP3    H147168   2.993   2.346   0.972 -0.9644 -0.9406  0.4297
 8559TIP3    H247169   2.995   2.368   1.122 -0.9982 -1.3705  0.4955
 8560TIP3   OH247170   4.982   6.647   0.694 -0.0457  0.0558  0.1203
 8560TIP3    H147171   5.041   6.720   0.673 -0.8862  0.4935 -0.7754
 8560TIP3    H247172   4.895   6.687   0.696 -0.2559 -0.4452  2.1168
 8561TIP3   OH247173   4.648   4.594  16.670  0.2505 -0.0524 -0.0533
 8561TIP3    H147174   4.644   4.528  16.739  0.6565 -0.4247 -0.3824
 8561TIP3    H247175   4.663   4.544  16.590 -1.3527  0.2852 -0.5801
 8562TIP3   OH247176   5.396   2.757  14.240  0.0504 -0.0208 -0.2103
 8562TIP3    H147177   5.402   2.795  14.153 -0.1973  0.1751 -0.1468
 8562TIP3    H247178   5.327   2.691  14.233 -0.7381  0.7575  0.0986
 8563TIP3   OH247179   1.311   2.054   6.147  0.2472 -0.7906 -0.0173
 8563TIP3    H147180   1.307   2.031   6.240  0.5170 -2.5576 -0.4153
 8563TIP3    H247181   1.306   1.969   6.102 -0.3732  0.0886 -1.6190
 8564TIP3   OH247182   6.493   5.703  15.288 -0.5768 -0.0332  0.0754
 8564TIP3    H147183   6.498   5.744  15.202  0.9601 -1.4478 -0.5451
 8564TIP3    H247184   6.567   5.641  15.289 -1.3217 -0.9223  1.9268
 8565TIP3   OH247185   0.368   3.752   0.856  0.0023 -0.1054  0.6128
 8565TIP3    H147186   0.325   3.717   0.778  1.8737  1.6837 -1.2977
 8565TIP3    H247187   0.351   3.687   0.924 -1.1122 -2.0433 -1.4569
 8566TIP3   OH247188   4.861   1.343  13.536  0.3921  0.0813  0.0964
 8566TIP3    H147189   4.852   1.361  13.630  0.3917 -0.9640  0.3103
 8566TIP3    H247190   4.777   1.303  13.512  1.2140 -1.7722  0.1774
 8567TIP3   OH247191   4.552   6.169  12.933  0.6134  0.0078  0.0182
 8567TIP3    H147192   4.505   6.104  12.986 -0.4838 -0.4916 -1.5214
 8567TIP3    H247193   4.643   6.161  12.960  0.2830 -1.2482  0.8060
 8568TIP3   OH247194   2.348   0.121   2.361  0.0087 -0.7054  0.4342
 8568TIP3    H147195   2.258   0.138   2.390  0.1890  0.1802  0.4646
 8568TIP3    H247196   2.338   0.088   2.272 -0.1883  1.9583 -0.5753
 8569TIP3   OH247197   5.069   6.249   3.833 -0.9047 -0.1221  0.0132
 8569TIP3    H147198   4.973   6.250   3.834 -0.9530  0.4927 -2.3999
 8569TIP3    H247199   5.091   6.156   3.828 -1.3611 -0.2828  0.8820
 8570TIP3   OH247200   3.497   0.452   6.374  0.5713 -0.0052  0.0894
 8570TIP3    H147201   3.439   0.423   6.303 -0.7352  1.1384  0.6508
 8570TIP3    H247202   3.515   0.544   6.353 -1.0113  0.7698  1.9710
 8571TIP3   OH247203   1.652   3.500  14.808  0.2852  0.4734  0.4154
 8571TIP3    H147204   1.640   3.408  14.831  1.3609  0.3816  0.6282
 8571TIP3    H247205   1.733   3.502  14.758  0.3576  1.3316  0.5604
 8572TIP3   OH247206   3.757   0.607  16.347  0.3535  0.0310  0.1669
 8572TIP3    H147207   3.838   0.619  16.298  0.8974 -0.5703  0.8902
 8572TIP3    H247208   3.693   0.664  16.304  0.7404 -0.6813 -1.3926
 8573TIP3   OH247209   3.042   3.222  11.482  0.2416 -0.4306 -0.1197
 8573TIP3    H147210   3.029   3.131  11.455 -1.4844 -0.5499  1.0645
 8573TIP3    H247211   3.084   3.216  11.568  1.5333 -0.0777 -0.7064
 8574TIP3   OH247212   2.829   5.133   2.820  0.2242 -0.6889 -0.0939
 8574TIP3    H147213   2.861   5.081   2.746 -1.4950  0.4833 -1.7276
 8574TIP3    H247214   2.810   5.069   2.888  0.4656 -1.9568 -1.2003
 8575TIP3   OH247215   3.704   1.044  12.793 -0.0734 -0.1700 -0.2608
 8575TIP3    H147216   3.786   1.093  12.789 -1.0426  1.4784 -0.1071
 8575TIP3    H247217   3.716   0.973  12.729  2.0593 -0.8980  0.8751
 8576TIP3   OH247218   1.583   0.258   5.315 -0.5882 -0.2010 -0.1342
 8576TIP3    H147219   1.624   0.332   5.360  0.8740 -0.4467 -1.0176
 8576TIP3    H247220   1.501   0.245   5.361 -0.5697  1.5573  0.4492
 8577TIP3   OH247221   0.096   4.333  16.831  0.4405 -0.4500 -0.0568
 8577TIP3    H147222   0.080   4.252  16.879 -0.5227  0.4965  1.2516
 8577TIP3    H247223   0.187   4.356  16.854  0.5613 -0.9101 -0.0595
 8578TIP3   OH247224   2.333   1.070  12.729 -0.0574  0.8712 -0.5897
 8578TIP3    H147225   2.245   1.098  12.755 -0.0725 -0.3918  0.7834
 8578TIP3    H247226   2.321   0.981  12.695  0.5518  1.0497 -1.2901
 8579TIP3   OH247227   2.989   5.250  14.668  0.5554  0.2859  0.5469
 8579TIP3    H147228   2.967   5.245  14.575 -0.8762  1.1014  0.8204
 8579TIP3    H247229   3.020   5.163  14.690  0.8588  0.0687 -0.6909
 8580TIP3   OH247230   5.879   5.214  17.181  0.3231  0.5109 -0.7010
 8580TIP3    H147231   5.868   5.264  17.261  0.4159  1.8494 -1.5052
 8580TIP3    H247232   5.924   5.134  17.208 -2.5095 -0.5496  1.0871
 8581TIP3   OH247233   5.070   3.213  16.708  0.2898  0.0335  0.0387
 8581TIP3    H147234   5.014   3.246  16.777 -0.6622  0.1850 -0.7988
 8581TIP3    H247235   5.102   3.129  16.741 -0.3395  0.0025  0.5601
 8582TIP3   OH247236   6.400   0.785   1.587 -0.3156 -1.1021 -0.8181
 8582TIP3    H147237   6.449   0.704   1.570  0.6861 -0.7140  0.1526
 8582TIP3    H247238   6.408   0.798   1.681  1.4814  1.3447 -1.2702
 8583TIP3   OH247239   3.741   3.031   1.916 -0.0966 -0.0057  0.0041
 8583TIP3    H147240   3.744   3.060   2.007 -0.1446 -1.7276  0.5727
 8583TIP3    H247241   3.653   3.055   1.886 -0.6575 -0.8543  0.9128
 8584TIP3   OH247242   2.018   0.913   2.299 -0.3060  0.2416 -0.2695
 8584TIP3    H147243   2.019   0.849   2.371  2.1703  1.8424  1.1916
 8584TIP3    H247244   1.959   0.981   2.330 -1.1239 -0.2176 -0.8141
 8585TIP3   OH247245   6.246   1.751   3.421 -0.2052 -0.2985 -0.2867
 8585TIP3    H147246   6.281   1.812   3.486  0.6085  1.1679 -2.0803
 8585TIP3    H247247   6.159   1.728   3.455  0.3304  0.1808  1.4797
 8586TIP3   OH247248   2.388   6.107   5.153  0.2549 -0.0120 -0.0735
 8586TIP3    H147249   2.414   6.080   5.065 -0.5064  0.5128 -0.4661
 8586TIP3    H247250   2.296   6.080   5.160 -0.0600  1.0945  0.0901
 8587TIP3   OH247251   5.616   6.362  13.463 -0.6835 -0.1072  0.3719
 8587TIP3    H147252   5.550   6.307  13.505 -0.7814  1.7965  2.8171
 8587TIP3    H247253   5.579   6.384  13.378 -2.9565  0.4340  1.4702
 8588TIP3   OH247254   3.380   0.753  13.598  0.1732  0.0077 -0.1194
 8588TIP3    H147255   3.458   0.772  13.545 -0.0391  1.3276  0.0290
 8588TIP3    H247256   3.321   0.826  13.582  0.5691  1.0399  2.8047
 8589TIP3   OH247257   3.995   4.358  16.861  1.0466 -0.4214 -0.0497
 8589TIP3    H147258   3.965   4.382  16.774  1.5818 -1.2045 -0.4562
 8589TIP3    H247259   4.085   4.391  16.867  0.4903  1.0144  0.7893
 8590TIP3   OH247260   5.960   6.283  15.987 -0.0592  0.1041  0.1453
 8590TIP3    H147261   5.970   6.368  15.944  0.7340  0.2796  0.6688
 8590TIP3    H247262   6.048   6.260  16.016 -0.0499 -1.4623 -1.0501
 8591TIP3   OH247263   5.823   0.125   0.714 -0.0738  0.2768  0.5641
 8591TIP3    H147264   5.758   0.079   0.767 -1.2291 -0.1351 -1.1840
 8591TIP3    H247265   5.859   0.058   0.656 -0.0715  1.0801 -0.3730
 8592TIP3   OH247266   5.062   4.996  15.374 -0.0812 -0.1285  0.2741
 8592TIP3    H147267   5.013   5.012  15.455 -0.4252  1.1867 -0.1781
 8592TIP3    H247268   5.052   4.902  15.358 -0.8057 -0.2295  1.2468
 8593TIP3   OH247269   6.207   6.152  16.919 -0.0451 -0.3314  0.3133
 8593TIP3    H147270   6.137   6.173  16.857  1.4403  1.5466 -0.8174
 8593TIP3    H247271   6.202   6.058  16.931 -2.1966 -0.3335 -0.4364
 8594TIP3   OH247272   3.329   2.751   3.189  0.2234  0.7396 -0.0535
 8594TIP3    H147273   3.284   2.763   3.272  0.9426  0.4494  0.3877
 8594TIP3    H247274   3.383   2.673   3.202  1.0165  1.2013 -0.4914
 8595TIP3   OH247275   2.372   6.540   0.336  0.1073  0.1192 -0.0173
 8595TIP3    H147276   2.302   6.604   0.329 -0.3218 -0.1485  1.6586
 8595TIP3    H247277   2.344   6.466   0.282 -0.0168  0.7700 -0.8560
 8596TIP3   OH247278   4.872   0.402   5.401  0.7195 -0.1343  1.1010
 8596TIP3    H147279   4.927   0.477   5.376 -0.8035  0.5227 -0.4141
 8596TIP3    H247280   4.897   0.333   5.340  0.6974 -0.1960  1.1631
 8597TIP3   OH247281   1.042   3.931  12.698  0.0689 -0.0331 -0.4810
 8597TIP3    H147282   1.061   3.988  12.772 -0.5366  0.1352 -0.4523
 8597TIP3    H247283   0.961   3.966  12.661 -1.1830 -1.7960  0.4946
 8598TIP3   OH247284   2.396   6.107  13.766 -1.1168 -0.0168 -0.6331
 8598TIP3    H147285   2.446   6.030  13.739 -1.5242  0.0791 -1.6841
 8598TIP3    H247286   2.456   6.158  13.820 -0.5252 -0.5743 -0.7662
 8599TIP3   OH247287   0.342   3.814  12.849 -0.4831  0.0621 -0.4800
 8599TIP3    H147288   0.301   3.727  12.849 -3.0698  1.2273 -0.1061
 8599TIP3    H247289   0.382   3.822  12.936  1.0418 -1.2900 -1.0295
 8600TIP3   OH247290   0.642   0.647  11.851  0.3161 -0.1567 -0.2902
 8600TIP3    H147291   0.565   0.676  11.802  1.6872  2.0790 -1.2266
 8600TIP3    H247292   0.681   0.579  11.797  0.0735  0.0831 -0.7726
 8601TIP3   OH247293   6.462   1.889  15.400  0.6171 -0.5460 -0.6576
 8601TIP3    H147294   6.491   1.798  15.403  0.2661 -0.6387  0.2674
 8601TIP3    H247295   6.367   1.884  15.403  0.5557 -0.1865 -1.9531
 8602TIP3   OH247296   0.327   0.953   2.811 -0.7747 -0.5098 -0.0059
 8602TIP3    H147297   0.323   1.029   2.870 -0.8296 -1.4538  1.2196
 8602TIP3    H247298   0.398   0.899   2.846 -1.9121 -1.9020  0.1859
 8603TIP3   OH247299   1.014   6.534  12.250  0.3294 -0.1799 -0.2515
 8603TIP3    H147300   1.094   6.497  12.212  0.7116  0.3599  0.0085
 8603TIP3    H247301   1.041   6.621  12.281 -0.7071  0.5978 -1.4675
 8604TIP3   OH247302   4.779   2.118   4.688 -0.1497 -0.1563 -0.2894
 8604TIP3    H147303   4.846   2.059   4.725  1.5600  2.0166  0.1766
 8604TIP3    H247304   4.710   2.119   4.754  0.3563 -0.7052  0.2636
 8605TIP3   OH247305   2.736   5.843  13.470  0.3701 -0.1326  0.0530
 8605TIP3    H147306   2.650   5.848  13.428  0.0053 -1.9780  0.5251
 8605TIP3    H247307   2.745   5.751  13.493  1.9567  0.2825  1.1193
 8606TIP3   OH247308   5.054   6.329  15.993 -0.5284 -0.4273  0.4726
 8606TIP3    H147309   5.121   6.279  16.040 -1.0208 -0.6901  0.9023
 8606TIP3    H247310   4.972   6.302  16.034 -0.6419  2.3545  2.1832
 8607TIP3   OH247311   3.644   5.249  11.719  0.6501 -0.3424 -0.6040
 8607TIP3    H147312   3.658   5.169  11.769 -2.9510 -0.9752 -0.5378
 8607TIP3    H247313   3.632   5.220  11.629  1.0459  0.2853 -0.8673
 8608TIP3   OH247314   1.808   3.474   6.151 -0.3039 -0.1789 -0.2097
 8608TIP3    H147315   1.776   3.552   6.195  0.9429  0.2377 -0.0267
 8608TIP3    H247316   1.897   3.462   6.183 -0.4220 -1.5936 -0.3488
 8609TIP3   OH247317   1.466   2.527   2.732 -0.4938  0.0858 -0.1908
 8609TIP3    H147318   1.390   2.535   2.790  0.2426  0.9950  0.6692
 8609TIP3    H247319   1.518   2.455   2.771 -0.5303 -0.0188 -0.3358
 8610TIP3   OH247320   3.209   0.722  14.001 -0.0553  0.1692 -0.3082
 8610TIP3    H147321   3.207   0.678  13.917  0.5459  0.6771 -0.6012
 8610TIP3    H247322   3.120   0.753  14.015 -0.4566 -1.0611 -0.1372
 8611TIP3   OH247323   4.828   5.479   1.690  0.4071  0.1080 -0.2258
 8611TIP3    H147324   4.902   5.481   1.629  0.1257  1.5955 -0.5453
 8611TIP3    H247325   4.751   5.470   1.633  0.2353  0.1061  0.0059
 8612TIP3   OH247326   5.782   2.534  15.906 -0.0210 -0.2178  0.0574
 8612TIP3    H147327   5.768   2.593  15.979  0.1538 -1.2998  0.9801
 8612TIP3    H247328   5.821   2.456  15.945  1.0763 -0.3878 -1.3316
 8613TIP3   OH247329   4.306   3.815  16.432 -0.3805 -0.7469 -0.6187
 8613TIP3    H147330   4.376   3.865  16.475 -0.1362 -2.4580  1.0719
 8613TIP3    H247331   4.227   3.867  16.447  0.1200 -0.0892 -0.2301
 8614TIP3   OH247332   1.682   0.846  16.772 -0.2525 -0.2546  0.0914
 8614TIP3    H147333   1.589   0.844  16.795 -0.5470  1.1491 -0.9300
 8614TIP3    H247334   1.727   0.850  16.857 -1.1381 -0.4444  0.5784
 8615TIP3   OH247335   4.951   1.828  12.487  0.0185  0.0948 -0.1534
 8615TIP3    H147336   4.941   1.873  12.403  1.5578 -0.1846 -0.5047
 8615TIP3    H247337   4.988   1.894  12.545  3.4618 -1.0144 -1.0083
 8616TIP3   OH247338   2.729   3.700   0.350  0.0487 -0.8077 -0.6320
 8616TIP3    H147339   2.823   3.713   0.357  0.1170 -1.4884 -0.2186
 8616TIP3    H247340   2.696   3.704   0.440 -0.6343  1.5879 -0.9448
 8617TIP3   OH247341   6.361   0.819  13.154 -0.0776 -0.3198 -0.3094
 8617TIP3    H147342   6.344   0.808  13.060  1.3872 -0.7926 -0.5324
 8617TIP3    H247343   6.456   0.832  13.160 -0.2892  0.6883  1.0252
 8618TIP3   OH247344   2.959   4.333  11.245  0.3617 -0.6251  0.5137
 8618TIP3    H147345   2.917   4.260  11.200 -0.6367 -0.3199  0.9188
 8618TIP3    H247346   2.984   4.298  11.330  0.4405 -0.6651  0.4743
 8619TIP3   OH247347   6.764   0.897   6.421 -0.2728 -0.2338 -0.2687
 8619TIP3    H147348   6.685   0.844   6.430  0.2315 -1.1050 -0.8272
 8619TIP3    H247349   6.800   0.871   6.336  2.1495 -1.9904  1.2177
 8620TIP3   OH247350   2.732   3.745   4.487  0.1741 -0.1180  0.0761
 8620TIP3    H147351   2.675   3.809   4.443 -0.7344 -1.0560 -0.1488
 8620TIP3    H247352   2.743   3.780   4.575  1.1027  1.2225 -0.5469
 8621TIP3   OH247353   6.534   4.501   1.804  0.3014 -0.4299 -0.4125
 8621TIP3    H147354   6.474   4.562   1.847  1.5043  1.1851 -0.9781
 8621TIP3    H247355   6.613   4.502   1.859  0.1417 -1.8502 -0.1561
 8622TIP3   OH247356   0.668   4.083   1.358  0.7376  0.4482 -0.6547
 8622TIP3    H147357   0.663   4.178   1.347  1.8970  0.7647  1.1850
 8622TIP3    H247358   0.597   4.062   1.418  2.3654  0.6426  1.4253
 8623TIP3   OH247359   2.648   4.452   1.056 -0.3893 -0.1764  0.2286
 8623TIP3    H147360   2.713   4.520   1.039 -2.6457  2.2393  1.0117
 8623TIP3    H247361   2.641   4.449   1.151 -2.1623  0.3091  0.1188
 8624TIP3   OH247362   5.645   2.300   3.528 -0.2370  0.2576  0.4060
 8624TIP3    H147363   5.562   2.292   3.481  0.2091 -0.0445 -0.3304
 8624TIP3    H247364   5.675   2.210   3.540  0.5394  0.4095 -0.3297
 8625TIP3   OH247365   2.283   3.452   1.572 -0.4373 -0.2622  0.5656
 8625TIP3    H147366   2.215   3.519   1.569  0.2348  0.4030 -0.6770
 8625TIP3    H247367   2.312   3.444   1.481  0.1107 -1.6087  0.8428
 8626TIP3   OH247368   3.915   3.149  16.483  0.5555 -0.2117  0.3983
 8626TIP3    H147369   3.821   3.148  16.464  0.4965 -0.6169  0.6968
 8626TIP3    H247370   3.921   3.116  16.573  0.9264  0.4601  0.6184
 8627TIP3   OH247371   2.128   4.857  15.483 -0.6680  0.0232  0.1701
 8627TIP3    H147372   2.216   4.884  15.459 -0.1150 -1.3171  0.6807
 8627TIP3    H247373   2.122   4.766  15.456 -2.2009  0.3423 -0.6530
 8628TIP3   OH247374   1.951   3.714   0.606 -0.2563 -0.4443  0.5229
 8628TIP3    H147375   2.045   3.711   0.621 -0.5605 -2.0273  2.3432
 8628TIP3    H247376   1.942   3.714   0.511  1.5790 -0.2408  0.3274
 8629TIP3   OH247377   0.755   3.908  16.782 -0.3028  0.0649 -0.2544
 8629TIP3    H147378   0.830   3.848  16.790 -1.1069 -0.9952 -0.6696
 8629TIP3    H247379   0.712   3.902  16.867 -0.3936  0.0382 -0.3011
 8630TIP3   OH247380   0.604   5.292   2.084  0.6786  0.4993  0.2904
 8630TIP3    H147381   0.561   5.356   2.028 -1.4034 -1.0191  0.1006
 8630TIP3    H247382   0.692   5.283   2.046 -0.3062  0.3456 -2.0461
 8631TIP3   OH247383   5.021   2.539   1.247  0.0117  0.1970 -0.5109
 8631TIP3    H147384   4.958   2.606   1.222 -0.7849  0.1260  1.2040
 8631TIP3    H247385   4.971   2.478   1.301  0.7889 -1.6507 -1.8342
 8632TIP3   OH247386   6.032   4.519   4.566  0.6891 -0.0196 -0.0946
 8632TIP3    H147387   6.093   4.463   4.518 -1.0638 -0.2255 -2.1653
 8632TIP3    H247388   5.951   4.468   4.570 -0.3717  1.6185 -0.3910
 8633TIP3   OH247389   6.334   4.980  13.715 -0.3807  0.2504  0.1329
 8633TIP3    H147390   6.254   4.930  13.733  1.2274 -1.7552  2.0401
 8633TIP3    H247391   6.386   4.922  13.659  0.3260  0.9456  0.0589
 8634TIP3   OH247392   5.311   4.589  17.025 -0.6976  0.6578  0.3910
 8634TIP3    H147393   5.329   4.504  16.983 -0.3347  0.5767  0.7117
 8634TIP3    H247394   5.296   4.649  16.952  2.7298  1.1732  0.0317
 8635TIP3   OH247395   6.765   3.764   1.910 -0.1375 -1.0138  0.1297
 8635TIP3    H147396   6.707   3.840   1.917  1.9283  0.3601  3.6314
 8635TIP3    H247397   6.707   3.689   1.926 -1.6513  0.0286 -0.3520
 8636TIP3   OH247398   3.782   4.200  17.073  0.1438 -0.8324 -0.5536
 8636TIP3    H147399   3.861   4.252  17.060  0.1271 -1.0143 -1.3916
 8636TIP3    H247400   3.731   4.212  16.993 -0.4097 -1.1886 -0.2639
 8637TIP3   OH247401   0.015   6.688  16.538  0.4339  0.1436  0.5917
 8637TIP3    H147402   0.014   6.776  16.577  0.1239  0.2220  0.4136
 8637TIP3    H247403  -0.014   6.702  16.448  0.4049 -0.1400  0.5569
 8638TIP3   OH247404   1.021   1.936  12.999 -0.0357 -0.3891 -0.1842
 8638TIP3    H147405   1.110   1.968  13.011 -0.1636 -0.1110  0.0286
 8638TIP3    H247406   0.999   1.895  13.083 -0.8234  1.2919  0.4434
 8639TIP3   OH247407   5.100   5.613   6.225 -0.2883 -0.0029  0.3979
 8639TIP3    H147408   5.044   5.535   6.232 -1.0829  0.6017  0.7877
 8639TIP3    H247409   5.134   5.627   6.313 -0.6041  0.4291  0.4528
 8640TIP3   OH247410   0.092   3.040   1.319  0.2421 -0.8750  0.7657
 8640TIP3    H147411   0.054   3.001   1.397 -0.1530 -1.6653  0.1830
 8640TIP3    H247412   0.026   3.027   1.251  1.0179 -1.1260  0.0483
 8641TIP3   OH247413   3.976   4.969  15.054 -0.5455 -0.3625 -0.0428
 8641TIP3    H147414   3.942   5.042  15.107 -0.0312  0.7292 -1.1887
 8641TIP3    H247415   4.009   4.906  15.118  0.9615  1.3710  0.9252
 8642TIP3   OH247416   5.683   5.120   4.027  0.2483 -0.2762 -0.3742
 8642TIP3    H147417   5.757   5.103   4.085  0.2752  2.0876  0.3383
 8642TIP3    H247418   5.627   5.181   4.076 -1.7132 -1.3054 -1.2694
 8643TIP3   OH247419   0.255   6.055  15.435 -0.1402  0.0254  0.0074
 8643TIP3    H147420   0.171   6.101  15.430  0.6913  1.6326  0.5002
 8643TIP3    H247421   0.294   6.067  15.348  1.0653  2.2160  0.8173
 8644TIP3   OH247422   5.642   0.736   2.102  0.7970  0.4137 -0.3295
 8644TIP3    H147423   5.661   0.646   2.129  1.4122  0.0919 -1.8418
 8644TIP3    H247424   5.718   0.764   2.051 -0.6148  0.7908 -2.2887
 8645TIP3   OH247425   2.264   0.057  14.004 -0.9988  0.8037  0.1604
 8645TIP3    H147426   2.254   0.147  14.035 -1.1202  0.7078  0.4015
 8645TIP3    H247427   2.238   0.060  13.912 -1.9196  0.8283  0.4157
 8646TIP3   OH247428   4.935   0.768  13.712  0.0838 -0.1959  0.5466
 8646TIP3    H147429   4.982   0.812  13.641 -0.0433 -2.2063 -0.8234
 8646TIP3    H247430   4.988   0.786  13.790  0.9808  0.8835 -0.2906
 8647TIP3   OH247431   3.256   6.784  16.382 -0.3085 -0.0598  0.7204
 8647TIP3    H147432   3.352   6.784  16.374 -0.4195  1.3276 -0.8053
 8647TIP3    H247433   3.236   6.699  16.422  1.3257 -1.6636 -1.7302
 8648TIP3   OH247434   2.956   4.252   3.804 -0.2459  0.3205  0.5396
 8648TIP3    H147435   3.027   4.314   3.785  1.0137 -0.6625  1.8876
 8648TIP3    H247436   2.905   4.248   3.723  3.0629 -1.3141 -1.5605
 8649TIP3   OH247437   4.830   0.725   2.708  0.6585 -0.5189  0.5891
 8649TIP3    H147438   4.752   0.713   2.654  0.3991  1.5609  0.4610
 8649TIP3    H247439   4.891   0.774   2.652  1.3986 -0.6178  1.2965
 8650TIP3   OH247440   0.675   1.835  16.600  0.4751  0.5393 -0.9295
 8650TIP3    H147441   0.580   1.838  16.592  0.3969  0.2344 -0.1970
 8650TIP3    H247442   0.700   1.923  16.630  0.3542  0.4231 -0.4796
 8651TIP3   OH247443   1.617   2.640   4.464  0.2938 -0.4295  0.4900
 8651TIP3    H147444   1.628   2.626   4.370 -0.3556  0.2686  0.3087
 8651TIP3    H247445   1.698   2.606   4.502 -0.4910 -3.0776 -0.0925
 8652TIP3   OH247446   0.504   0.452   2.556 -0.4548  0.4723 -0.5621
 8652TIP3    H147447   0.478   0.442   2.648 -0.6520  0.4849 -0.6163
 8652TIP3    H247448   0.504   0.363   2.522 -1.8469  0.6148 -0.9470
 8653TIP3   OH247449   4.301   0.942   1.382  0.1433  0.2091  0.5117
 8653TIP3    H147450   4.245   0.956   1.458 -1.6821  1.2817 -0.9969
 8653TIP3    H247451   4.295   1.023   1.332  0.3660 -0.9205 -1.3913
 8654TIP3   OH247452   2.677   4.747   0.908  0.2030  0.9797 -0.1568
 8654TIP3    H147453   2.596   4.725   0.955  0.2254  0.5720 -0.3007
 8654TIP3    H247454   2.689   4.674   0.847  1.1404  0.5974  0.4653
 8655TIP3   OH247455   4.122   1.072   2.374 -0.2966 -0.2001 -0.5385
 8655TIP3    H147456   4.043   1.092   2.323 -0.8928  0.1634  0.5173
 8655TIP3    H247457   4.156   1.158   2.400  0.9394 -0.3173 -1.7050
 8656TIP3   OH247458   0.011   2.481  16.926  0.0616 -0.7961  0.8312
 8656TIP3    H147459  -0.079   2.465  16.952  0.0604  1.9811  2.8008
 8656TIP3    H247460   0.056   2.503  17.008  2.2080 -0.7893 -0.3096
 8657TIP3   OH247461   2.220   3.340   1.952  0.2462  0.6887 -0.3321
 8657TIP3    H147462   2.313   3.356   1.935 -0.1060  0.4883 -2.6732
 8657TIP3    H247463   2.219   3.266   2.013  1.6272 -0.3517 -1.5272
 8658TIP3   OH247464   0.182   5.987  14.114 -0.2735 -0.2972 -0.1449
 8658TIP3    H147465   0.201   5.961  14.024  0.4918 -1.8606  0.4485
 8658TIP3    H247466   0.163   6.081  14.109  0.0033 -0.3320 -1.8948
 8659TIP3   OH247467   1.774   2.075   1.595 -0.2393 -0.1002  0.4333
 8659TIP3    H147468   1.818   2.096   1.678  0.2104 -1.0348  0.4395
 8659TIP3    H247469   1.833   2.013   1.552 -0.3498  0.5804 -0.7079
 8660TIP3   OH247470   4.306   3.938   3.538 -0.1628 -0.4715 -0.1813
 8660TIP3    H147471   4.343   3.925   3.451  2.1204  0.1267  0.6850
 8660TIP3    H247472   4.288   3.849   3.569  2.0707 -0.8651  0.0280
 8661TIP3   OH247473   1.108   6.366   0.931 -0.1151  0.0671  0.1931
 8661TIP3    H147474   1.183   6.394   0.877 -0.3656 -1.9056 -1.2520
 8661TIP3    H247475   1.140   6.370   1.021  0.5574  2.7214 -0.1336
 8662TIP3   OH247476   6.443   2.775   5.258  0.0756  0.5034  0.7058
 8662TIP3    H147477   6.378   2.715   5.221  1.0855 -1.5996  2.2808
 8662TIP3    H247478   6.430   2.770   5.352  1.0687  1.7600  0.9215
 8663TIP3   OH247479   5.347   5.771  12.272  0.0955 -0.6095 -0.6408
 8663TIP3    H147480   5.427   5.755  12.222  0.1216  1.3496 -1.2735
 8663TIP3    H247481   5.372   5.836  12.337 -1.2657  0.9945 -1.6745
 8664TIP3   OH247482   2.294   6.369   4.076 -0.0277  0.6770  0.5231
 8664TIP3    H147483   2.363   6.433   4.095  1.9941 -1.2598 -0.0213
 8664TIP3    H247484   2.340   6.296   4.035 -2.5253 -0.4207 -0.4254
 8665TIP3   OH247485   1.670   2.619   1.500  0.6949 -0.4262  0.3940
 8665TIP3    H147486   1.699   2.547   1.444 -1.6781 -0.4437 -0.8565
 8665TIP3    H247487   1.654   2.691   1.440  1.5012  0.6765  1.4650
 8666TIP3   OH247488   0.074   5.472   0.111  0.4601 -0.3817  0.0822
 8666TIP3    H147489   0.067   5.537   0.042  1.1230 -0.2357  0.1581
 8666TIP3    H247490   0.004   5.409   0.091  0.1973  0.0353 -0.3173
 8667TIP3   OH247491   4.111   1.172  14.866 -0.6748 -0.2334 -0.1421
 8667TIP3    H147492   4.180   1.108  14.883 -0.3041 -0.0314 -0.8750
 8667TIP3    H247493   4.157   1.256  14.856 -1.3236  0.5187  2.8070
 8668TIP3   OH247494   2.437   4.213  11.955 -0.3636  0.6170  0.0876
 8668TIP3    H147495   2.402   4.200  12.043 -2.3919  1.0505 -0.6179
 8668TIP3    H247496   2.431   4.307  11.940  0.7763  0.6569 -0.2070
 8669TIP3   OH247497   0.924   2.821   1.971  0.1412  0.2852  0.0908
 8669TIP3    H147498   0.871   2.901   1.971  0.9046  0.8059  1.1017
 8669TIP3    H247499   1.002   2.845   2.021  0.2512 -1.1872  0.6237
 8670TIP3   OH247500   4.994   0.609  17.125  0.6660 -0.3335 -0.3157
 8670TIP3    H147501   4.948   0.597  17.209  0.0106 -2.0889 -0.8905
 8670TIP3    H247502   4.995   0.521  17.087 -1.5796  0.9036 -3.4468
 8671TIP3   OH247503   6.696   6.280  16.799  0.2341 -0.4393 -0.1216
 8671TIP3    H147504   6.686   6.314  16.710 -0.3538  0.2841  0.2172
 8671TIP3    H247505   6.779   6.232  16.797  0.9816  0.8624 -0.6532
 8672TIP3   OH247506   2.034   0.383  11.890 -0.1966  0.0705  0.0226
 8672TIP3    H147507   1.977   0.308  11.906  1.3192 -0.8907  0.9348
 8672TIP3    H247508   2.070   0.405  11.975  0.2034  1.1766 -0.4225
 8673TIP3   OH247509   4.224   5.890   4.608  0.2503 -0.0362  0.2028
 8673TIP3    H147510   4.225   5.807   4.560 -1.4534 -0.8033  1.4323
 8673TIP3    H247511   4.196   5.955   4.542  1.3247 -0.4737 -0.6938
 8674TIP3   OH247512   5.978   1.027   1.623  0.2553 -0.1503 -0.0274
 8674TIP3    H147513   6.004   1.117   1.602  0.5108 -0.3800 -0.7112
 8674TIP3    H247514   5.884   1.033   1.641  0.5855  0.5165  1.4884
 8675TIP3   OH247515   5.621   4.550  13.637  0.5133 -0.4706  0.5548
 8675TIP3    H147516   5.681   4.543  13.711  1.5669 -0.9008 -0.3181
 8675TIP3    H247517   5.656   4.489  13.572 -1.1052 -1.0107  0.1818
 8676TIP3   OH247518   3.086   2.802  12.851 -0.1787 -0.8317  0.0768
 8676TIP3    H147519   3.119   2.789  12.940 -0.0339  0.9074  0.2981
 8676TIP3    H247520   2.995   2.773  12.855  0.6734 -3.6781 -0.0158
 8677TIP3   OH247521   0.864   3.093   4.471  0.5322  0.4102  0.2554
 8677TIP3    H147522   0.839   3.001   4.466  0.6905  0.3517  0.5383
 8677TIP3    H247523   0.826   3.133   4.392  0.2801  0.1491  0.2448
 8678TIP3   OH247524   1.014   6.226  11.212  0.3929  0.8773 -0.2208
 8678TIP3    H147525   1.105   6.202  11.233  0.8365  1.3626 -1.5394
 8678TIP3    H247526   0.976   6.145  11.177  0.5604  0.8905 -0.4363
 8679TIP3   OH247527   6.377   0.049   4.222  0.3835 -0.0231  0.3475
 8679TIP3    H147528   6.437   0.098   4.166 -0.0618 -0.0148 -0.1318
 8679TIP3    H247529   6.398   0.076   4.311  2.0462 -1.0636  0.2890
 8680TIP3   OH247530   1.927   6.482  13.519  0.1962  0.4880  0.0271
 8680TIP3    H147531   2.016   6.511  13.539  0.5703 -0.8215  0.3542
 8680TIP3    H247532   1.871   6.557  13.540  1.1782  1.1784  0.2051
 8681TIP3   OH247533   5.979   1.844  15.271  0.5041  0.5908  0.0864
 8681TIP3    H147534   5.888   1.825  15.296  0.0888  2.1692 -0.1471
 8681TIP3    H247535   5.983   1.823  15.178 -0.1132  2.1415 -0.3117
 8682TIP3   OH247536   4.657   5.912   4.361 -0.3182 -0.4196  0.4870
 8682TIP3    H147537   4.624   5.828   4.329  0.3810 -0.9275  1.0689
 8682TIP3    H247538   4.582   5.952   4.406 -0.5460 -0.9057  0.5438
 8683TIP3   OH247539   0.564   5.711   5.833  0.0415 -0.1636 -0.2637
 8683TIP3    H147540   0.539   5.623   5.806 -1.4590 -0.1159  0.8929
 8683TIP3    H247541   0.573   5.705   5.928 -0.2412  0.9778 -0.1651
 8684TIP3   OH247542   0.264   2.233   4.346  0.0459  0.3946  0.6652
 8684TIP3    H147543   0.294   2.309   4.297 -1.4791 -1.2333 -2.9686
 8684TIP3    H247544   0.171   2.250   4.363 -0.4697 -0.9234 -0.7540
 8685TIP3   OH247545   0.602   1.103  15.059 -0.1372 -0.2687  0.4725
 8685TIP3    H147546   0.657   1.170  15.019  1.1327 -1.7988 -0.3975
 8685TIP3    H247547   0.638   1.092  15.147  1.1673 -1.4766 -0.1942
 8686TIP3   OH247548   1.409   0.837   2.039  0.8163 -0.0247 -0.2545
 8686TIP3    H147549   1.423   0.744   2.060  2.1273  0.2574  0.1684
 8686TIP3    H247550   1.398   0.880   2.124  0.8952  0.3159 -0.4156
 8687TIP3   OH247551   3.692   2.544  12.617 -1.0486 -0.1498 -0.1164
 8687TIP3    H147552   3.619   2.602  12.597  0.5482  1.4205 -1.6855
 8687TIP3    H247553   3.705   2.552  12.712 -1.5961  1.1583 -0.1511
 8688TIP3   OH247554   0.156   3.119   6.548 -0.1584 -0.6104  0.1433
 8688TIP3    H147555   0.145   3.072   6.466 -0.4733 -1.7709  0.8432
 8688TIP3    H247556   0.153   3.212   6.523  3.9005 -0.8738 -1.7628
 8689TIP3   OH247557   1.923   5.388   0.087  0.9088  0.1100 -0.0803
 8689TIP3    H147558   1.885   5.428   0.166  1.2829  0.6739 -0.1805
 8689TIP3    H247559   1.866   5.314   0.068  1.7170 -0.9628  1.6127
 8690TIP3   OH247560   2.588   5.584   0.203 -0.1344 -0.6840 -0.2090
 8690TIP3    H147561   2.597   5.578   0.108  0.5333 -0.5026 -0.1645
 8690TIP3    H247562   2.510   5.637   0.217  0.3769  0.2066 -0.6713
 8691TIP3   OH247563   6.334   6.286  17.095  0.4145 -0.5352  0.2917
 8691TIP3    H147564   6.289   6.232  17.030 -1.0408 -0.1088  0.9253
 8691TIP3    H247565   6.410   6.234  17.122  1.7280 -0.2221 -2.5923
 8692TIP3   OH247566   6.770   6.713   1.498 -0.5856  0.3219 -0.2667
 8692TIP3    H147567   6.804   6.803   1.503 -0.7602  0.3215  1.4481
 8692TIP3    H247568   6.765   6.694   1.405  0.2246  1.8097 -0.6322
 8693TIP3   OH247569   2.806   3.422   5.679  0.0448  0.1425  0.5868
 8693TIP3    H147570   2.713   3.405   5.690  0.0965  0.6735  1.9626
 8693TIP3    H247571   2.837   3.442   5.768  1.5619 -0.5392  0.2338
 8694TIP3   OH247572   2.650   4.023   1.536  0.1870  0.0735  0.2007
 8694TIP3    H147573   2.659   4.093   1.601  2.9207 -1.1920  1.3011
 8694TIP3    H247574   2.708   4.049   1.465  1.0100 -0.8914  0.4983
 8695TIP3   OH247575   4.837   0.578  12.522 -0.0132 -0.1043  0.1838
 8695TIP3    H147576   4.932   0.572  12.525  0.0720  0.4520 -1.1960
 8695TIP3    H247577   4.809   0.500  12.475 -0.2883 -0.5525  1.0719
 8696TIP3   OH247578   3.572   2.463  14.632  0.2228 -0.3900 -0.5237
 8696TIP3    H147579   3.562   2.369  14.650 -2.5235  0.2721  1.8154
 8696TIP3    H247580   3.628   2.495  14.703  1.5604 -0.3136 -1.5952
 8697TIP3   OH247581   6.519   3.913  17.189 -0.7879 -0.4793  0.1355
 8697TIP3    H147582   6.537   3.969  17.114 -2.4394 -0.0911  0.0159
 8697TIP3    H247583   6.427   3.927  17.208 -0.5227 -1.0029  1.8958
 8698TIP3   OH247584   3.280   2.106   1.874 -0.0677 -0.1897  0.2081
 8698TIP3    H147585   3.312   2.156   1.950  0.1156 -1.1760  0.7875
 8698TIP3    H247586   3.296   2.014   1.897 -5.1096 -0.9107  1.4063
 8699TIP3   OH247587   2.800   0.220   1.754 -0.5367  0.2907 -0.6624
 8699TIP3    H147588   2.762   0.208   1.666 -0.9842 -1.6079 -0.2270
 8699TIP3    H247589   2.761   0.150   1.806  1.3863  0.0880  0.5269
 8700TIP3   OH247590   0.524   6.498  13.832  0.0748  0.0707  0.4742
 8700TIP3    H147591   0.437   6.498  13.873 -0.2863  1.7691 -0.2769
 8700TIP3    H247592   0.510   6.532  13.744  1.2122 -1.4560 -0.3337
 8701TIP3   OH247593   1.570   1.115  13.365 -0.6563 -0.0057 -0.2988
 8701TIP3    H147594   1.508   1.073  13.306  1.9801 -2.4001 -1.4660
 8701TIP3    H247595   1.628   1.165  13.307 -0.3206  0.6657  0.6080
 8702TIP3   OH247596   5.888   2.371   2.217  0.1403 -0.1769  0.2068
 8702TIP3    H147597   5.831   2.341   2.288  0.3885 -0.9928  0.0678
 8702TIP3    H247598   5.906   2.463   2.238 -0.0990 -0.3055  0.9942
 8703TIP3   OH247599   5.718   0.015   4.358 -0.0671 -0.3828  0.1431
 8703TIP3    H147600   5.677   0.100   4.373  0.7105 -0.0088  0.2096
 8703TIP3    H247601   5.732   0.012   4.264 -1.1151 -0.9138  0.0124
 8704TIP3   OH247602   0.290   6.693  11.828 -0.4028 -0.1801 -0.0376
 8704TIP3    H147603   0.321   6.620  11.881 -0.0996  0.1623  0.2543
 8704TIP3    H247604   0.248   6.652  11.752 -0.3306 -0.6565  0.1816
 8705TIP3   OH247605   4.060   1.411   4.687 -0.0603 -0.5931 -0.7116
 8705TIP3    H147606   4.044   1.410   4.781  0.4963 -2.2576 -0.6167
 8705TIP3    H247607   4.076   1.503   4.666  0.7556 -0.3373  0.9935
 8706TIP3   OH247608   5.757   5.300   5.616  0.4413 -0.5082  0.9092
 8706TIP3    H147609   5.837   5.273   5.571  1.0556 -0.2102  1.8176
 8706TIP3    H247610   5.775   5.286   5.709 -0.7066 -0.8210  1.1031
 8707TIP3   OH247611   4.679   1.198  10.575  0.1543  0.1039 -0.4193
 8707TIP3    H147612   4.619   1.165  10.508 -1.1482 -0.6776  1.1248
 8707TIP3    H247613   4.628   1.264  10.622  1.3651  1.3077 -0.7385
 8708TIP3   OH247614   1.431   2.591   5.218  0.5194 -0.3235  0.0001
 8708TIP3    H147615   1.486   2.664   5.245  2.0964 -1.1781 -0.7737
 8708TIP3    H247616   1.373   2.628   5.151 -0.7267  0.8735  1.7121
 8709TIP3   OH247617   6.193   1.557  11.550 -0.5335  0.2931  0.2128
 8709TIP3    H147618   6.228   1.587  11.634 -0.9455  0.7965  0.2077
 8709TIP3    H247619   6.163   1.636  11.506  0.5428  0.1390 -0.8248
 8710TIP3   OH247620   3.808   0.142  12.249 -0.2556  0.3805 -0.5385
 8710TIP3    H147621   3.791   0.193  12.328  0.2334 -0.4286  0.1052
 8710TIP3    H247622   3.903   0.148  12.236 -0.4225  1.1047 -1.4876
 8711TIP3   OH247623   6.153   3.827   4.632  0.0915  0.1226 -0.3918
 8711TIP3    H147624   6.166   3.862   4.720 -1.6293 -1.1558  0.3865
 8711TIP3    H247625   6.119   3.901   4.582 -1.6153  0.1246  0.7411
 8712TIP3   OH247626   1.124   3.413  16.789 -0.1407 -0.3010  0.5199
 8712TIP3    H147627   1.092   3.475  16.723 -0.5016 -0.1490  0.8345
 8712TIP3    H247628   1.193   3.364  16.744 -1.0435 -0.8617 -0.2765
 8713TIP3   OH247629   5.117   4.661   4.431  0.3080 -0.1278 -0.6667
 8713TIP3    H147630   5.096   4.643   4.340 -1.5550 -1.3597 -0.0245
 8713TIP3    H247631   5.072   4.744   4.450 -0.3123 -0.4787 -0.5604
 8714TIP3   OH247632   2.382   6.607  12.741  0.3806 -0.4632  0.0734
 8714TIP3    H147633   2.464   6.654  12.725  0.5120 -0.5653  0.4316
 8714TIP3    H247634   2.363   6.623  12.833  0.9378 -1.8971  0.4596
 8715TIP3   OH247635   4.377   0.281  12.929  0.1613  0.1051  0.0667
 8715TIP3    H147636   4.443   0.342  12.962  0.3375 -1.2738  2.3373
 8715TIP3    H247637   4.423   0.231  12.862  0.4020  1.5218 -0.8454
 8716TIP3   OH247638   6.294   0.667   6.026 -0.9132  0.0699  0.3915
 8716TIP3    H147639   6.355   0.651   5.955 -0.7627  0.8440  0.3465
 8716TIP3    H247640   6.305   0.592   6.084  0.1439  0.2521  0.4329
 8717TIP3   OH247641   0.126   4.377   5.713 -0.0726  0.1343 -0.1471
 8717TIP3    H147642   0.096   4.424   5.791 -1.0033  0.9581 -0.9874
 8717TIP3    H247643   0.139   4.445   5.648 -0.3823 -0.6697 -1.0564
 8718TIP3   OH247644   5.186   5.900  16.024 -0.2994  0.0666 -0.3838
 8718TIP3    H147645   5.212   5.941  16.106 -0.9793  0.2040 -0.2356
 8718TIP3    H247646   5.194   5.806  16.040  2.1211  0.1525 -1.0179
 8719TIP3   OH247647   2.890   1.382  13.730  0.0518 -0.4981 -0.4062
 8719TIP3    H147648   2.892   1.286  13.722  0.7680 -0.3349 -2.4478
 8719TIP3    H247649   2.820   1.409  13.670  0.8330  0.3509 -0.9298
 8720TIP3   OH247650   1.062   0.555  16.659 -0.0448 -0.5972 -0.2050
 8720TIP3    H147651   1.128   0.558  16.589 -2.2385 -2.0761 -2.4415
 8720TIP3    H247652   0.978   0.551  16.612 -1.6436 -0.6777  2.5522
 8721TIP3   OH247653   0.998   0.732  12.914 -0.1035  0.7935  0.0444
 8721TIP3    H147654   0.956   0.655  12.875 -0.2487  1.1182 -0.4522
 8721TIP3    H247655   1.091   0.708  12.921 -0.6805 -0.6929  3.0544
 8722TIP3   OH247656   2.984   6.093  14.374  0.5289  0.4526  0.2014
 8722TIP3    H147657   2.936   6.052  14.445  0.3741  0.7235  0.2547
 8722TIP3    H247658   2.974   6.033  14.300  0.5833  0.2344  0.3710
 8723TIP3   OH247659   3.327   3.983   0.599 -0.0648  0.0355  0.2829
 8723TIP3    H147660   3.268   3.908   0.602  1.9770 -1.6784 -0.6724
 8723TIP3    H247661   3.303   4.029   0.519 -0.4434 -0.3660  0.1660
 8724TIP3   OH247662   5.482   0.712   0.903 -0.0013  0.6698 -0.3985
 8724TIP3    H147663   5.446   0.723   0.816  1.4979 -1.0179 -1.2569
 8724TIP3    H247664   5.577   0.704   0.889  0.3472  1.1711  1.4537
 8725TIP3   OH247665   1.665   3.692   6.561 -0.1505  0.2083  0.1224
 8725TIP3    H147666   1.740   3.752   6.556  0.2015 -0.3543 -1.7210
 8725TIP3    H247667   1.700   3.613   6.603  0.4469 -0.2818 -1.2870
 8726TIP3   OH247668   5.018   2.534  13.083  0.1721 -0.4476  0.0631
 8726TIP3    H147669   5.035   2.628  13.083  1.0386 -0.5726  1.9266
 8726TIP3    H247670   5.100   2.495  13.113 -0.1129 -1.8174 -0.9102
 8727TIP3   OH247671   1.116   4.039  10.682 -0.3903 -0.6389 -0.1817
 8727TIP3    H147672   1.128   3.957  10.732  1.7679 -0.2220  0.0446
 8727TIP3    H247673   1.051   4.017  10.615  2.9449 -3.7340 -2.6165
 8728TIP3   OH247674   0.523   0.744  12.162 -0.3684 -0.0624  0.0209
 8728TIP3    H147675   0.602   0.796  12.155 -0.0646 -0.4738  0.3974
 8728TIP3    H247676   0.476   0.782  12.237 -0.3449 -0.0642  0.0365
 8729TIP3   OH247677   2.489   0.847  14.781  0.2880  0.3851 -0.1758
 8729TIP3    H147678   2.532   0.766  14.809 -1.1862 -1.0495 -1.9218
 8729TIP3    H247679   2.547   0.883  14.714  0.6779  0.4960  0.2181
 8730TIP3   OH247680   0.056   0.759   5.028 -0.5507 -0.4631 -0.7131
 8730TIP3    H147681  -0.002   0.761   4.952  0.0920 -0.6264 -1.2191
 8730TIP3    H247682   0.143   0.741   4.991 -0.3807 -1.4456  0.1527
 8731TIP3   OH247683   4.849   2.577   0.026 -0.5552 -0.2725 -0.2309
 8731TIP3    H147684   4.760   2.544   0.012 -0.7997 -0.6637  2.0062
 8731TIP3    H247685   4.840   2.640   0.097  0.6659  1.2102 -1.3536
 8732TIP3   OH247686   0.943   2.071  11.841  0.4094 -0.3082  0.4175
 8732TIP3    H147687   1.008   2.081  11.772  0.8003  0.3189  0.8799
 8732TIP3    H247688   0.985   2.014  11.906 -0.3001 -1.6675 -0.2831
 8733TIP3   OH247689   1.571   2.210   5.809  0.2717  0.1625  0.5663
 8733TIP3    H147690   1.482   2.244   5.805  0.8718  1.5437 -1.7640
 8733TIP3    H247691   1.562   2.116   5.793 -0.6346  0.5433 -1.2802
 8734TIP3   OH247692   4.740   4.095  15.217  0.2569  0.1714 -0.0770
 8734TIP3    H147693   4.664   4.077  15.272 -1.3799  0.3710 -2.2351
 8734TIP3    H247694   4.704   4.108  15.129  2.7019  1.0341 -0.9909
 8735TIP3   OH247695   0.171   2.246   5.670 -0.1934  0.3008 -0.3894
 8735TIP3    H147696   0.134   2.161   5.647 -0.1081  1.4122 -5.1483
 8735TIP3    H247697   0.262   2.241   5.640  1.2379  0.5500  3.5468
 8736TIP3   OH247698   1.045   2.456   5.318  0.1480 -0.4488 -0.1967
 8736TIP3    H147699   1.107   2.390   5.288  0.4253 -0.2718 -0.0160
 8736TIP3    H247700   0.959   2.415   5.307  0.3105 -0.7841 -0.2212
 8737TIP3   OH247701   5.683   4.959  16.780  0.1429  0.1798  0.3228
 8737TIP3    H147702   5.741   4.896  16.823  0.2391  0.4569  0.5947
 8737TIP3    H247703   5.685   5.036  16.836  0.2393  0.5274 -0.1571
 8738TIP3   OH247704   0.326   2.978  13.128  0.5684 -0.3446  0.3020
 8738TIP3    H147705   0.318   2.884  13.113  1.0167 -0.2630 -0.4646
 8738TIP3    H247706   0.410   2.988  13.174  0.5164 -0.3176  0.3909
 8739TIP3   OH247707   3.258   3.013   1.821 -0.4839 -0.3985 -0.4788
 8739TIP3    H147708   3.250   2.941   1.758 -0.7331 -0.4474 -0.3879
 8739TIP3    H247709   3.278   2.970   1.904  0.9768 -0.2747 -0.7444
 8740TIP3   OH247710   2.702   5.841  14.160 -0.1810  0.4806 -0.0319
 8740TIP3    H147711   2.725   5.830  14.067 -1.6828  2.3282 -0.6585
 8740TIP3    H247712   2.767   5.789  14.207  1.6929  0.9319 -2.0403
 8741TIP3   OH247713   4.374   6.207   4.787 -0.1130  0.4393 -0.6194
 8741TIP3    H147714   4.454   6.179   4.744  0.1396 -0.2090  0.2563
 8741TIP3    H247715   4.384   6.179   4.878 -0.6120  1.8304 -0.1137
 8742TIP3   OH247716   0.344   1.593  12.104 -0.1304 -0.5771  0.3215
 8742TIP3    H147717   0.285   1.554  12.168  0.7397  0.4503  1.7911
 8742TIP3    H247718   0.287   1.625  12.035 -1.2081 -0.5279  1.2191
 8743TIP3   OH247719   3.309   6.606  14.620  0.2700  0.0618  0.1822
 8743TIP3    H147720   3.327   6.529  14.674 -1.3788 -0.3396  0.1857
 8743TIP3    H247721   3.347   6.679  14.670  3.1450 -0.8748 -0.5257
 8744TIP3   OH247722   2.853   5.405   1.091  0.1317  0.2193 -0.1332
 8744TIP3    H147723   2.811   5.412   1.005  1.8471 -0.9166 -1.1118
 8744TIP3    H247724   2.876   5.495   1.114  0.7242  0.4286 -1.4555
 8745TIP3   OH247725   1.798   4.632  13.593  0.6006 -0.4226  0.0220
 8745TIP3    H147726   1.813   4.538  13.602 -0.6056 -0.6497 -0.2387
 8745TIP3    H247727   1.710   4.646  13.628  0.1725  0.3615 -1.3325
 8746TIP3   OH247728   5.321   0.406   1.783  0.3335 -0.2558  0.2987
 8746TIP3    H147729   5.338   0.381   1.692  1.3544 -4.1180  1.4350
 8746TIP3    H247730   5.282   0.493   1.777 -1.8393 -1.3776 -3.9940
 8747TIP3   OH247731   5.561   2.431  11.494 -0.0441 -0.3167  0.1644
 8747TIP3    H147732   5.502   2.417  11.568 -0.4229 -2.3804 -0.4981
 8747TIP3    H247733   5.643   2.391  11.522  0.8267  1.8009  0.7460
 8748TIP3   OH247734   1.090   1.192   3.849  0.3473 -0.1197 -0.0022
 8748TIP3    H147735   1.070   1.285   3.842 -0.0893 -0.0694  1.7236
 8748TIP3    H247736   1.043   1.152   3.776 -0.8175  0.8037  0.2273
 8749TIP3   OH247737   6.072   4.426  13.192  0.2099 -0.3034  0.7507
 8749TIP3    H147738   6.078   4.347  13.138  0.9756 -0.1370  0.5917
 8749TIP3    H247739   6.027   4.397  13.272  0.0040 -0.7760  0.4659
 8750TIP3   OH247740   2.790   2.719  15.976 -0.0160  0.2144  0.1131
 8750TIP3    H147741   2.834   2.691  16.057 -0.5757  1.1181  0.7291
 8750TIP3    H247742   2.737   2.794  16.002  0.0286  0.6927 -1.1589
 8751TIP3   OH247743   5.253   1.562   0.030  0.1062 -0.1134 -0.7853
 8751TIP3    H147744   5.249   1.589   0.122 -0.0775  1.4843 -1.2490
 8751TIP3    H247745   5.165   1.530   0.010  0.4873 -1.6483 -0.0627
 8752TIP3   OH247746   5.845   5.765  17.290  0.4224  0.4492  0.5133
 8752TIP3    H147747   5.879   5.675  17.297  0.0830  0.2067 -0.8837
 8752TIP3    H247748   5.907   5.809  17.232  0.1871  0.9183  0.6206
 8753TIP3   OH247749   5.141   1.121  14.222  0.2246  0.2184 -0.0871
 8753TIP3    H147750   5.088   1.199  14.239  2.5408  2.0750 -0.9569
 8753TIP3    H247751   5.151   1.080  14.307  0.1307  1.6659  0.6416
 8754TIP3   OH247752   5.919   0.954   6.149  0.1385  0.3252 -0.6051
 8754TIP3    H147753   5.862   0.945   6.225 -0.2818  0.2790 -0.9218
 8754TIP3    H247754   5.972   1.031   6.167  0.2803  0.1082 -0.1087
 8755TIP3   OH247755   3.026   2.430  12.203 -0.5672 -0.2153  0.4875
 8755TIP3    H147756   2.965   2.384  12.145 -1.9793  0.7464  1.1880
 8755TIP3    H247757   3.027   2.376  12.282  1.7977 -1.8388 -0.5947
 8756TIP3   OH247758   0.312   2.337  16.985 -0.0478 -0.2529  0.0923
 8756TIP3    H147759   0.312   2.242  16.978 -0.0117 -0.3585  1.3634
 8756TIP3    H247760   0.235   2.357  17.039 -0.3249  0.4664 -0.5594
 8757TIP3   OH247761   0.553   1.677   3.671  0.1760  0.2694  0.0606
 8757TIP3    H147762   0.590   1.595   3.702  0.6722 -0.0112 -1.2449
 8757TIP3    H247763   0.518   1.719   3.750  1.2140 -0.5200  0.9584
 8758TIP3   OH247764   5.082   0.857   6.649 -1.1019 -0.7455 -0.2347
 8758TIP3    H147765   5.127   0.773   6.641 -1.2719 -0.7328 -1.3236
 8758TIP3    H247766   5.149   0.922   6.631 -0.8768 -0.6240  0.9922
 8759TIP3   OH247767   4.240   0.311  13.348 -0.6199  0.3145 -0.6166
 8759TIP3    H147768   4.331   0.326  13.321 -0.4635  0.4807 -0.0126
 8759TIP3    H247769   4.247   0.245  13.418 -0.9653  0.3308 -0.5696
 8760TIP3   OH247770   3.448   2.376  14.917 -0.0290  0.2606  0.0293
 8760TIP3    H147771   3.381   2.376  14.849  0.1899 -2.3149 -0.2499
 8760TIP3    H247772   3.520   2.324  14.880  1.2314  1.1670  1.1536
 8761TIP3   OH247773   2.431   6.160   0.723  0.0703 -0.1877  0.4551
 8761TIP3    H147774   2.505   6.220   0.736  1.3202 -1.7625  0.6835
 8761TIP3    H247775   2.427   6.110   0.805  0.2327 -1.7057 -0.4495
 8762TIP3   OH247776   1.618   4.056   4.881  0.3917 -0.1141  0.7264
 8762TIP3    H147777   1.579   4.066   4.968 -0.0538  1.2642  0.3757
 8762TIP3    H247778   1.713   4.052   4.898  0.3396  0.6881  1.2328
 8763TIP3   OH247779   2.079   4.133   0.373  0.3526 -0.1054 -0.3216
 8763TIP3    H147780   2.122   4.076   0.309 -2.5495  0.1684 -2.6225
 8763TIP3    H247781   1.992   4.094   0.385 -1.3124  3.2117 -1.1469
 8764TIP3   OH247782   3.306   3.198   3.741  0.2289 -0.9744 -0.2333
 8764TIP3    H147783   3.362   3.157   3.675  0.5649 -0.1141 -0.4954
 8764TIP3    H247784   3.239   3.132   3.760  0.1998 -1.2856 -1.3413
 8765TIP3   OH247785   5.448   1.780  17.279 -0.4077  1.0691 -0.8348
 8765TIP3    H147786   5.499   1.787  17.359 -0.2372  2.4630 -1.0665
 8765TIP3    H247787   5.419   1.689  17.278  2.6179  0.0417 -1.0481
 8766TIP3   OH247788   3.601   0.781   0.711  0.8373 -0.1568 -0.0627
 8766TIP3    H147789   3.695   0.763   0.700  0.5311 -1.3359 -0.9058
 8766TIP3    H247790   3.588   0.781   0.805  1.6421 -0.2539  0.0576
 8767TIP3   OH247791   1.090   1.750  17.127 -0.4489 -1.0878 -0.5617
 8767TIP3    H147792   1.005   1.712  17.145 -0.1208 -1.3443  0.4937
 8767TIP3    H247793   1.074   1.814  17.057 -1.6798 -0.4277  0.3069
 8768TIP3   OH247794   6.685   4.649   0.763 -0.6641  0.7088 -0.0165
 8768TIP3    H147795   6.622   4.720   0.755 -1.3306  0.3361  1.5898
 8768TIP3    H247796   6.659   4.586   0.696 -1.9648  0.5994  0.5638
 8769TIP3   OH247797   3.115   3.316   3.525  0.2475 -0.2800  0.1269
 8769TIP3    H147798   3.139   3.350   3.611  0.4748 -0.4522  0.1326
 8769TIP3    H247799   3.198   3.312   3.476  0.1701 -0.4905  0.0110
 8770TIP3   OH247800   1.397   2.272   2.098  0.4614 -0.4422 -0.4767
 8770TIP3    H147801   1.367   2.326   2.025  0.4585 -0.7996 -0.7421
 8770TIP3    H247802   1.393   2.183   2.065  1.4710 -0.5302 -0.3910
 8771TIP3   OH247803   4.885   5.129   4.942  0.5425  0.2664 -0.0496
 8771TIP3    H147804   4.873   5.068   5.015  0.9282 -0.3892 -0.5336
 8771TIP3    H247805   4.830   5.204   4.965 -0.4831 -0.5489  0.2107
 8772TIP3   OH247806   1.075   0.394  10.873  0.4826  0.1233 -0.1723
 8772TIP3    H147807   1.071   0.341  10.952 -1.2110 -0.0995 -0.4006
 8772TIP3    H247808   1.154   0.363  10.827  0.7922 -0.5714  0.8183
 8773TIP3   OH247809   1.475   2.111   1.273  0.0995  0.2464 -0.2674
 8773TIP3    H147810   1.528   2.036   1.299 -1.6007 -0.1627  2.1688
 8773TIP3    H247811   1.536   2.185   1.278  0.6895 -0.3317  1.6267
 8774TIP3   OH247812   4.579   3.648  12.588 -0.7232 -0.5678  0.5118
 8774TIP3    H147813   4.643   3.604  12.644 -1.0931 -0.9774  0.6122
 8774TIP3    H247814   4.610   3.634  12.499  1.0856  1.9669  0.7007
 8775TIP3   OH247815   2.248   4.511   2.239 -0.1703  0.2780 -0.2881
 8775TIP3    H147816   2.324   4.483   2.188  0.4677 -1.5422  1.5809
 8775TIP3    H247817   2.271   4.488   2.330 -2.5242  0.6638  0.4289
 8776TIP3   OH247818   2.770   4.133   1.051 -0.1814 -0.3675  0.5121
 8776TIP3    H147819   2.755   4.177   1.135 -2.4316  0.5092 -0.2805
 8776TIP3    H247820   2.704   4.063   1.049 -0.4456 -0.0995 -0.6842
 8777TIP3   OH247821   3.702   4.886  11.847 -0.1342  0.3863 -0.1088
 8777TIP3    H147822   3.759   4.963  11.855 -0.0615  0.4219 -0.9009
 8777TIP3    H247823   3.681   4.882  11.753 -1.5821  0.4731  0.2084
 8778TIP3   OH247824   1.613   4.517  12.503 -0.4128  0.9190 -0.2418
 8778TIP3    H147825   1.631   4.599  12.549 -0.1528  0.7107  0.0238
 8778TIP3    H247826   1.526   4.491  12.533  0.8540 -0.6419  2.2289
 8779TIP3   OH247827   6.590   2.930  16.675 -0.6986  0.0439  0.2465
 8779TIP3    H147828   6.539   2.997  16.628 -0.8074 -0.2804 -0.1062
 8779TIP3    H247829   6.679   2.966  16.678 -1.1290  1.0222  1.6643
 8780TIP3   OH247830   2.178   4.630  15.329  0.4477  0.4394 -0.9007
 8780TIP3    H147831   2.101   4.588  15.367  1.0888 -0.4358 -0.5399
 8780TIP3    H247832   2.168   4.619  15.235  1.2557 -1.7091 -0.7568
 8781TIP3   OH247833   0.599   2.248   1.483 -0.3100 -0.2448 -0.2895
 8781TIP3    H147834   0.564   2.337   1.475 -0.1173 -0.2904 -1.7454
 8781TIP3    H247835   0.684   2.252   1.439  0.8904 -0.5099  1.9067
 8782TIP3   OH247836   0.297   6.017   0.987 -0.3213 -0.5146  0.9369
 8782TIP3    H147837   0.335   6.066   0.914 -0.4994  0.0005  1.1827
 8782TIP3    H247838   0.326   6.065   1.065 -0.5324 -0.7758  1.1757
 8783TIP3   OH247839   6.095   5.067  10.929 -0.2875 -0.3962  0.1069
 8783TIP3    H147840   6.037   5.118  10.986  0.8223  0.1683  0.7300
 8783TIP3    H247841   6.045   4.986  10.911 -0.4199 -0.8401  2.3159
 8784TIP3   OH247842   4.258   3.787  12.044  0.4360 -0.4328 -0.0019
 8784TIP3    H147843   4.245   3.881  12.027  0.7027 -0.5690 -0.9827
 8784TIP3    H247844   4.259   3.747  11.957  0.7704 -1.2920  0.3941
 8785TIP3   OH247845   2.771   2.140  16.816 -0.4597  0.2104  0.2886
 8785TIP3    H147846   2.727   2.127  16.732 -2.3757  1.4911  1.0652
 8785TIP3    H247847   2.788   2.051  16.848  0.9881 -0.2993 -1.7646
 8786TIP3   OH247848   1.959   1.845   0.896 -0.3154 -0.7568  0.0626
 8786TIP3    H147849   2.037   1.874   0.942 -1.0942  0.4296  0.6778
 8786TIP3    H247850   1.944   1.912   0.829  0.8113 -2.4784 -1.9519
 8787TIP3   OH247851   5.974   3.527   3.189  0.4118  0.0716 -0.0253
 8787TIP3    H147852   6.046   3.506   3.130 -0.2765 -3.9116  0.3547
 8787TIP3    H247853   5.895   3.513   3.137 -0.1772 -2.4918  1.4516
 8788TIP3   OH247854   3.321   6.361  12.798 -0.0526  0.3727  0.1119
 8788TIP3    H147855   3.295   6.363  12.890 -0.2785 -0.1699  0.0598
 8788TIP3    H247856   3.417   6.359  12.800 -0.0789 -1.9063  0.3764
 8789TIP3   OH247857   4.350   1.364   1.816  0.2118 -0.3121  0.0010
 8789TIP3    H147858   4.273   1.420   1.818 -0.8059 -1.7001  0.6257
 8789TIP3    H247859   4.347   1.315   1.898  2.8483  1.0070  0.9549
 8790TIP3   OH247860   5.996   4.167   4.209 -0.2605  0.4177 -0.3395
 8790TIP3    H147861   6.031   4.153   4.122 -0.0794 -0.0151 -0.2009
 8790TIP3    H247862   5.918   4.111   4.213 -0.2861  0.4597 -0.2334
 8791TIP3   OH247863   1.469   5.430  15.516 -0.8099  0.1431  0.2819
 8791TIP3    H147864   1.529   5.474  15.455 -1.1954  0.6344  0.2554
 8791TIP3    H247865   1.404   5.497  15.538 -1.2412 -0.3358  0.4586
 8792TIP3   OH247866   6.582   1.361  16.075  0.1109 -0.5627 -0.0259
 8792TIP3    H147867   6.656   1.301  16.086  1.4778  0.9234 -0.9924
 8792TIP3    H247868   6.607   1.439  16.125 -0.4125  0.2780 -1.0780
 8793TIP3   OH247869   6.707   5.346  11.643  0.3958 -0.1059 -0.0694
 8793TIP3    H147870   6.726   5.324  11.552  2.0411 -2.0071  0.7060
 8793TIP3    H247871   6.617   5.380  11.641  0.8637  1.0599 -2.5613
 8794TIP3   OH247872   2.676   5.371   3.224 -0.1712  0.0818  0.2226
 8794TIP3    H147873   2.771   5.362   3.212  0.1975  3.8784 -0.4050
 8794TIP3    H247874   2.665   5.375   3.319  0.7581  3.0409  0.2619
 8795TIP3   OH247875   3.212   6.390  11.455  0.7293  0.0031 -0.3093
 8795TIP3    H147876   3.176   6.479  11.449 -0.5032 -0.4531  0.1188
 8795TIP3    H247877   3.217   6.372  11.549 -4.0963 -2.3161 -0.3103
 8796TIP3   OH247878   2.034   3.849   5.472  0.5821  0.1349  0.4503
 8796TIP3    H147879   2.053   3.840   5.379 -1.8222  0.6370 -0.1445
 8796TIP3    H247880   1.984   3.770   5.494 -0.9863  1.1624  0.6776
 8797TIP3   OH247881   5.516   4.145  14.122 -0.0751  0.0723 -0.0453
 8797TIP3    H147882   5.568   4.112  14.194  0.6712 -3.5629 -2.0926
 8797TIP3    H247883   5.555   4.230  14.100  1.3112  0.0247  2.0994
 8798TIP3   OH247884   6.176   3.438  17.102  0.5607  0.4839  0.1418
 8798TIP3    H147885   6.271   3.424  17.108  0.4736  0.2748  1.0817
 8798TIP3    H247886   6.138   3.354  17.127  0.1238  0.5912 -0.1593
 8799TIP3   OH247887   0.724   0.273  16.304 -0.1086  0.9093  0.1796
 8799TIP3    H147888   0.645   0.274  16.358 -0.3997  2.0899 -0.2597
 8799TIP3    H247889   0.695   0.232  16.222  0.2730 -0.6518  0.8016
 8800TIP3   OH247890   5.377   5.738  16.491  0.1487 -0.3108  0.2720
 8800TIP3    H147891   5.402   5.720  16.582  0.6926  0.9602  0.3751
 8800TIP3    H247892   5.303   5.679  16.475 -0.5210  0.0870  1.8209
 8801TIP3   OH247893   3.230   3.085  17.189  0.0216  0.3010 -0.0590
 8801TIP3    H147894   3.289   3.159  17.180 -0.6091  0.8084 -0.0936
 8801TIP3    H247895   3.207   3.084  17.282  2.1129 -1.4821  0.4659
 8802TIP3   OH247896   0.506   2.949   1.119 -0.4008  0.2039  0.1113
 8802TIP3    H147897   0.530   3.040   1.132 -0.5738 -0.0434  2.3244
 8802TIP3    H247898   0.440   2.951   1.049  0.2942  1.6454 -0.5213
 8803TIP3   OH247899   0.348   4.380  12.563 -0.2968 -0.0307  0.2347
 8803TIP3    H147900   0.335   4.402  12.655  1.6878  0.2684  0.4627
 8803TIP3    H247901   0.266   4.338  12.536  0.1379 -2.7308  2.8974
 8804TIP3   OH247902   0.569   0.551  13.935  0.0481  0.2941  0.4043
 8804TIP3    H147903   0.637   0.486  13.922 -0.9372 -0.3536 -1.7168
 8804TIP3    H247904   0.606   0.632  13.898  0.1501  0.2632  0.4376
 8805TIP3   OH247905   3.589   6.259   3.552  0.4141 -0.2866 -0.5741
 8805TIP3    H147906   3.570   6.177   3.506  0.0411  0.2478 -1.3795
 8805TIP3    H247907   3.514   6.272   3.610 -1.5348  1.5614 -3.3850
 8806TIP3   OH247908   3.914   5.492  10.482 -0.1393  0.2851  0.1575
 8806TIP3    H147909   3.909   5.477  10.388 -1.6099  2.1901 -0.1182
 8806TIP3    H247910   3.849   5.433  10.520  0.2699 -0.2944 -0.0378
 8807TIP3   OH247911   4.631   4.331   5.768  0.0908 -0.2107 -0.5084
 8807TIP3    H147912   4.553   4.300   5.723 -0.3147 -0.0889  0.1103
 8807TIP3    H247913   4.603   4.410   5.815  0.8311  0.4052 -1.1024
 8808TIP3   OH247914   4.267   5.589   0.713 -0.4111  0.0138  0.1711
 8808TIP3    H147915   4.325   5.520   0.681 -1.4930 -0.4380 -0.8510
 8808TIP3    H247916   4.242   5.638   0.635  0.5847  1.7751  0.9189
 8809TIP3   OH247917   5.619   6.666   4.125 -0.0268 -0.1429  0.0199
 8809TIP3    H147918   5.642   6.593   4.182  1.2509  0.9212  0.9030
 8809TIP3    H247919   5.562   6.628   4.059  0.0042 -1.7805  0.9141
 8810TIP3   OH247920   0.304   4.368  15.017  0.0194  0.5356 -0.0325
 8810TIP3    H147921   0.229   4.329  14.971  0.2980 -0.2178  0.1368
 8810TIP3    H247922   0.302   4.460  14.993 -0.4496  0.3478 -0.7278
 8811TIP3   OH247923   4.461   3.342   1.923 -0.2215 -0.2525  0.0416
 8811TIP3    H147924   4.401   3.305   1.988  0.6496 -1.6256  0.0693
 8811TIP3    H247925   4.545   3.301   1.942  0.4030  0.5724 -0.9318
 8812TIP3   OH247926   6.682   2.182   4.354  0.4684  0.2637  0.3813
 8812TIP3    H147927   6.705   2.269   4.387  1.8008  0.4981 -1.0654
 8812TIP3    H247928   6.736   2.122   4.405 -0.5596  0.2683  1.4817
 8813TIP3   OH247929   1.851   1.184  13.995 -0.5457 -0.1038  0.1122
 8813TIP3    H147930   1.770   1.233  13.981 -0.8677 -1.0947 -1.5771
 8813TIP3    H247931   1.832   1.096  13.963  0.9136 -0.5959  0.5606
 8814TIP3   OH247932   2.723   3.553  16.060  0.7107 -0.0012 -0.0391
 8814TIP3    H147933   2.797   3.548  16.119 -0.4336  0.3378  1.4504
 8814TIP3    H247934   2.760   3.586  15.978  2.2208 -0.0288  0.6207
 8815TIP3   OH247935   4.198   3.083  16.574  0.2318  0.0675  0.2209
 8815TIP3    H147936   4.224   2.993  16.554  0.5008  0.4257 -1.1182
 8815TIP3    H247937   4.163   3.116  16.491 -1.9461  0.4779  1.2730
 8816TIP3   OH247938   0.590   1.856   5.365 -0.5145 -0.4862  0.3641
 8816TIP3    H147939   0.533   1.898   5.300 -0.7143  0.1637  0.9460
 8816TIP3    H247940   0.540   1.781   5.397 -1.7748  1.0557  2.1042
 8817TIP3   OH247941   2.040   2.642   4.818 -0.0391 -0.4162  0.5736
 8817TIP3    H147942   2.119   2.695   4.830  0.2848 -0.0191 -2.8199
 8817TIP3    H247943   2.067   2.553   4.843  1.7772 -0.4559 -1.3863
 8818TIP3   OH247944   1.162   6.482   5.073 -0.0670  0.3249  0.1036
 8818TIP3    H147945   1.133   6.443   4.990 -1.1718 -0.2549  0.7502
 8818TIP3    H247946   1.102   6.446   5.138  1.1176  0.3765  1.2340
 8819TIP3   OH247947   4.236   4.759  15.228 -0.1435 -0.2289  0.1693
 8819TIP3    H147948   4.143   4.738  15.234  0.1700 -1.0806  2.1655
 8819TIP3    H247949   4.281   4.676  15.244  0.9867  0.4716  0.7083
 8820TIP3   OH247950   0.763   3.540   2.147  0.3056  0.0260  0.5585
 8820TIP3    H147951   0.855   3.539   2.171  0.5556  1.7989 -0.2898
 8820TIP3    H247952   0.729   3.455   2.178  1.8601 -0.0227  2.1749
 8821TIP3   OH247953   5.403   5.219   1.029  0.0178 -0.0095 -0.0445
 8821TIP3    H147954   5.460   5.209   1.105  2.0539  0.5670 -1.4515
 8821TIP3    H247955   5.420   5.141   0.976 -1.1958 -0.2819 -0.0480
 8822TIP3   OH247956   2.824   1.073  14.359  0.4042 -0.8112  0.5223
 8822TIP3    H147957   2.879   1.008  14.403  0.4789 -1.1237 -0.0287
 8822TIP3    H247958   2.842   1.060  14.266 -0.2627 -0.6066  0.3650
 8823TIP3   OH247959   2.445   1.785   0.955 -0.4533  0.3364 -0.1131
 8823TIP3    H147960   2.404   1.870   0.939 -0.1093  0.6758  0.7819
 8823TIP3    H247961   2.535   1.806   0.983 -1.1761 -0.1921  2.7532
 8824TIP3   OH247962   4.893   3.393  16.890 -0.6574 -0.7463 -0.0670
 8824TIP3    H147963   4.807   3.375  16.929 -1.5210  1.8375 -0.6406
 8824TIP3    H247964   4.872   3.441  16.810  1.3471  0.8028  0.3003
 8825TIP3   OH247965   4.115   6.253   1.375 -0.1505 -0.5101 -0.4089
 8825TIP3    H147966   4.102   6.223   1.465 -1.4074 -0.5996 -0.6185
 8825TIP3    H247967   4.101   6.176   1.321 -2.5988  0.2249 -0.8923
 8826TIP3   OH247968   2.049   5.807  16.998  0.4803 -0.6573 -0.0393
 8826TIP3    H147969   2.088   5.894  17.010 -0.3889 -0.3183  0.4189
 8826TIP3    H247970   2.099   5.767  16.927  0.0859  0.6946 -1.0862
 8827TIP3   OH247971   3.849   1.384   1.312  0.4455 -0.5358 -0.0214
 8827TIP3    H147972   3.922   1.324   1.322 -0.0118 -1.0011  0.5303
 8827TIP3    H247973   3.778   1.331   1.275  0.4284 -0.0516 -0.7127
 8828TIP3   OH247974   0.049   2.566   4.749  0.5632 -0.2848 -0.1178
 8828TIP3    H147975  -0.023   2.629   4.754  0.7192 -0.1374  0.3635
 8828TIP3    H247976   0.036   2.509   4.825  1.0020 -0.1938  0.0316
 8829TIP3   OH247977   1.898   4.062   6.139 -0.1024  0.7160  0.0287
 8829TIP3    H147978   1.926   3.983   6.093 -3.3093 -0.1306 -0.6196
 8829TIP3    H247979   1.886   4.034   6.230 -3.2350 -0.1609 -0.5861
 8830TIP3   OH247980   0.907   2.335  15.661  0.1446 -0.2919 -0.7084
 8830TIP3    H147981   0.983   2.304  15.709 -1.6638  0.4792  2.8301
 8830TIP3    H247982   0.937   2.413  15.615  1.6460 -0.3674  0.1427
 8831TIP3   OH247983   2.468   6.186  12.173 -0.5867 -0.0283  0.2093
 8831TIP3    H147984   2.533   6.256  12.170 -0.5636 -0.0310  0.6860
 8831TIP3    H247985   2.463   6.162  12.265  0.0110 -1.2156 -0.0544
 8832TIP3   OH247986   0.481   1.884  15.374  0.6387  0.2734 -0.2466
 8832TIP3    H147987   0.403   1.832  15.351  0.5676  0.0651  0.4459
 8832TIP3    H247988   0.537   1.878  15.297 -0.5145  1.3652 -1.1981
 8833TIP3   OH247989   0.720   5.445   1.096  0.3969  0.2605  0.0117
 8833TIP3    H147990   0.702   5.356   1.124  0.0896  0.0533 -0.8242
 8833TIP3    H247991   0.816   5.452   1.100  0.3276  0.3842  1.5253
 8834TIP3   OH247992   6.768   2.367   2.900 -0.0360  0.3089 -0.3532
 8834TIP3    H147993   6.733   2.297   2.955  0.7295  0.2873  0.1189
 8834TIP3    H247994   6.731   2.350   2.813  1.4999 -1.7128 -0.6629
 8835TIP3   OH247995   3.103   1.408   0.782  0.1398 -0.0197  0.4624
 8835TIP3    H147996   3.118   1.485   0.727  1.3483 -0.3794  0.2625
 8835TIP3    H247997   3.011   1.414   0.807  0.4205  1.9659  1.1792
 8836TIP3   OH247998   3.276   4.529   4.459 -0.1757 -0.4473 -0.2880
 8836TIP3    H147999   3.357   4.489   4.427  0.0955  0.8028 -1.2548
 8836TIP3    H248000   3.218   4.529   4.383 -1.3699 -2.0049  0.5962
 8837TIP3   OH248001   5.613   1.774   5.498 -0.4725  0.0704 -0.0464
 8837TIP3    H148002   5.581   1.709   5.560  1.8723 -0.9797  0.1437
 8837TIP3    H248003   5.654   1.841   5.553 -0.9354  0.6061 -0.3441
 8838TIP3   OH248004   0.138   1.986  16.797  0.3883 -0.1929 -0.5366
 8838TIP3    H148005   0.055   1.999  16.751  0.5116  0.8171 -0.4907
 8838TIP3    H248006   0.199   2.045  16.754  0.8643 -0.2859 -0.0030
 8839TIP3   OH248007   1.924   1.384   2.336  0.5921  0.0210 -0.2597
 8839TIP3    H148008   1.931   1.323   2.410 -1.2957 -0.5541 -0.5090
 8839TIP3    H248009   1.844   1.433   2.354 -0.0434 -0.3162 -2.0472
 8840TIP3   OH248010   2.078   2.745  10.971  0.4579 -0.1487  0.1582
 8840TIP3    H148011   2.004   2.722  11.026 -0.1187 -0.3074 -0.6699
 8840TIP3    H248012   2.120   2.661  10.950 -0.2688 -0.2342 -0.9545
 8841TIP3   OH248013   1.749   3.139  12.601 -0.4259  0.0882  0.7208
 8841TIP3    H148014   1.841   3.152  12.625 -0.1885 -1.1374  0.5248
 8841TIP3    H248015   1.706   3.113  12.683 -0.4537 -0.0235  0.6716
 8842TIP3   OH248016   6.513   2.580   3.295 -0.1530  0.2370  0.6298
 8842TIP3    H148017   6.608   2.590   3.290 -0.3372  1.8642 -0.0176
 8842TIP3    H248018   6.496   2.492   3.263  1.1399 -0.0786  0.7890
 8843TIP3   OH248019   4.862   2.589  16.871 -0.8019 -0.4145 -0.4532
 8843TIP3    H148020   4.888   2.611  16.960 -0.4815  1.2698 -0.9456
 8843TIP3    H248021   4.774   2.624  16.862 -0.7235 -0.3287 -0.8937
 8844TIP3   OH248022   3.064   4.807  10.571 -0.1643 -0.1158  0.2075
 8844TIP3    H148023   3.144   4.860  10.566 -0.3047  0.3813  2.6129
 8844TIP3    H248024   3.095   4.719  10.589 -0.1315 -0.0925  0.2624
 8845TIP3   OH248025   3.347   5.658   5.484 -0.1069 -0.2765 -0.3689
 8845TIP3    H148026   3.424   5.602   5.496  0.0675  0.3695  1.7002
 8845TIP3    H248027   3.284   5.625   5.547 -1.4480 -0.6121 -1.8580
 8846TIP3   OH248028   6.673   0.179  12.207  0.4566  0.1423  0.4460
 8846TIP3    H148029   6.615   0.198  12.133  2.2147  0.0734 -0.9785
 8846TIP3    H248030   6.697   0.264  12.242  2.0936  0.3068 -1.0285
 8847TIP3   OH248031   4.508   5.951  13.260  0.7681  0.0249  0.0458
 8847TIP3    H148032   4.499   6.043  13.235  0.5699  0.2587  0.9710
 8847TIP3    H248033   4.589   5.948  13.312  1.8300 -0.6714 -1.5921
 8848TIP3   OH248034   6.586   3.058   0.117  0.3397 -0.7631 -0.1276
 8848TIP3    H148035   6.610   3.098   0.033 -0.6646 -0.6412 -0.3665
 8848TIP3    H248036   6.670   3.031   0.156  0.9565  0.7392 -0.3753
 8849TIP3   OH248037   1.580   3.355  12.488  0.2483  0.5457 -0.0915
 8849TIP3    H148038   1.637   3.289  12.527 -2.4092 -1.0207  1.3423
 8849TIP3    H248039   1.603   3.436  12.534  0.4928 -0.3236  1.3768
 8850TIP3   OH248040   3.752   5.322  14.997 -0.5584 -0.1085 -0.4145
 8850TIP3    H148041   3.780   5.308  14.906 -1.0306  2.4520 -0.9818
 8850TIP3    H248042   3.657   5.311  14.995 -0.6992  1.0939 -0.4657
 8851TIP3   OH248043   5.585   5.576   0.548 -0.0136  0.3213 -0.1075
 8851TIP3    H148044   5.509   5.524   0.576  0.5169 -0.3223  0.1404
 8851TIP3    H248045   5.603   5.634   0.622  1.5611 -1.5734  1.0506
 8852TIP3   OH248046   3.462   6.405  14.768  0.0330 -0.2290 -0.4004
 8852TIP3    H148047   3.473   6.314  14.740  1.4676  0.2350 -1.3798
 8852TIP3    H248048   3.542   6.426  14.817  1.6006  1.7277 -3.6141
 8853TIP3   OH248049   5.522   5.275  14.214  0.2817  0.0905 -0.4869
 8853TIP3    H148050   5.483   5.320  14.140  1.3014  0.6638 -0.6793
 8853TIP3    H248051   5.484   5.318  14.291 -0.8214 -0.5486 -0.6599
 8854TIP3   OH248052   6.581   2.830   1.753  0.1439 -0.2915 -0.9766
 8854TIP3    H148053   6.541   2.824   1.666  1.0921  1.8595 -1.5923
 8854TIP3    H248054   6.643   2.758   1.755 -0.7767 -1.1208 -1.5957
 8855TIP3   OH248055   6.489   1.481  10.882 -0.2343 -0.2260 -0.5086
 8855TIP3    H148056   6.394   1.482  10.875 -0.1507 -0.0212 -1.7033
 8855TIP3    H248057   6.511   1.565  10.923 -0.6305 -0.7379  0.7823
 8856TIP3   OH248058   0.142   2.234  14.420 -0.0380 -0.2087  0.2768
 8856TIP3    H148059   0.179   2.288  14.490 -1.3202  1.5721 -0.3954
 8856TIP3    H248060   0.209   2.235  14.351 -0.0620  0.5337  0.2620
 8857TIP3   OH248061   0.331   2.857   4.804 -0.0454  0.0706 -0.1369
 8857TIP3    H148062   0.303   2.810   4.725  1.1313 -1.0831  0.1095
 8857TIP3    H248063   0.312   2.949   4.786  0.7118 -0.1140 -2.0027
 8858TIP3   OH248064   6.723   5.866   5.938 -0.0783 -0.3066 -0.3349
 8858TIP3    H148065   6.814   5.836   5.929  0.1727  0.1709  0.4972
 8858TIP3    H248066   6.699   5.842   6.028 -0.4782  0.3563 -0.2618
 8859TIP3   OH248067   2.703   0.444   2.010  0.6114 -0.1729 -0.0671
 8859TIP3    H148068   2.737   0.431   2.099 -0.7327  0.7761  0.6033
 8859TIP3    H248069   2.668   0.358   1.986 -0.6128 -0.0004  1.0294
 8860TIP3   OH248070   1.015   2.401   2.796 -0.1820  0.4116  0.1895
 8860TIP3    H148071   0.967   2.367   2.871 -0.1441  0.7855  0.3823
 8860TIP3    H248072   1.085   2.337   2.782 -0.3829  0.1723  0.2697
 8861TIP3   OH248073   2.102   3.140  11.396 -0.2384  0.1768  0.1226
 8861TIP3    H148074   2.151   3.215  11.431 -1.6910  1.4618 -0.5249
 8861TIP3    H248075   2.044   3.178  11.330 -0.3741 -1.6593 -0.8369
 8862TIP3   OH248076   6.564   2.331   6.023 -0.6336 -0.0188 -0.0066
 8862TIP3    H148077   6.542   2.291   6.108 -0.3936  1.7122  0.8869
 8862TIP3    H248078   6.614   2.263   5.977 -0.5984 -0.9055  1.3146
 8863TIP3   OH248079   3.940   2.594   1.922 -0.1537  0.1024  0.0243
 8863TIP3    H148080   3.913   2.681   1.892  1.3482  0.4989 -0.2253
 8863TIP3    H248081   3.969   2.607   2.012 -2.6244 -0.6888  0.9619
 8864TIP3   OH248082   0.352   5.067   2.400  0.4105 -0.4751  0.4173
 8864TIP3    H148083   0.372   5.140   2.458  1.7919  1.5077 -2.4104
 8864TIP3    H248084   0.397   4.992   2.439  2.2135  1.0361  1.3168
 8865TIP3   OH248085   0.121   3.228   2.200  0.8255  0.0528  0.4830
 8865TIP3    H148086   0.069   3.275   2.265 -0.7657 -1.3481  0.2556
 8865TIP3    H248087   0.177   3.169   2.251  1.1880  0.5553  0.6676
 8866TIP3   OH248088   6.265   5.823   1.524  0.0375 -0.2380  0.0183
 8866TIP3    H148089   6.262   5.758   1.594 -0.8154 -1.0195 -0.7311
 8866TIP3    H248090   6.179   5.819   1.483  0.2703  0.7487 -0.5925
 8867TIP3   OH248091   2.378   5.593  16.189 -0.5734  0.5498  0.1323
 8867TIP3    H148092   2.405   5.663  16.129 -0.6590  1.4303  1.1050
 8867TIP3    H248093   2.336   5.528  16.132 -1.3248  1.7152 -0.6767
 8868TIP3   OH248094   1.696   0.569  11.684 -0.7419 -0.1574 -0.1738
 8868TIP3    H148095   1.660   0.656  11.704 -1.6267 -0.1006 -1.9056
 8868TIP3    H248096   1.705   0.568  11.589  3.5980 -0.2951  0.1126
 8869TIP3   OH248097   3.749   5.231  17.231 -0.0075  0.3191 -0.1176
 8869TIP3    H148098   3.820   5.171  17.207  0.6308  0.2196  1.8996
 8869TIP3    H248099   3.725   5.274  17.149  2.7382  0.7278 -0.7601
 8870TIP3   OH248100   1.261   6.006   4.099 -0.2655 -0.3812 -0.0051
 8870TIP3    H148101   1.300   6.036   4.017 -1.7881  0.4318 -0.4581
 8870TIP3    H248102   1.326   6.027   4.166 -0.2674  1.7140 -0.6326
 8871TIP3   OH248103   6.175   0.632  12.429  0.1131  0.0099  0.7673
 8871TIP3    H148104   6.167   0.727  12.438  1.2109  0.1025  0.8987
 8871TIP3    H248105   6.270   0.616  12.427 -0.0170 -0.7673 -2.5624
 8872TIP3   OH248106   5.959   2.357  12.828  0.2770  0.5961 -0.1751
 8872TIP3    H148107   5.931   2.347  12.737 -0.1854 -0.0390  0.0330
 8872TIP3    H248108   6.052   2.335  12.828  0.5895  1.8725 -0.7216
 8873TIP3   OH248109   1.968   4.388  14.538  0.4063 -0.0086 -0.5793
 8873TIP3    H148110   1.891   4.443  14.524  0.8797  1.0764  0.9841
 8873TIP3    H248111   1.937   4.299  14.521 -0.4168  0.6838 -2.9260
 8874TIP3   OH248112   2.970   2.648  11.219  0.2455 -0.6206 -0.2963
 8874TIP3    H148113   3.017   2.587  11.162  0.4870  0.9865 -1.8624
 8874TIP3    H248114   2.964   2.728  11.167 -3.4150 -0.4834  0.2509
 8875TIP3   OH248115   0.680   5.779   1.600 -0.2200 -0.5205 -0.4295
 8875TIP3    H148116   0.693   5.872   1.583 -0.1020 -0.9408 -2.7954
 8875TIP3    H248117   0.680   5.738   1.513 -1.1368 -2.6150  0.5159
 8876TIP3   OH248118   1.640   2.971  11.557  0.3104  0.0968  0.1849
 8876TIP3    H148119   1.701   2.952  11.628 -1.0683 -0.4272  1.2702
 8876TIP3    H248120   1.682   2.938  11.478  0.8948 -1.3256  1.0825
 8877TIP3   OH248121   5.599   1.824  16.906  0.0517  0.2344  0.2704
 8877TIP3    H148122   5.520   1.833  16.958  0.0985 -0.8425  0.5423
 8877TIP3    H248123   5.664   1.790  16.967 -0.0491 -1.6091 -0.6276
 8878TIP3   OH248124   3.492   0.285   1.637  0.4267 -0.3810  0.0154
 8878TIP3    H148125   3.501   0.217   1.704 -1.6075 -3.0954 -2.3431
 8878TIP3    H248126   3.405   0.322   1.653  0.1945 -0.6033 -0.7316
 8879TIP3   OH248127   1.766   2.273  16.618 -0.2456  0.0410  0.6620
 8879TIP3    H148128   1.675   2.248  16.604  0.0760 -0.1472 -1.2273
 8879TIP3    H248129   1.762   2.356  16.665 -1.3980  0.6307 -0.4815
 8880TIP3   OH248130   6.169   3.832  12.919  0.3575 -0.0028  0.6001
 8880TIP3    H148131   6.090   3.842  12.971 -0.3599 -0.4174 -0.3817
 8880TIP3    H248132   6.197   3.922  12.901  0.3332  0.1430  1.2763
 8881TIP3   OH248133   3.679   3.926   4.207 -0.0594 -0.0641 -0.1759
 8881TIP3    H148134   3.628   3.848   4.185 -2.1171  1.6362 -1.6433
 8881TIP3    H248135   3.624   3.974   4.268  0.2548  1.2372 -0.8927
 8882TIP3   OH248136   5.516   6.514   1.577  0.1896  0.0715 -0.0697
 8882TIP3    H148137   5.585   6.473   1.524 -0.1284 -1.2897  0.5782
 8882TIP3    H248138   5.522   6.471   1.662 -1.7695 -0.3527 -0.1466
 8883TIP3   OH248139   3.342   6.153   1.394  0.8913 -0.0658  0.7670
 8883TIP3    H148140   3.309   6.087   1.454  1.8454 -1.4467 -0.1827
 8883TIP3    H248141   3.414   6.194   1.441 -0.0568  0.6926  1.5732
 8884TIP3   OH248142   0.872   0.903  13.335 -0.2775 -0.0715 -0.0935
 8884TIP3    H148143   0.876   0.819  13.290  1.1409 -0.6305  1.0768
 8884TIP3    H248144   0.907   0.966  13.272  0.7041 -0.6855 -0.1570
 8885TIP3   OH248145   1.339   2.224  13.524  0.2187 -1.1805  0.4235
 8885TIP3    H148146   1.260   2.216  13.469 -0.1857 -1.1553  1.0026
 8885TIP3    H248147   1.311   2.194  13.610  0.7983 -0.9802  0.6774
 8886TIP3   OH248148   0.216   3.525   3.331  0.1048  0.0586 -0.1069
 8886TIP3    H148149   0.132   3.568   3.347  0.2905 -0.0040  1.0717
 8886TIP3    H248150   0.270   3.592   3.289 -0.4557  0.1707 -0.6556
 8887TIP3   OH248151   2.985   5.585   4.988  0.7627 -0.3242 -0.5024
 8887TIP3    H148152   2.910   5.643   4.975 -0.1759 -1.9055 -2.2955
 8887TIP3    H248153   3.061   5.639   4.965 -0.0171  0.5260 -1.1055
 8888TIP3   OH248154   5.307   3.643   0.731 -0.0857  0.0466 -0.2628
 8888TIP3    H148155   5.353   3.564   0.757  0.1649 -0.3132 -1.7772
 8888TIP3    H248156   5.311   3.644   0.635 -1.2860  1.1659 -0.3241
 8889TIP3   OH248157   0.972   4.604   1.343 -0.3372 -0.1117  0.3155
 8889TIP3    H148158   1.052   4.654   1.361 -0.4345 -0.3980  1.6424
 8889TIP3    H248159   1.002   4.526   1.298  0.1273 -0.1468  0.6775
 8890TIP3   OH248160   3.488   5.675  14.520 -0.1809 -0.4325  0.2673
 8890TIP3    H148161   3.411   5.676  14.576 -0.6917  1.2094 -0.4247
 8890TIP3    H248162   3.552   5.728  14.567 -0.2437  0.0508 -0.1841
 8891TIP3   OH248163   6.720   2.865  17.205  0.2984  0.2391  0.4635
 8891TIP3    H148164   6.675   2.949  17.198  0.1972  0.1456 -0.0697
 8891TIP3    H248165   6.720   2.845  17.298 -0.6685  0.2891  0.4765
 8892TIP3   OH248166   4.359   0.154  11.156  0.4936 -0.1870  0.3393
 8892TIP3    H148167   4.437   0.128  11.106  0.6789  0.0954  0.4838
 8892TIP3    H248168   4.286   0.132  11.098  0.7147  0.2878 -0.1238
 8893TIP3   OH248169   3.053   6.469  11.193 -0.1560  0.0099  0.3414
 8893TIP3    H148170   3.030   6.533  11.125  0.8699 -0.0218 -0.0395
 8893TIP3    H248171   3.100   6.520  11.259 -2.0450  0.2429  1.5432
 8894TIP3   OH248172   5.643   2.883  14.302  0.1871 -0.8295 -0.1279
 8894TIP3    H148173   5.725   2.871  14.350 -0.3026 -0.2469  0.8792
 8894TIP3    H248174   5.578   2.837  14.355 -0.3120 -0.4254 -0.3855
 8895TIP3   OH248175   2.284   0.409  12.577 -0.8071 -0.0475 -0.2584
 8895TIP3    H148176   2.249   0.324  12.604 -2.0572  0.3126 -0.6703
 8895TIP3    H248177   2.220   0.472  12.611 -0.3316  0.6608 -0.6788
 8896TIP3   OH248178   2.088   3.821   3.417  0.3572  0.5328  0.3727
 8896TIP3    H148179   2.091   3.755   3.487  0.1563 -0.7103 -0.7577
 8896TIP3    H248180   2.014   3.877   3.440  1.5159  1.3669  2.2086
 8897TIP3   OH248181   1.661   5.742   2.478  0.2480 -0.4923 -0.9039
 8897TIP3    H148182   1.628   5.663   2.523  0.3013 -0.0642 -0.0988
 8897TIP3    H248183   1.597   5.758   2.409  0.3132 -1.3255 -1.1696
 8898TIP3   OH248184   5.573   2.517   1.306  0.2147  0.0036 -0.3443
 8898TIP3    H148185   5.497   2.562   1.343 -0.1844  0.5634 -1.8104
 8898TIP3    H248186   5.555   2.512   1.212  0.6922 -2.3601 -0.3580
 8899TIP3   OH248187   2.304   3.318   5.784  0.0540 -0.0200 -1.2579
 8899TIP3    H148188   2.293   3.362   5.869 -1.5342  0.3052 -1.5990
 8899TIP3    H248189   2.398   3.307   5.774  0.2355 -0.5401  0.7883
 8900TIP3   OH248190   3.279   3.218  14.408  0.0302 -0.4021  0.5611
 8900TIP3    H148191   3.245   3.230  14.319 -0.1471 -0.2343  0.6500
 8900TIP3    H248192   3.349   3.283  14.416 -0.7089  0.3638  0.9310
 8901TIP3   OH248193   2.918   2.102  16.153  0.6251 -0.4867  0.3110
 8901TIP3    H148194   2.831   2.086  16.190 -0.8672  0.2464 -2.7582
 8901TIP3    H248195   2.932   2.196  16.164  0.7225 -0.4812  0.1381
 8902TIP3   OH248196   0.965   4.809  12.031  0.0839  0.2206  0.0904
 8902TIP3    H148197   0.893   4.777  11.977  0.8923 -0.7055 -0.4299
 8902TIP3    H248198   1.030   4.740  12.030  1.6234  1.6452 -0.6054
 8903TIP3   OH248199   4.879   0.213   5.602 -0.2106 -0.1909  0.1956
 8903TIP3    H148200   4.909   0.261   5.524  0.1891 -0.0454  0.4377
 8903TIP3    H248201   4.836   0.280   5.655  1.1579  0.0985  0.9633
 8904TIP3   OH248202   6.235   0.770   1.118 -0.4773  0.2391  1.2480
 8904TIP3    H148203   6.296   0.698   1.112 -1.7327 -0.8983  1.8217
 8904TIP3    H248204   6.290   0.848   1.127  0.8741 -0.7354  1.5509
 8905TIP3   OH248205   5.872   2.325   5.060  0.3952  0.2824 -0.5785
 8905TIP3    H148206   5.800   2.299   5.118  0.7249  0.0185 -0.2811
 8905TIP3    H248207   5.942   2.352   5.119  0.7645 -0.0681 -0.8491
 8906TIP3   OH248208   0.581   4.169  16.141  0.3320 -0.1707  0.0653
 8906TIP3    H148209   0.657   4.150  16.086 -0.2849 -0.0753 -0.8102
 8906TIP3    H248210   0.506   4.166  16.082 -0.4530 -1.0535  1.0695
 8907TIP3   OH248211   4.674   6.385   1.504 -0.0502 -0.3215  0.1031
 8907TIP3    H148212   4.656   6.386   1.598  1.6311  0.8152  0.4494
 8907TIP3    H248213   4.749   6.444   1.493  0.7436 -1.5906 -1.7526
 8908TIP3   OH248214   4.526   6.120   1.769  0.2893 -0.4954  0.2297
 8908TIP3    H148215   4.605   6.132   1.821  0.0381 -3.5897  1.4020
 8908TIP3    H248216   4.458   6.166   1.818  0.6312 -0.9201  1.1045
 8909TIP3   OH248217   2.279   2.799  12.368  0.1410  0.5627  0.3444
 8909TIP3    H148218   2.271   2.726  12.430  0.7432 -0.3512 -0.6119
 8909TIP3    H248219   2.289   2.876  12.423  1.9573 -0.3861  1.4083
 8910TIP3   OH248220   1.253   0.260  12.128 -0.0361 -0.0075  0.4893
 8910TIP3    H148221   1.174   0.239  12.079 -1.3148  0.2436  2.3663
 8910TIP3    H248222   1.230   0.340  12.176  1.5980  0.4644  0.5047
 8911TIP3   OH248223   4.522   4.816  15.961 -0.1795  0.0119 -0.5793
 8911TIP3    H148224   4.460   4.881  15.994 -0.0297 -0.5117  0.7663
 8911TIP3    H248225   4.474   4.733  15.965  0.3215 -0.2657 -0.3077
 8912TIP3   OH248226   1.925   0.685   0.717 -0.1872  0.5556  0.1593
 8912TIP3    H148227   1.862   0.627   0.675  0.2682  0.3925 -0.3066
 8912TIP3    H248228   1.914   0.769   0.673  0.1648  0.4320 -0.1724
 8913TIP3   OH248229   5.909   6.715   0.443 -0.1522 -0.3916 -0.5294
 8913TIP3    H148230   5.898   6.775   0.370  1.4123 -0.5061 -0.8850
 8913TIP3    H248231   5.958   6.765   0.508 -1.2555 -0.3935  0.3092
 8914TIP3   OH248232   0.092   0.596   5.920  0.3438 -0.6613  0.7659
 8914TIP3    H148233   0.107   0.502   5.912  1.4035 -0.5255  1.0617
 8914TIP3    H248234  -0.003   0.604   5.931  0.3217 -1.7607  1.5511
 8915TIP3   OH248235   2.544   5.179  11.902 -0.0870  0.3302  0.1988
 8915TIP3    H148236   2.454   5.199  11.929  0.0562  0.0832  0.8890
 8915TIP3    H248237   2.573   5.257  11.853 -0.3163  0.8564  0.8851
 8916TIP3   OH248238   2.705   0.681   2.333 -0.3030 -0.1288  0.1354
 8916TIP3    H148239   2.624   0.691   2.382  0.2795  0.1136  1.0647
 8916TIP3    H248240   2.761   0.753   2.363  1.3112 -1.9702  1.6722
 8917TIP3   OH248241   0.265   4.526   1.293  0.2162 -0.7297 -0.1132
 8917TIP3    H148242   0.250   4.445   1.244 -1.6988 -0.5681  0.1828
 8917TIP3    H248243   0.183   4.574   1.286  1.8004  1.8980 -1.5637
 8918TIP3   OH248244   0.143   0.320   3.154  0.2613  0.3284 -0.0775
 8918TIP3    H148245   0.209   0.347   3.219  0.6267  3.9088 -1.7988
 8918TIP3    H248246   0.195   0.285   3.081 -0.0665 -1.9002  0.7096
 8919TIP3   OH248247   5.690   0.783   5.375 -0.0617 -0.0497  0.3046
 8919TIP3    H148248   5.654   0.871   5.359 -0.1006 -0.3500 -1.3852
 8919TIP3    H248249   5.746   0.793   5.452 -0.1576  1.4318  0.1941
 8920TIP3   OH248250   2.960   4.802  15.721  0.3757  0.0542  0.5331
 8920TIP3    H148251   2.944   4.890  15.757  0.0274  0.4305 -0.5290
 8920TIP3    H248252   2.878   4.755  15.735  0.3998  0.0509  0.6633
 8921TIP3   OH248253   2.855   2.462   0.013  0.2659 -0.4861 -0.7065
 8921TIP3    H148254   2.880   2.555   0.010  1.7991 -0.9536 -2.9803
 8921TIP3    H248255   2.930   2.415  -0.022 -0.6480 -2.5928  0.0594
 8922TIP3   OH248256   4.761   4.232   5.091  0.1815 -0.6060  0.4863
 8922TIP3    H148257   4.757   4.294   5.163  2.9008 -1.5459  1.5114
 8922TIP3    H248258   4.803   4.280   5.020  2.2349 -1.1917  1.2619
 8923TIP3   OH248259   6.467   2.025   0.347 -0.0234  0.2926  0.0420
 8923TIP3    H148260   6.552   2.033   0.391  0.6721 -1.1498 -1.0197
 8923TIP3    H248261   6.430   2.114   0.352 -0.0094  0.2005  3.5440
 8924TIP3   OH248262   4.160   4.572   0.758  0.2007 -0.5930  0.2085
 8924TIP3    H148263   4.118   4.569   0.844  0.3636 -0.0943  0.3079
 8924TIP3    H248264   4.249   4.602   0.776 -0.2379  1.0593 -0.2991
 8925TIP3   OH248265   2.833   2.413   4.385  0.0521 -0.0150 -0.1913
 8925TIP3    H148266   2.765   2.480   4.394 -0.5259 -0.6103 -0.1866
 8925TIP3    H248267   2.787   2.335   4.356  0.6027 -0.6605  0.6480
 8926TIP3   OH248268   6.549   2.840  10.553  0.1101 -0.7212  0.1541
 8926TIP3    H148269   6.506   2.890  10.484  0.1949 -0.3827  0.3460
 8926TIP3    H248270   6.635   2.881  10.563  0.1387 -0.8347  0.3895
 8927TIP3   OH248271   6.444   0.688  16.128 -0.0284  0.6398  0.4603
 8927TIP3    H148272   6.455   0.631  16.053 -0.2797  0.5985  0.4542
 8927TIP3    H248273   6.527   0.683  16.175  0.2185  0.8672  0.0434
 8928TIP3   OH248274   0.570   6.062   5.739  0.4547 -0.6031 -0.1992
 8928TIP3    H148275   0.526   6.122   5.679 -0.4040 -0.7321  0.2921
 8928TIP3    H248276   0.560   5.976   5.698  0.0723 -0.6588  0.0089
 8929TIP3   OH248277   2.477   4.453  15.219  0.1446 -0.2848 -0.4496
 8929TIP3    H148278   2.502   4.431  15.129 -0.4230  0.3879 -0.7800
 8929TIP3    H248279   2.482   4.370  15.266 -1.2495 -0.9913 -1.5085
 8930TIP3   OH248280   3.128   0.673  17.060 -0.7911 -1.0231 -0.0824
 8930TIP3    H148281   3.095   0.758  17.031 -0.0704 -0.7329 -0.0472
 8930TIP3    H248282   3.144   0.624  16.979  0.9332 -0.3210 -0.1714
 8931TIP3   OH248283   4.857   5.777  10.655  0.2769 -0.2482 -0.1759
 8931TIP3    H148284   4.914   5.700  10.645 -0.8998 -1.1197 -0.2644
 8931TIP3    H248285   4.905   5.848  10.611  0.1238 -1.5666 -2.5391
 8932TIP3   OH248286   3.949   5.457  13.180  0.4917 -0.3713  0.0277
 8932TIP3    H148287   4.033   5.412  13.192  0.6962  0.2551  1.0192
 8932TIP3    H248288   3.901   5.439  13.261  0.1602  0.3211 -0.0125
 8933TIP3   OH248289   6.576   5.103   6.154  0.1986 -0.3285  0.3104
 8933TIP3    H148290   6.521   5.180   6.144  0.5494 -0.3877 -2.4485
 8933TIP3    H248291   6.665   5.134   6.133  1.1886 -0.3683  4.0757
 8934TIP3   OH248292   2.038   4.438   5.165  0.2639 -0.1861  0.5263
 8934TIP3    H148293   2.013   4.433   5.073  0.0267  1.1952  0.5003
 8934TIP3    H248294   1.993   4.516   5.198  1.9761  0.5082  1.2897
 8935TIP3   OH248295   3.551   3.565   2.839 -0.6814  0.1269 -0.0882
 8935TIP3    H148296   3.562   3.556   2.745  0.0153  1.5060 -0.1443
 8935TIP3    H248297   3.520   3.654   2.852  2.7545  1.2402  1.2363
 8936TIP3   OH248298   1.723   3.110   5.696  0.0802 -0.5255  0.6630
 8936TIP3    H148299   1.745   3.202   5.679 -1.0713 -0.3328  0.1895
 8936TIP3    H248300   1.804   3.072   5.729  0.8120  0.4511  0.0120
 8937TIP3   OH248301   6.350   3.955  14.873  0.4150 -0.4613 -0.2907
 8937TIP3    H148302   6.393   3.964  14.958  2.0595 -2.7971 -0.8253
 8937TIP3    H248303   6.257   3.967  14.892  0.8192 -0.1934  1.6908
 8938TIP3   OH248304   1.186   4.588   4.929 -0.2895 -0.3563  0.0292
 8938TIP3    H148305   1.128   4.622   4.861  0.9214 -0.7236 -1.2119
 8938TIP3    H248306   1.273   4.620   4.905  0.2701 -1.1180  0.9845
 8939TIP3   OH248307   4.424   0.140   1.718 -0.1209  0.3856 -0.2067
 8939TIP3    H148308   4.399   0.210   1.659  1.0009  1.5658  0.6934
 8939TIP3    H248309   4.431   0.182   1.804 -0.3922 -1.0229  0.5257
 8940TIP3   OH248310   5.394   5.330  13.611  0.4602 -0.0833  0.7231
 8940TIP3    H148311   5.409   5.407  13.555  0.0695 -0.2681  0.3620
 8940TIP3    H248312   5.477   5.283  13.609  1.0883  0.9316  1.8893
 8941TIP3   OH248313   5.612   5.427   0.938  0.1581  0.4802 -0.0310
 8941TIP3    H148314   5.589   5.334   0.940  0.2033  0.4564 -0.4189
 8941TIP3    H248315   5.649   5.440   0.850 -0.8928  1.1154 -0.3834
 8942TIP3   OH248316   3.529   4.128   1.440 -0.4074  0.1694 -0.3835
 8942TIP3    H148317   3.554   4.154   1.529  0.3741 -0.1542 -0.5108
 8942TIP3    H248318   3.450   4.076   1.452  0.1214 -0.5080  0.1915
 8943TIP3   OH248319   2.473   2.296   2.455  0.2545  0.2146  0.1437
 8943TIP3    H148320   2.493   2.380   2.498  0.9606  0.2771 -0.2864
 8943TIP3    H248321   2.465   2.319   2.362 -0.2095 -0.0913  0.1089
 8944TIP3   OH248322   2.450   3.816   3.689 -0.1620  0.7102 -0.7268
 8944TIP3    H148323   2.398   3.746   3.650 -0.4461  1.1274 -1.0927
 8944TIP3    H248324   2.435   3.892   3.633 -1.1664  1.5237  0.6204
 8945TIP3   OH248325   1.360   3.995   4.426 -0.6187  0.3435 -0.5069
 8945TIP3    H148326   1.432   4.035   4.377 -0.1050  0.4628  0.3305
 8945TIP3    H248327   1.340   4.058   4.495  1.3352 -1.5035  1.8626
 8946TIP3   OH248328   6.178   6.259  14.239 -0.0455  0.4813 -0.1062
 8946TIP3    H148329   6.099   6.313  14.239  0.9118  1.9088 -0.2188
 8946TIP3    H248330   6.225   6.287  14.161  0.5860 -0.3347 -0.0122
 8947TIP3   OH248331   3.410   0.248   3.166 -0.1567  0.1318  0.7441
 8947TIP3    H148332   3.319   0.250   3.136  0.1194  0.2086 -0.0796
 8947TIP3    H248333   3.438   0.339   3.164 -1.0569  0.5666  4.0795
 8948TIP3   OH248334   0.261   3.683   0.615 -0.0581 -0.5485  0.1054
 8948TIP3    H148335   0.224   3.594   0.610  0.0519 -0.5016 -1.9794
 8948TIP3    H248336   0.210   3.733   0.551 -0.1559  0.9160  1.3284
 8949TIP3   OH248337   0.353   5.440  15.820  0.5955  0.6123  0.0543
 8949TIP3    H148338   0.357   5.345  15.831  2.8919  0.5746 -0.8588
 8949TIP3    H248339   0.408   5.474  15.890 -0.0686  1.2697  0.2622
 8950TIP3   OH248340   3.982   4.967   3.856 -0.5008 -0.2385 -0.3636
 8950TIP3    H148341   4.001   5.003   3.943  2.9870 -0.7800 -0.8538
 8950TIP3    H248342   4.017   5.032   3.795  0.4579 -1.6075 -1.3034
 8951TIP3   OH248343   3.656   3.693   3.760 -0.0719  0.3300 -0.3014
 8951TIP3    H148344   3.750   3.680   3.775  0.2199  0.0740 -2.2634
 8951TIP3    H248345   3.649   3.710   3.667 -1.9770  0.5329 -0.1313
 8952TIP3   OH248346   5.043   2.768  15.627  0.4869 -0.1094 -0.0473
 8952TIP3    H148347   4.950   2.773  15.604  0.2582  0.8255  1.0603
 8952TIP3    H248348   5.046   2.713  15.705  0.6920  1.1977  0.8665
 8953TIP3   OH248349   5.194   0.133   0.042  0.4205  0.0270  0.3315
 8953TIP3    H148350   5.259   0.203   0.032  1.4342 -0.7041  1.5828
 8953TIP3    H248351   5.228   0.061  -0.011 -1.4371  0.9769 -2.2635
 8954TIP3   OH248352   1.229   2.870  16.996 -0.4744  0.2094 -0.2109
 8954TIP3    H148353   1.199   2.958  17.015 -2.1933 -0.6670  1.3373
 8954TIP3    H248354   1.255   2.835  17.082  1.0842 -0.4627 -0.9485
 8955TIP3   OH248355   0.253   4.818   4.375 -0.7006 -0.4222  0.0401
 8955TIP3    H148356   0.307   4.884   4.419 -1.0418  0.6881 -1.1569
 8955TIP3    H248357   0.309   4.783   4.307 -0.7561 -0.8672  0.2240
 8956TIP3   OH248358   1.228   5.372  17.265  0.2168  0.2951  0.3852
 8956TIP3    H148359   1.270   5.431  17.328  0.9066 -0.2206  0.4079
 8956TIP3    H248360   1.264   5.398  17.181  0.2578  0.1321  0.3546
 8957TIP3   OH248361   3.307   5.537  17.177 -0.0188  0.1355 -0.4405
 8957TIP3    H148362   3.395   5.519  17.211 -0.5984  0.1389  1.0738
 8957TIP3    H248363   3.250   5.536  17.254 -1.2513  0.8134 -1.3254
 8958TIP3   OH248364   2.529   6.504   6.455  0.4986 -0.6981 -0.3888
 8958TIP3    H148365   2.494   6.534   6.371  1.8603  0.1714 -0.6586
 8958TIP3    H248366   2.548   6.584   6.503 -0.2541 -1.1932  0.7604
 8959TIP3   OH248367   5.506   4.849   0.466 -0.0995  0.2498 -0.4368
 8959TIP3    H148368   5.514   4.859   0.371 -0.7567 -0.6942 -0.5939
 8959TIP3    H248369   5.432   4.905   0.490  0.9357  1.5845 -0.2760
 8960TIP3   OH248370   0.596   2.603   4.357 -0.3816 -0.2202 -0.1336
 8960TIP3    H148371   0.565   2.518   4.326  0.0722 -1.2763  2.2405
 8960TIP3    H248372   0.519   2.660   4.349 -0.9371 -1.0564 -0.9110
 8961TIP3   OH248373   5.507   1.486  14.755  0.4224  0.1928 -0.1141
 8961TIP3    H148374   5.524   1.463  14.846  2.2023 -1.5570 -0.8757
 8961TIP3    H248375   5.485   1.404  14.712  0.5669  0.8515 -1.4888
 8962TIP3   OH248376   5.333   5.025   2.116 -0.2412 -0.5054  0.1455
 8962TIP3    H148377   5.242   5.040   2.141 -0.3802 -1.0629 -0.0075
 8962TIP3    H248378   5.327   4.979   2.032  0.1450 -2.1924  1.0197
 8963TIP3   OH248379   0.204   3.035  16.072 -0.3726 -0.3289 -0.2039
 8963TIP3    H148380   0.202   2.962  16.133  0.7612 -0.9292 -0.8699
 8963TIP3    H248381   0.297   3.059  16.066 -0.6843  0.9189 -0.2815
 8964TIP3   OH248382   0.862   0.390  15.270  0.3969  0.4572  0.0860
 8964TIP3    H148383   0.935   0.442  15.237  1.1519  0.0133  1.0381
 8964TIP3    H248384   0.785   0.443  15.250  0.7474 -0.1361 -3.0576
 8965TIP3   OH248385   4.347   3.111  13.639  0.8764 -0.3614  0.4243
 8965TIP3    H148386   4.337   3.205  13.626  2.5669 -0.2219  0.0480
 8965TIP3    H248387   4.430   3.102  13.686  1.9574 -1.8036 -1.6856
 8966TIP3   OH248388   4.952   3.506  10.821  0.3560 -0.1740  0.3868
 8966TIP3    H148389   5.017   3.446  10.785  0.7514  0.2037  0.4732
 8966TIP3    H248390   4.908   3.455  10.890 -0.9349 -1.1617 -1.1399
 8967TIP3   OH248391   5.740   5.150   3.770  0.2691  0.3569 -0.4198
 8967TIP3    H148392   5.650   5.172   3.744  0.0800  0.2340  0.1227
 8967TIP3    H248393   5.731   5.113   3.858  0.7199 -0.7598 -0.8355
 8968TIP3   OH248394   2.386   2.768   4.215  0.1418 -0.1518  0.0943
 8968TIP3    H148395   2.344   2.764   4.301 -0.7478  1.7850 -0.2293
 8968TIP3    H248396   2.477   2.789   4.234 -0.1718  0.8344  0.5497
 8969TIP3   OH248397   6.307   4.685  15.801 -0.3127  0.5225  0.1318
 8969TIP3    H148398   6.357   4.691  15.719 -1.7082 -0.0527 -0.7774
 8969TIP3    H248399   6.358   4.735  15.864  0.5169  1.3959 -1.2166
 8970TIP3   OH248400   4.676   2.790  15.147 -0.2308  0.0752 -0.7645
 8970TIP3    H148401   4.649   2.881  15.157  0.2963  0.0369  1.2748
 8970TIP3    H248402   4.593   2.741  15.149 -0.4951  0.4888 -1.5871
 8971TIP3   OH248403   1.935   5.642   0.731  0.6145 -0.0035 -0.5367
 8971TIP3    H148404   1.963   5.703   0.663  0.2247  0.1594 -0.5545
 8971TIP3    H248405   2.015   5.619   0.778  0.8662 -0.0271 -0.9789
 8972TIP3   OH248406   3.012   2.396  17.111  1.0484  0.7237 -0.4770
 8972TIP3    H148407   3.077   2.434  17.052  0.1040  0.4545 -1.7070
 8972TIP3    H248408   3.008   2.303  17.087  0.6986  0.5967  0.0516
 8973TIP3   OH248409   6.728   4.288   4.309  0.2175 -0.0896 -0.4836
 8973TIP3    H148410   6.717   4.360   4.246 -1.8556  0.3768  0.3535
 8973TIP3    H248411   6.671   4.219   4.275  1.3115 -0.9198 -0.6508
 8974TIP3   OH248412   2.419   2.638   3.939  0.6155 -0.0788  0.1066
 8974TIP3    H148413   2.394   2.700   4.008  1.5231  0.4913 -0.0668
 8974TIP3    H248414   2.418   2.553   3.982  1.4570  0.3068  0.9140
 8975TIP3   OH248415   2.035   1.066  14.853 -0.4360 -0.0690 -0.0765
 8975TIP3    H148416   2.025   1.117  14.934  0.9892  1.9116 -1.0968
 8975TIP3    H248417   2.101   1.000  14.874  0.8521  1.2284  0.0399
 8976TIP3   OH248418   2.403   5.888  17.032  0.1514  0.1361 -0.2828
 8976TIP3    H148419   2.439   5.829  16.967  2.2267  2.1907 -1.0883
 8976TIP3    H248420   2.434   5.853  17.116 -1.4115 -1.7537 -0.4749
 8977TIP3   OH248421   4.176   5.222  11.023  0.3140 -0.3425 -0.3517
 8977TIP3    H148422   4.122   5.301  11.010  1.0420  0.0792 -0.8145
 8977TIP3    H248423   4.174   5.177  10.939  0.8559 -0.2186 -0.4328
 8978TIP3   OH248424   3.568   3.793   2.260  0.4505  0.1489  0.0485
 8978TIP3    H148425   3.642   3.811   2.202  1.0450  0.0071  0.7429
 8978TIP3    H248426   3.560   3.872   2.314 -0.3618  0.4443 -0.5067
 8979TIP3   OH248427   5.870   3.678  15.695  0.1123 -0.1347  0.1169
 8979TIP3    H148428   5.916   3.595  15.709  0.4915  0.3417  1.7866
 8979TIP3    H248429   5.860   3.715  15.783  1.6071  2.4831 -0.7502
 8980TIP3   OH248430   5.645   5.263  13.657 -0.2166  0.1632  0.3518
 8980TIP3    H148431   5.695   5.318  13.598 -3.0334 -1.1998 -3.5031
 8980TIP3    H248432   5.708   5.199  13.691  1.2947  0.4129 -1.9045
 8981TIP3   OH248433   6.387   0.597   0.975 -0.5382  0.1107 -0.0884
 8981TIP3    H148434   6.463   0.582   0.918 -0.9139 -0.1246 -0.5321
 8981TIP3    H248435   6.311   0.577   0.919 -0.9347  0.6434  0.2604
 8982TIP3   OH248436   3.263   5.598   2.919 -0.0091 -0.4556  0.5987
 8982TIP3    H148437   3.302   5.511   2.922 -0.7427 -0.8026  0.2218
 8982TIP3    H248438   3.266   5.622   2.827 -0.2676 -0.2969  0.6304
 8983TIP3   OH248439   0.136   2.201   2.279  0.1727  0.0308 -0.1741
 8983TIP3    H148440   0.117   2.128   2.219  0.8151  0.6726 -1.1682
 8983TIP3    H248441   0.232   2.207   2.280  0.1730  0.0007  0.9594
 8984TIP3   OH248442   0.499   5.690   6.403  0.5731  0.0979  0.0632
 8984TIP3    H148443   0.456   5.634   6.468  0.7747 -0.5451 -0.3582
 8984TIP3    H248444   0.582   5.646   6.385  0.7304  0.5294 -0.2771
 8985TIP3   OH248445   5.995   3.729  11.026 -0.3313  0.4033  0.0138
 8985TIP3    H148446   5.973   3.788  10.953 -1.1805  0.4922  0.3365
 8985TIP3    H248447   6.085   3.703  11.009 -0.6271  0.1706 -1.2513
 8986TIP3   OH248448   3.612   6.130  12.174 -0.8045  0.1839  0.1557
 8986TIP3    H148449   3.571   6.070  12.112  0.3300 -1.1633  0.6587
 8986TIP3    H248450   3.686   6.167  12.126 -1.4882  1.1681 -0.1444
 8987TIP3   OH248451   3.420   4.629  11.056  0.9506 -0.7253  0.4787
 8987TIP3    H148452   3.419   4.661  10.966 -0.6952 -0.9934  0.3845
 8987TIP3    H248453   3.367   4.693  11.105  0.8187 -1.2304  1.0104
 8988TIP3   OH248454   4.288   2.017   3.817  0.2271 -0.0579  0.5532
 8988TIP3    H148455   4.307   2.105   3.850  0.2318 -0.1076  0.6809
 8988TIP3    H248456   4.202   2.026   3.775  1.1322  0.4848 -1.2290
 8989TIP3   OH248457   3.498   3.313   5.224 -0.4312  0.5157  0.1071
 8989TIP3    H148458   3.562   3.270   5.281 -0.3417 -0.8048 -0.9753
 8989TIP3    H248459   3.515   3.406   5.236  0.0028  0.2425  1.7714
 8990TIP3   OH248460   6.156   6.238  13.452 -0.0378 -0.6032 -0.4129
 8990TIP3    H148461   6.063   6.230  13.429 -0.1016  0.9077 -0.7609
 8990TIP3    H248462   6.201   6.183  13.388 -0.8374 -3.2278  1.2095
 8991TIP3   OH248463   3.163   4.359   1.924 -0.3253 -0.1648 -0.3733
 8991TIP3    H148464   3.118   4.434   1.884 -1.7885 -1.0014 -0.3209
 8991TIP3    H248465   3.239   4.398   1.967 -0.7353  1.2265 -0.8518
 8992TIP3   OH248466   6.454   5.126   3.986 -0.5392 -0.1172 -0.1853
 8992TIP3    H148467   6.502   5.111   4.068  0.7013  1.7084 -0.5613
 8992TIP3    H248468   6.393   5.197   4.006 -0.7316 -0.1484 -0.6528
 8993TIP3   OH248469   0.530   6.756   2.222 -0.6833 -0.4602 -0.3796
 8993TIP3    H148470   0.564   6.758   2.311  1.7647  0.1281 -1.2931
 8993TIP3    H248471   0.535   6.664   2.196 -0.6328 -0.5046 -0.2117
 8994TIP3   OH248472   5.923   6.199  12.180  0.0911  0.0619  0.9694
 8994TIP3    H148473   5.852   6.136  12.164  1.6363 -1.7952  1.1707
 8994TIP3    H248474   5.911   6.227  12.270 -0.4320 -0.2090  0.9871
 8995TIP3   OH248475   3.883   3.133   1.563  0.3484 -0.3976  0.0888
 8995TIP3    H148476   3.967   3.091   1.545  0.1862 -0.8970  0.4858
 8995TIP3    H248477   3.821   3.061   1.570 -0.2989  0.0161 -1.1383
 8996TIP3   OH248478   5.896   4.972   5.948  0.5746 -0.7493 -0.0021
 8996TIP3    H148479   5.982   5.000   5.980  0.5840  2.0284 -2.3151
 8996TIP3    H248480   5.880   4.889   5.994  2.6451  0.6970  3.5516
 8997TIP3   OH248481   6.028   1.783  13.585 -0.3874  0.3630  0.3880
 8997TIP3    H148482   5.959   1.824  13.533  1.1955  2.7533  0.0968
 8997TIP3    H248483   6.074   1.727  13.523  0.6579  2.1668 -0.4872
 8998TIP3   OH248484   2.393   3.179  13.768 -0.0705  0.7177  0.2108
 8998TIP3    H148485   2.383   3.263  13.724 -0.8377 -0.1679 -1.3556
 8998TIP3    H248486   2.427   3.120  13.700 -0.3028 -0.4337  1.0746
 8999TIP3   OH248487   4.573   2.106   0.806 -0.4094 -0.4738  0.0488
 8999TIP3    H148488   4.642   2.171   0.818  0.6690 -1.8436  1.6025
 8999TIP3    H248489   4.524   2.136   0.730 -0.7726  2.8558  1.5028
 9000TIP3   OH248490   3.088   3.145   5.284  0.1748  0.0078  0.3855
 9000TIP3    H148491   3.178   3.126   5.311 -0.7173 -1.4384  2.5197
 9000TIP3    H248492   3.060   3.215   5.343 -0.5749 -0.6007  0.7681
 9001TIP3   OH248493   4.327   4.543  17.071 -0.0452  0.2600 -0.3150
 9001TIP3    H148494   4.345   4.637  17.074 -1.5993  0.5343  1.3945
 9001TIP3    H248495   4.343   4.513  17.160 -2.6755 -0.4754 -0.0516
 9002TIP3   OH248496   0.399   1.371  14.344 -0.1698 -0.1192  0.1097
 9002TIP3    H148497   0.440   1.408  14.266 -0.6959  1.8268  0.7411
 9002TIP3    H248498   0.355   1.445  14.386 -2.2564 -1.6896  0.7676
 9003TIP3   OH248499   1.635   1.363   2.572  0.3776 -0.2683 -0.0199
 9003TIP3    H148500   1.658   1.411   2.652  1.8486 -1.4470  0.2881
 9003TIP3    H248501   1.666   1.420   2.501 -3.0996  1.9362  0.0864
 9004TIP3   OH248502   1.852   3.336   1.072  0.0568  0.2100 -0.2090
 9004TIP3    H148503   1.778   3.278   1.059  1.6299 -1.7417 -0.6029
 9004TIP3    H248504   1.901   3.332   0.990  1.8981 -0.4076  0.8945
 9005TIP3   OH248505   6.677   3.048   2.154  0.0560 -0.0288 -0.4819
 9005TIP3    H148506   6.733   3.123   2.174  0.2165 -0.5216  0.9795
 9005TIP3    H248507   6.630   3.032   2.236 -0.4408 -1.1333 -0.9809
 9006TIP3   OH248508   6.426   5.295  17.030 -0.0918  0.5612  0.2176
 9006TIP3    H148509   6.336   5.310  17.058  0.2493  1.2860  0.9495
 9006TIP3    H248510   6.444   5.203  17.053 -0.7466  0.3198 -0.2339
 9007TIP3   OH248511   5.903   0.454  16.634 -0.6857  0.0611 -0.0765
 9007TIP3    H148512   5.926   0.476  16.724 -0.8214  0.2239 -0.0812
 9007TIP3    H248513   5.955   0.377  16.613 -1.9717 -1.0401  0.7253
 9008TIP3   OH248514   2.576   2.363   2.859 -0.1754 -0.3542 -0.3830
 9008TIP3    H148515   2.489   2.390   2.831  0.0052 -0.3698 -0.9774
 9008TIP3    H248516   2.630   2.442   2.848  0.1523 -0.6862 -1.2250
 9009TIP3   OH248517   3.494   6.187  11.342  0.0759  0.1127 -0.2971
 9009TIP3    H148518   3.425   6.121  11.343 -2.3114  2.4906  2.4464
 9009TIP3    H248519   3.487   6.229  11.256 -0.9119 -0.6726 -0.5994
 9010TIP3   OH248520   3.019   4.083  13.266 -0.0710 -0.4611 -0.1617
 9010TIP3    H148521   3.021   4.052  13.356  0.3731 -2.2956 -0.7926
 9010TIP3    H248522   2.948   4.147  13.264  0.9282  0.7671  1.8569
 9011TIP3   OH248523   5.674   3.500   1.512 -0.1878 -0.1828  0.1792
 9011TIP3    H148524   5.588   3.462   1.495  0.3799 -2.2495  1.6404
 9011TIP3    H248525   5.725   3.427   1.547  1.3535  1.6399  1.8335
 9012TIP3   OH248526   2.151   5.803  13.704 -0.3959  0.3836  0.2128
 9012TIP3    H148527   2.094   5.741  13.659  0.3994 -0.1072 -0.1171
 9012TIP3    H248528   2.119   5.889  13.676  0.0215  0.0829 -1.2130
 9013TIP3   OH248529   1.789   1.184   6.620 -0.3811  0.0521  0.0151
 9013TIP3    H148530   1.864   1.135   6.653  0.4907 -0.9261 -3.1882
 9013TIP3    H248531   1.822   1.274   6.609  0.4893 -0.4660 -1.7801
 9014TIP3   OH248532   3.996   2.493  16.056 -0.1963  0.4362 -0.1740
 9014TIP3    H148533   4.055   2.451  16.119 -1.4725 -1.2689 -0.0895
 9014TIP3    H248534   4.042   2.573  16.030  1.0751  0.3332  1.6748
 9015TIP3   OH248535   3.238   2.926   2.526 -0.0520  0.0339  0.5613
 9015TIP3    H148536   3.315   2.870   2.532 -0.4232 -0.7408 -1.7221
 9015TIP3    H248537   3.256   2.985   2.453 -1.3023  0.3428  0.4889
 9016TIP3   OH248538   0.788   0.071   0.085 -0.3950 -0.1285  0.9137
 9016TIP3    H148539   0.717   0.045   0.026 -1.4322  0.5000  1.8761
 9016TIP3    H248540   0.864   0.021   0.054 -0.0094  2.7322 -3.1382
 9017TIP3   OH248541   2.292   6.095   0.352  0.1434  0.0713 -0.6708
 9017TIP3    H148542   2.299   6.161   0.420  1.7303  0.0933 -0.8236
 9017TIP3    H248543   2.272   6.014   0.398  1.4050  0.0474 -0.1483
 9018TIP3   OH248544   6.503   3.000  12.503  0.0113 -0.2024  0.1562
 9018TIP3    H148545   6.430   2.989  12.564 -0.9135  0.0137 -0.8893
 9018TIP3    H248546   6.548   2.915  12.503 -1.7122 -1.1412 -1.0439
 9019TIP3   OH248547   1.511   5.991  15.170 -0.3750 -1.1329  0.6676
 9019TIP3    H148548   1.512   5.918  15.108 -0.0358 -0.7652  0.2459
 9019TIP3    H248549   1.501   6.069  15.117  1.7562 -0.6620  0.9099
 9020TIP3   OH248550   4.267   2.728   0.897  0.3141  0.2996 -0.3177
 9020TIP3    H148551   4.191   2.699   0.847  0.8986 -0.3215 -0.8615
 9020TIP3    H248552   4.241   2.812   0.935 -0.9016 -0.2641  0.1147
 9021TIP3   OH248553   1.171   3.259  15.586  0.2845 -0.4668 -0.2417
 9021TIP3    H148554   1.111   3.228  15.655  0.0269  0.5480  0.0085
 9021TIP3    H248555   1.113   3.296  15.520  0.5887 -0.4469 -0.4955
 9022TIP3   OH248556   4.797   3.389   5.593 -0.0291 -0.0610 -0.0797
 9022TIP3    H148557   4.866   3.369   5.529 -1.6655 -2.6181 -1.0976
 9022TIP3    H248558   4.834   3.363   5.677  0.6481 -0.4246 -0.4855
 9023TIP3   OH248559   1.713   3.204   4.796 -0.6313 -0.4070 -0.6051
 9023TIP3    H148560   1.712   3.284   4.745 -2.1952  0.0815  0.1529
 9023TIP3    H248561   1.769   3.224   4.871 -0.8474 -0.0841 -0.5268
 9024TIP3   OH248562   0.382   1.918  11.560 -0.1166  0.0441  0.7878
 9024TIP3    H148563   0.392   1.891  11.651  0.1493  0.0379  0.7579
 9024TIP3    H248564   0.424   2.004  11.556 -0.0906  0.0261  0.6623
 9025TIP3   OH248565   5.975   2.239  10.857 -0.0243 -0.0064 -0.4537
 9025TIP3    H148566   5.912   2.204  10.795 -0.5858 -0.0869  0.1539
 9025TIP3    H248567   5.951   2.199  10.941  0.2131  0.7413 -0.0262
 9026TIP3   OH248568   6.195   6.375  16.480  0.2142 -0.1033  0.1979
 9026TIP3    H148569   6.104   6.352  16.500 -0.1573  1.3592  0.2266
 9026TIP3    H248570   6.195   6.470  16.474  1.4603 -0.1697 -1.2107
 9027TIP3   OH248571   6.053   1.586   4.676 -0.0346 -0.0980 -0.3433
 9027TIP3    H148572   6.096   1.647   4.616  2.1721 -0.1560  1.1252
 9027TIP3    H248573   6.093   1.501   4.655  1.1632 -0.0290  1.5485
 9028TIP3   OH248574   1.223   2.204  10.996 -0.9867 -0.4308 -0.0421
 9028TIP3    H148575   1.272   2.204  10.914 -1.3546  1.7774 -0.3001
 9028TIP3    H248576   1.288   2.231  11.062 -0.4849 -2.9962  0.5561
 9029TIP3   OH248577   1.606   0.708   3.329 -0.0112 -0.2566 -0.3221
 9029TIP3    H148578   1.562   0.674   3.251  0.4705  0.3282 -0.8472
 9029TIP3    H248579   1.542   0.695   3.399 -0.7117 -0.1590 -0.9321
 9030TIP3   OH248580   1.554   4.493  14.831 -0.0841  0.3880 -0.7182
 9030TIP3    H148581   1.634   4.541  14.852 -0.6708  1.2731 -0.4773
 9030TIP3    H248582   1.502   4.555  14.778 -0.6192 -0.1656 -0.8463
 9031TIP3   OH248583   6.817   3.570   2.725 -0.1717  0.3234  0.2310
 9031TIP3    H148584   6.911   3.552   2.718  0.1879  2.5591 -1.3075
 9031TIP3    H248585   6.805   3.600   2.814  0.2846 -1.4349  0.9128
 9032TIP3   OH248586   1.130   2.790   3.444  0.3925  0.0102 -0.1753
 9032TIP3    H148587   1.132   2.725   3.514  1.3085  0.5536  0.3071
 9032TIP3    H248588   1.126   2.737   3.364  0.7015 -0.6386  0.2270
 9033TIP3   OH248589   2.115   4.873   1.908 -0.4372 -0.2399  0.1535
 9033TIP3    H148590   2.178   4.847   1.976 -0.0099  0.3611 -0.0149
 9033TIP3    H248591   2.142   4.961   1.882  0.1356 -0.9103 -1.6359
 9034TIP3   OH248592   3.452   4.621  12.480  0.4035  0.2758 -0.6606
 9034TIP3    H148593   3.502   4.589  12.405  0.9775  0.1747 -0.2313
 9034TIP3    H248594   3.437   4.714  12.461 -1.6129 -0.2980 -2.1034
 9035TIP3   OH248595   0.985   3.335   4.105  0.5262 -0.2356  0.1435
 9035TIP3    H148596   0.972   3.410   4.047  1.3305 -0.2553 -0.0687
 9035TIP3    H248597   0.897   3.308   4.129 -0.0716 -2.6887 -4.2086
 9036TIP3   OH248598   2.865   5.869   3.153 -0.4748  0.4143 -0.2631
 9036TIP3    H148599   2.878   5.878   3.248  0.0183  0.8968 -0.3669
 9036TIP3    H248600   2.785   5.819   3.144 -1.0896  1.2540  0.4119
 9037TIP3   OH248601   5.953   3.061  14.310  0.3118  0.4407  0.0495
 9037TIP3    H148602   5.947   3.007  14.390 -1.5097 -3.4561 -2.5286
 9037TIP3    H248603   6.034   3.032  14.268  0.2244  1.0166 -0.5190
 9038TIP3   OH248604   5.542   3.303  17.086 -0.7824 -0.3404  0.1488
 9038TIP3    H148605   5.530   3.251  17.165 -0.5520  0.5959  0.8129
 9038TIP3    H248606   5.596   3.377  17.114  0.8526 -0.9405 -1.2851
 9039TIP3   OH248607   3.987   5.909   3.825  0.3938  0.3787  0.5126
 9039TIP3    H148608   3.997   5.867   3.740  0.5994  0.5892  0.4296
 9039TIP3    H248609   3.907   5.871   3.862  0.7933 -0.3712  0.6113
 9040TIP3   OH248610   0.541   2.967  15.585 -0.3375  0.2507  0.0294
 9040TIP3    H148611   0.511   2.989  15.674  2.4201  0.2129  0.9997
 9040TIP3    H248612   0.500   3.033  15.529  2.1619  3.6317  2.0179
 9041TIP3   OH248613   4.874   1.592  16.519  0.0085 -0.1245 -0.8367
 9041TIP3    H148614   4.894   1.654  16.590 -1.6623 -0.9060  0.3283
 9041TIP3    H248615   4.960   1.566  16.486  0.7623  1.9187 -0.5638
 9042TIP3   OH248616   4.489   4.298   5.402  0.1239  0.0168  0.2784
 9042TIP3    H148617   4.463   4.223   5.348  0.1257 -0.4028  0.8582
 9042TIP3    H248618   4.443   4.285   5.485  2.4353 -0.9417  1.4600
 9043TIP3   OH248619   4.814   4.712   5.234  0.3385  0.0407  0.1092
 9043TIP3    H148620   4.893   4.659   5.248  0.7353  0.0474 -1.8896
 9043TIP3    H248621   4.765   4.663   5.168  0.6257  2.0335 -1.6405
 9044TIP3   OH248622   1.579   1.584  14.704 -0.0160  0.2571  0.0878
 9044TIP3    H148623   1.588   1.525  14.778 -1.2458 -0.1626 -0.0859
 9044TIP3    H248624   1.668   1.604  14.678  0.4584 -3.6046 -1.5259
 9045TIP3   OH248625   4.057   6.578   0.207  0.2488 -0.6269 -0.3320
 9045TIP3    H148626   4.126   6.576   0.141  0.9922 -0.1319  0.4184
 9045TIP3    H248627   3.992   6.639   0.171  1.7891  1.5598  0.4758
 9046TIP3   OH248628   3.100   5.290   1.061  0.1404 -0.2777  0.0857
 9046TIP3    H148629   3.094   5.196   1.043  1.4294 -0.6545  1.5357
 9046TIP3    H248630   3.024   5.308   1.117 -0.7734 -0.1930 -1.1466
 9047TIP3   OH248631   3.493   0.671   5.939  0.2497  0.0518 -0.1593
 9047TIP3    H148632   3.568   0.728   5.953 -0.0668  0.3363  0.3899
 9047TIP3    H248633   3.530   0.583   5.937  0.4438  0.0673  1.5220
 9048TIP3   OH248634   2.693   1.990  15.950 -0.0002 -0.1517 -0.1954
 9048TIP3    H148635   2.641   1.994  16.030  1.2369 -1.2668  0.6828
 9048TIP3    H248636   2.776   1.951  15.977  0.7105  0.1497 -1.8818
 9049TIP3   OH248637   5.091   2.510   3.045 -0.1070  0.2644 -0.5634
 9049TIP3    H148638   5.004   2.474   3.065  0.0813  0.0736 -0.0622
 9049TIP3    H248639   5.134   2.515   3.130  0.0052  1.3450 -0.6814
 9050TIP3   OH248640   6.570   1.264  14.158  0.7392 -0.4366  0.5234
 9050TIP3    H148641   6.586   1.339  14.214 -0.5777 -1.0022  1.6781
 9050TIP3    H248642   6.502   1.293  14.097 -1.5431 -1.4042  2.5167
 9051TIP3   OH248643   2.556   2.965   2.710 -0.3060  1.0604  0.4122
 9051TIP3    H148644   2.542   2.958   2.616  4.6149 -0.0862 -0.3597
 9051TIP3    H248645   2.507   2.892   2.747 -0.6467  0.3256 -1.4503
 9052TIP3   OH248646   0.037   1.591  12.030  0.6423 -0.3950 -0.3605
 9052TIP3    H148647   0.064   1.518  12.085 -1.0387 -1.3214 -0.7412
 9052TIP3    H248648  -0.058   1.595  12.041  0.7100  1.7348 -0.3458
 9053TIP3   OH248649   6.350   1.491   5.513 -0.7123 -0.4368  0.0281
 9053TIP3    H148650   6.272   1.434   5.510 -1.6509  0.7258  2.0507
 9053TIP3    H248651   6.323   1.567   5.563  1.5667  0.2926  0.2023
 9054TIP3   OH248652   0.083   1.100  12.362 -0.0166  0.5821 -0.3113
 9054TIP3    H148653  -0.010   1.080  12.352 -0.1740  0.8109  0.6528
 9054TIP3    H248654   0.091   1.192  12.335 -0.3754  1.0849  1.2468
 9055TIP3   OH248655   0.296   0.753  17.185 -0.0014  0.1758 -0.4288
 9055TIP3    H148656   0.306   0.804  17.104 -1.1042  0.3618 -0.4528
 9055TIP3    H248657   0.245   0.677  17.159 -1.0213  0.6148  0.2380
 9056TIP3   OH248658   4.530   4.870  16.256 -0.1950  0.2814  0.0972
 9056TIP3    H148659   4.537   4.811  16.181  0.5185  0.2974  0.1479
 9056TIP3    H248660   4.600   4.843  16.315 -0.9261  0.0927  0.8872
 9057TIP3   OH248661   5.391   2.448   1.580 -0.2402  0.5081  0.3346
 9057TIP3    H148662   5.315   2.391   1.594  0.0952  0.3876  1.6963
 9057TIP3    H248663   5.368   2.499   1.502 -1.7968  0.6192  0.8541
 9058TIP3   OH248664   4.731   5.970   5.218  1.0870  0.0195 -0.1763
 9058TIP3    H148665   4.759   6.060   5.205  0.1005  0.2414 -0.8766
 9058TIP3    H248666   4.808   5.917   5.197  1.9438  0.7251  1.1343
 9059TIP3   OH248667   5.663   2.659  12.202  0.8436  0.0574  0.7904
 9059TIP3    H148668   5.658   2.754  12.208 -0.5443 -0.0475  1.4348
 9059TIP3    H248669   5.709   2.642  12.120  0.7665  1.2696  0.5005
 9060TIP3   OH248670   2.912   3.997  15.032  0.3554  0.1627  0.3943
 9060TIP3    H148671   3.006   3.979  15.021  0.3140  1.0728 -1.5521
 9060TIP3    H248672   2.870   3.913  15.016  0.8140 -0.2076  1.0774
 9061TIP3   OH248673   1.254   2.686   2.117 -0.7942  0.1487  0.5630
 9061TIP3    H148674   1.160   2.672   2.110 -0.8589  0.9026 -0.1712
 9061TIP3    H248675   1.263   2.745   2.192 -0.9234  0.2276  0.5176
 9062TIP3   OH248676   0.353   1.876   2.982  0.4390  0.5781  0.3747
 9062TIP3    H148677   0.357   1.781   2.990  1.5523  0.7118  1.4845
 9062TIP3    H248678   0.361   1.908   3.072  0.0910  1.7217  0.0057
 9063TIP3   OH248679   1.164   6.552  15.538 -0.2878 -0.6137 -0.8256
 9063TIP3    H148680   1.172   6.561  15.443  0.0177  2.1318 -0.5687
 9063TIP3    H248681   1.254   6.554  15.570 -0.5161  1.2134 -0.2702
 9064TIP3   OH248682   3.209   2.555  11.849  0.4592 -0.6314  0.4912
 9064TIP3    H148683   3.275   2.525  11.911 -0.4408 -0.1382  1.7047
 9064TIP3    H248684   3.218   2.496  11.774  2.6463 -0.2142  0.3946
 9065TIP3   OH248685   3.958   5.159  14.198 -0.1778 -0.8303  0.1435
 9065TIP3    H148686   4.027   5.199  14.251 -0.6495  0.6348 -0.3319
 9065TIP3    H248687   3.898   5.121  14.262  0.4550 -1.0959  0.5916
 9066TIP3   OH248688   4.478   6.123  14.214  0.1195  0.0787 -0.4098
 9066TIP3    H148689   4.492   6.193  14.278  0.6187 -0.5720  0.2082
 9066TIP3    H248690   4.431   6.056  14.263 -0.9904  0.2871 -1.1975
 9067TIP3   OH248691   2.288   6.779  15.443 -0.0398 -0.1489 -0.0863
 9067TIP3    H148692   2.279   6.697  15.492 -0.4078 -1.0843 -1.6762
 9067TIP3    H248693   2.199   6.815  15.440 -0.2491 -0.7239 -1.1058
 9068TIP3   OH248694   0.413   3.795  17.101 -0.6531  0.1274  0.5516
 9068TIP3    H148695   0.438   3.703  17.088 -0.8690  0.2718 -0.9670
 9068TIP3    H248696   0.320   3.791  17.122 -1.3446  0.1778 -2.3735
 9069TIP3   OH248697   0.920   5.489  16.310  0.3888 -0.3246 -0.3953
 9069TIP3    H148698   0.845   5.539  16.279  0.0138  0.4587  1.6999
 9069TIP3    H248699   0.922   5.411  16.255 -0.6868  0.6679 -1.8517
 9070TIP3   OH248700   4.284   2.128   1.367  0.2281 -0.3992  0.5487
 9070TIP3    H148701   4.354   2.119   1.302  2.5970  0.7125  2.8447
 9070TIP3    H248702   4.214   2.174   1.320  2.7114  2.3417 -0.6997
 9071TIP3   OH248703   2.971   6.600  10.971 -0.0108 -0.1718 -0.5250
 9071TIP3    H148704   2.879   6.578  10.957 -0.3354  0.8480 -0.0544
 9071TIP3    H248705   2.987   6.671  10.909  0.8111 -1.1792 -1.4869
 9072TIP3   OH248706   4.280   5.640   4.938 -0.1357 -0.1682 -0.3085
 9072TIP3    H148707   4.316   5.728   4.927 -0.4054 -0.1229 -0.8609
 9072TIP3    H248708   4.198   5.641   4.889 -0.5851 -0.4606  0.4388
 9073TIP3   OH248709   1.288   4.556   0.505 -1.5213 -0.3031 -0.2672
 9073TIP3    H148710   1.350   4.484   0.497 -0.6799  0.4744 -0.8603
 9073TIP3    H248711   1.258   4.553   0.596  0.7380  0.4214  0.5280
 9074TIP3   OH248712   4.850   1.255   5.143  0.4416  0.4248  0.4090
 9074TIP3    H148713   4.891   1.310   5.076  0.7569 -1.0497 -0.6133
 9074TIP3    H248714   4.759   1.245   5.114  0.3310  0.5427  0.7023
 9075TIP3   OH248715   5.607   5.774  12.127 -0.2775 -0.1927  0.1526
 9075TIP3    H148716   5.616   5.832  12.203 -0.3408 -0.6946  0.5478
 9075TIP3    H248717   5.643   5.824  12.054  0.0638  0.1740  0.5700
 9076TIP3   OH248718   1.126   6.459  13.038  0.6675  0.3984  0.1115
 9076TIP3    H148719   1.071   6.466  12.959  0.6027  1.9219  0.2796
 9076TIP3    H248720   1.212   6.434  13.004  0.3677 -0.0189 -0.3490
 9077TIP3   OH248721   5.115   1.727  11.424  0.1596 -0.1595  0.4414
 9077TIP3    H148722   5.201   1.711  11.384  0.4321  1.2790  0.4289
 9077TIP3    H248723   5.066   1.647  11.406  1.2422 -0.6973 -0.2300
 9078TIP3   OH248724   0.753   1.695  14.605 -0.1293  0.2792 -0.7959
 9078TIP3    H148725   0.754   1.601  14.591 -1.7260  0.1322 -0.0147
 9078TIP3    H248726   0.839   1.716  14.641 -0.1085 -1.0048 -0.1051
 9079TIP3   OH248727   5.886   4.089  14.488 -0.1319 -0.0785  1.0317
 9079TIP3    H148728   5.903   4.178  14.460 -0.3292 -0.4066 -0.1497
 9079TIP3    H248729   5.973   4.048  14.492 -0.2193 -0.4429 -0.5284
 9080TIP3   OH248730   4.096   1.339  15.109 -0.0951 -0.5541 -0.4860
 9080TIP3    H148731   4.022   1.332  15.048 -1.1101  1.0262  0.5393
 9080TIP3    H248732   4.068   1.402  15.174  1.6220 -1.0141  0.7392
 9081TIP3   OH248733   1.204   0.060   2.858 -0.6653  0.4791 -0.4491
 9081TIP3    H148734   1.127   0.014   2.825 -0.9626  1.1676 -0.7089
 9081TIP3    H248735   1.196   0.056   2.953 -0.1761 -0.8799 -0.4462
 9082TIP3   OH248736   3.982   1.264  14.320 -0.0509  0.5141 -0.5407
 9082TIP3    H148737   3.973   1.308  14.405  0.0959 -1.8638  0.7392
 9082TIP3    H248738   3.962   1.173  14.339  1.4912 -0.3040 -2.7912
 9083TIP3   OH248739   3.243   5.031   1.283  0.0597  0.0945  0.0648
 9083TIP3    H148740   3.150   5.012   1.294  0.0113  1.2998  2.1875
 9083TIP3    H248741   3.287   4.949   1.305 -0.5152 -0.6803 -1.6164
 9084TIP3   OH248742   5.689   5.462  12.764 -0.3563  0.4159 -0.0213
 9084TIP3    H148743   5.678   5.524  12.692 -1.4597 -0.2057 -0.4089
 9084TIP3    H248744   5.738   5.510  12.830  1.9157  0.5642 -1.7445
 9085TIP3   OH248745   1.637   5.134   5.029  0.0764 -0.2556 -0.1197
 9085TIP3    H148746   1.692   5.107   4.956  1.2742 -0.3000  0.7887
 9085TIP3    H248747   1.550   5.102   5.006  0.3156  0.2337 -1.7910
 9086TIP3   OH248748   0.930   0.549   0.066  0.2000 -0.2623 -0.5748
 9086TIP3    H148749   0.922   0.482   0.135 -0.8836  0.3336 -0.1122
 9086TIP3    H248750   0.851   0.602   0.075  1.1177  1.1676 -0.8528
 9087TIP3   OH248751   6.766   3.776  13.872 -0.2230 -0.1990  0.2474
 9087TIP3    H148752   6.700   3.844  13.865  0.1698  0.0122 -1.7746
 9087TIP3    H248753   6.843   3.821  13.907 -0.7960 -0.2123  1.5476
 9088TIP3   OH248754   0.075   6.501  16.265 -0.5606 -0.2145  0.0156
 9088TIP3    H148755   0.143   6.507  16.333 -0.2412  0.2244 -0.3339
 9088TIP3    H248756   0.102   6.565  16.199 -0.6129 -0.9692 -0.7523
 9089TIP3   OH248757   4.596   2.228  14.633  0.1159 -0.0864  0.8362
 9089TIP3    H148758   4.640   2.236  14.549  0.9480  0.8551  1.3431
 9089TIP3    H248759   4.632   2.299  14.686 -0.4669 -0.6015  1.9531
 9090TIP3   OH248760   4.513   5.134  16.869  0.2795  0.1860  0.7674
 9090TIP3    H148761   4.462   5.071  16.818  0.7865  0.1780  0.2612
 9090TIP3    H248762   4.604   5.107  16.856  0.4095  0.0228  1.8924
 9091TIP3   OH248763   5.480   5.467   1.292  0.4667 -0.1925 -0.0690
 9091TIP3    H148764   5.503   5.379   1.322  0.7779  0.0073  0.2688
 9091TIP3    H248765   5.391   5.456   1.256  0.1449 -0.4598  0.7871
 9092TIP3   OH248766   2.660   3.286  10.768 -0.6069 -0.1332  0.5096
 9092TIP3    H148767   2.690   3.201  10.800  2.1398  0.9574  0.9552
 9092TIP3    H248768   2.636   3.270  10.676 -1.4218 -1.6391  0.9569
 9093TIP3   OH248769   0.170   3.227  12.667 -0.9922 -0.4434  0.2048
 9093TIP3    H148770   0.171   3.149  12.723 -1.2725 -1.5071 -1.2289
 9093TIP3    H248771   0.078   3.238  12.642 -1.0078  0.5688  0.6780
 9094TIP3   OH248772   5.831   1.195  15.325 -0.6438 -0.2174  0.4555
 9094TIP3    H148773   5.816   1.197  15.231  3.3843 -0.9247 -0.2494
 9094TIP3    H248774   5.855   1.105  15.344  0.6959  0.4205  1.8161
 9095TIP3   OH248775   0.581   0.708   3.429  0.6478  0.5322  0.0885
 9095TIP3    H148776   0.631   0.627   3.429 -0.3662 -0.1038 -0.3573
 9095TIP3    H248777   0.641   0.774   3.464  1.0135 -0.6986  1.8060
 9096TIP3   OH248778   0.050   3.027   0.233  0.2538 -0.2268  0.0326
 9096TIP3    H148779   0.098   3.097   0.278 -0.3250 -0.0176  0.3231
 9096TIP3    H248780   0.044   2.957   0.298  1.8073 -0.9939 -0.6161
 9097TIP3   OH248781   1.376   5.248   1.030 -0.0739  0.0446  0.3866
 9097TIP3    H148782   1.415   5.199   1.102  2.1938  0.1541 -0.7114
 9097TIP3    H248783   1.346   5.330   1.070  2.1391  0.5722  1.0443
 9098TIP3   OH248784   4.580   0.331  16.605  0.2693  0.0083  0.3589
 9098TIP3    H148785   4.575   0.285  16.522 -0.3340  1.4523 -0.4150
 9098TIP3    H248786   4.566   0.263  16.671 -1.0078 -0.8410 -0.7658
 9099TIP3   OH248787   6.004   5.970   4.993  0.2700 -0.1347 -0.1008
 9099TIP3    H148788   6.040   6.047   5.036  0.9576 -0.2751 -0.4167
 9099TIP3    H248789   6.045   5.895   5.037  0.5397 -0.2887 -0.5990
 9100TIP3   OH248790   4.581   4.577  14.105 -0.0950  0.3858 -0.3891
 9100TIP3    H148791   4.589   4.663  14.062  0.6862  0.5693  0.1248
 9100TIP3    H248792   4.552   4.597  14.194 -0.8379  0.0538 -0.5483
 9101TIP3   OH248793   0.847   2.578   0.074  0.0613  0.3581 -0.4176
 9101TIP3    H148794   0.901   2.523   0.130 -0.9562 -1.1101 -0.8480
 9101TIP3    H248795   0.781   2.614   0.132 -1.5075 -1.8360 -0.7844
 9102TIP3   OH248796   3.115   4.074  17.144 -0.4190 -0.3051  0.2827
 9102TIP3    H148797   3.199   4.112  17.118  0.2986 -1.3026  1.1050
 9102TIP3    H248798   3.132   4.037  17.231 -1.9420  0.2360  0.8169
 9103TIP3   OH248799   5.492   4.468  17.232  0.6923 -0.0092 -0.2447
 9103TIP3    H148800   5.458   4.558  17.229  1.1353  0.1522 -0.3948
 9103TIP3    H248801   5.563   4.471  17.296  2.2381  0.2669 -1.9348
 9104TIP3   OH248802   6.294   2.634  11.987 -0.2133 -0.1010  0.0711
 9104TIP3    H148803   6.312   2.726  12.005  2.5658 -0.5314 -0.2803
 9104TIP3    H248804   6.306   2.590  12.072 -0.6920 -0.2696  0.0541
 9105TIP3   OH248805   1.849   1.970  16.355  0.7640  0.4194  0.0480
 9105TIP3    H148806   1.908   1.895  16.367  0.6767  0.4466  0.6801
 9105TIP3    H248807   1.897   2.029  16.297  0.6989 -0.2722 -0.7087
 9106TIP3   OH248808   4.191   1.736  14.874 -0.2352  0.0055  0.1334
 9106TIP3    H148809   4.218   1.828  14.875  0.9456 -0.2662 -2.1701
 9106TIP3    H248810   4.097   1.738  14.889 -0.1669  1.5672  0.4561
 9107TIP3   OH248811   3.515   4.125   0.807 -0.4272 -0.5670  0.0542
 9107TIP3    H148812   3.434   4.173   0.789  0.7353  1.7374  0.8214
 9107TIP3    H248813   3.490   4.059   0.872 -2.0246 -0.9837 -0.9524
 9108TIP3   OH248814   6.485   0.815   1.238  0.2096  0.1740  0.8560
 9108TIP3    H148815   6.472   0.726   1.272  1.7745 -0.2671  0.3499
 9108TIP3    H248816   6.498   0.869   1.316  0.9187 -0.3435  1.1054
 9109TIP3   OH248817   4.006   2.167   4.123  0.1956 -0.1314 -0.5583
 9109TIP3    H148818   4.045   2.228   4.060  1.4666  0.5788  0.8648
 9109TIP3    H248819   4.029   2.080   4.089  3.4305  0.2734  0.4311
 9110TIP3   OH248820   3.646   3.170  11.409 -0.3518  0.4051 -0.4363
 9110TIP3    H148821   3.556   3.139  11.416 -0.2673  0.0682 -0.7881
 9110TIP3    H248822   3.665   3.209  11.495 -1.2346  1.6202 -0.7854
 9111TIP3   OH248823   1.071   3.070  15.236  0.5320  0.7740  0.3477
 9111TIP3    H148824   1.042   3.153  15.276  1.3679  1.3254 -0.1698
 9111TIP3    H248825   1.040   3.075  15.146  0.0313  0.2317  0.4863
 9112TIP3   OH248826   0.149   6.509   0.874  0.7474  0.5325 -0.4003
 9112TIP3    H148827   0.217   6.575   0.861 -0.6082  1.4568 -3.0242
 9112TIP3    H248828   0.180   6.433   0.826  0.5046  0.5282 -0.5475
 9113TIP3   OH248829   2.725   2.991   4.206  0.0715 -0.4101 -0.6224
 9113TIP3    H148830   2.759   3.008   4.118 -1.2311  0.9636 -0.8856
 9113TIP3    H248831   2.694   3.076   4.236 -1.7956 -1.3403  0.1600
 9114TIP3   OH248832   6.368   1.931  12.438 -0.3282 -0.1012 -0.3991
 9114TIP3    H148833   6.417   1.965  12.512  0.3527 -1.9066  0.0078
 9114TIP3    H248834   6.339   2.009  12.390 -0.8893  1.0897  1.8088
 9115TIP3   OH248835   4.175   4.151   2.511  0.2504  0.4666  0.4359
 9115TIP3    H148836   4.143   4.182   2.426  1.2411 -0.2095 -0.1910
 9115TIP3    H248837   4.202   4.061   2.495  1.3204  0.6338  1.2389
 9116TIP3   OH248838   3.604   0.270  12.814  0.3121 -0.3962 -0.9744
 9116TIP3    H148839   3.574   0.314  12.735  1.0715  2.7157  0.3767
 9116TIP3    H248840   3.698   0.287  12.817 -0.0377  1.4909  1.6744
 9117TIP3   OH248841   4.069   6.240  13.591  0.4308 -0.7459 -0.0203
 9117TIP3    H148842   4.056   6.332  13.569  1.3345 -0.1706  1.7524
 9117TIP3    H248843   3.997   6.219  13.652 -0.0761 -1.3661 -0.8200
 9118TIP3   OH248844   2.951   3.275   3.772  0.1782  0.3291 -0.1797
 9118TIP3    H148845   2.986   3.364   3.777  0.9335  0.0480 -0.2808
 9118TIP3    H248846   2.860   3.286   3.745  0.4652  1.0391 -0.9033
 9119TIP3   OH248847   6.797   5.109  13.886 -0.7211 -0.6239  0.2958
 9119TIP3    H148848   6.792   5.157  13.969 -0.7759 -1.8292  0.9918
 9119TIP3    H248849   6.714   5.130  13.842 -0.6739  0.0482  0.5153
 9120TIP3   OH248850   0.117   2.195  15.007  0.3093 -0.0852  0.0067
 9120TIP3    H148851   0.077   2.192  14.920  1.8312  2.4158 -0.8432
 9120TIP3    H248852   0.044   2.181  15.067 -0.7060 -2.2610 -1.6525
 9121TIP3   OH248853   1.065   4.990   0.420 -0.2429 -0.3410  0.1592
 9121TIP3    H148854   1.022   5.076   0.418  2.5748  1.1701  1.2446
 9121TIP3    H248855   1.000   4.932   0.461 -1.1831  1.8903  1.9441
 9122TIP3   OH248856   4.085   5.100   0.769 -0.7123 -0.1698 -0.2148
 9122TIP3    H148857   4.043   5.014   0.775 -2.1593  0.6452  1.5809
 9122TIP3    H248858   4.133   5.109   0.851  0.9612 -0.0142 -1.1776
 9123TIP3   OH248859   5.884   5.987  15.443 -0.3159 -0.0488 -0.3958
 9123TIP3    H148860   5.794   5.994  15.411 -1.1963 -0.9207  1.7834
 9123TIP3    H248861   5.914   6.077  15.449 -0.9352  0.2377 -1.4029
 9124TIP3   OH248862   2.574   4.896   4.582 -0.2820  0.1420  0.4475
 9124TIP3    H148863   2.489   4.889   4.624 -0.4611 -0.8061 -0.0515
 9124TIP3    H248864   2.581   4.987   4.554 -1.0000  0.2882  0.7527
 9125TIP3   OH248865   4.494   5.566   3.710  0.6652  0.0583  0.3105
 9125TIP3    H148866   4.555   5.493   3.721 -0.3466 -0.7165  0.8066
 9125TIP3    H248867   4.499   5.587   3.617  1.2226 -0.4008  0.2320
 9126TIP3   OH248868   1.203   5.744  14.364  0.6090  0.0597 -0.5273
 9126TIP3    H148869   1.218   5.779  14.276 -1.5310 -0.5044 -1.1356
 9126TIP3    H248870   1.116   5.776  14.388  0.4890 -1.1832  0.7126
 9127TIP3   OH248871   6.495   2.655   4.524  0.9084  0.4660  0.4761
 9127TIP3    H148872   6.479   2.749   4.516  1.5861  0.5486  0.0787
 9127TIP3    H248873   6.534   2.646   4.611  0.1305  0.4508  0.8312
 9128TIP3   OH248874   4.994   4.986   0.876  0.6072 -0.6313  0.8596
 9128TIP3    H148875   4.987   4.905   0.826 -1.3379 -0.4532  0.8358
 9128TIP3    H248876   5.023   4.959   0.963 -0.7841 -1.4181  1.0782
 9129TIP3   OH248877   5.224   1.087   1.467  0.3093 -0.0605 -0.6270
 9129TIP3    H148878   5.246   1.148   1.536  0.0404  0.7644 -1.2548
 9129TIP3    H248879   5.307   1.049   1.440  0.5887  0.7065 -0.8525
 9130TIP3   OH248880   0.696   2.460  11.262 -0.5066  0.0934  0.4417
 9130TIP3    H148881   0.738   2.378  11.290  0.3490  0.4194  0.1378
 9130TIP3    H248882   0.603   2.439  11.258 -0.2663 -0.9400  0.1233
 9131TIP3   OH248883   6.787   2.072   5.930  0.7441 -0.6182  0.4620
 9131TIP3    H148884   6.830   2.155   5.913 -1.1136  0.7187  2.0923
 9131TIP3    H248885   6.787   2.027   5.846  1.1334  1.3295 -0.5971
 9132TIP3   OH248886   5.007   2.686  15.919 -0.1774  0.2356  0.1339
 9132TIP3    H148887   5.021   2.631  15.996 -0.8408  1.7473  1.3620
 9132TIP3    H248888   5.037   2.773  15.945 -0.4894  0.7926 -1.2867
 9133TIP3   OH248889   1.301   2.623  13.867 -0.1051 -0.3225 -0.4330
 9133TIP3    H148890   1.255   2.573  13.799 -2.4362  2.3453 -0.9212
 9133TIP3    H248891   1.291   2.714  13.840 -0.0044  0.7275  2.8725
 9134TIP3   OH248892   0.831   2.475  11.773 -0.3336 -0.1076 -0.1630
 9134TIP3    H148893   0.818   2.409  11.706 -0.3645 -1.9869  1.6308
 9134TIP3    H248894   0.919   2.509  11.758  0.4612 -2.0254  0.1381
 9135TIP3   OH248895   0.128   0.525  11.791  0.3098 -0.0375 -0.3419
 9135TIP3    H148896   0.115   0.599  11.850 -1.5944  0.1611 -0.9557
 9135TIP3    H248897   0.139   0.450  11.849  1.9710  0.6747  0.2816
 9136TIP3   OH248898   3.385   1.021  13.351 -0.4565 -0.4793 -0.2548
 9136TIP3    H148899   3.428   1.062  13.425 -0.1332 -0.9988 -0.1536
 9136TIP3    H248900   3.425   1.062  13.274 -1.1388  0.4091 -0.1386
 9137TIP3   OH248901   2.617   5.919   4.704 -0.1377 -0.4409  0.2172
 9137TIP3    H148902   2.605   5.828   4.730 -1.2183 -0.4345 -0.2069
 9137TIP3    H248903   2.640   5.914   4.611  0.9422 -0.3351  0.4765
 9138TIP3   OH248904   6.762   1.330   0.269 -0.5019 -0.1610 -0.2614
 9138TIP3    H148905   6.713   1.345   0.188  1.2552  1.1647 -1.1333
 9138TIP3    H248906   6.765   1.235   0.278 -0.9605 -0.3199 -1.6100
 9139TIP3   OH248907   6.370   1.966  15.932  0.3455  0.6153 -0.1104
 9139TIP3    H148908   6.317   1.918  15.996  0.4971  0.1423 -0.3425
 9139TIP3    H248909   6.399   2.044  15.980 -0.1788  0.6484  0.1606
 9140TIP3   OH248910   6.331   6.428   6.346  0.3125 -0.0446  0.3997
 9140TIP3    H148911   6.326   6.398   6.437 -1.4889  3.4949  1.5671
 9140TIP3    H248912   6.385   6.507   6.350 -0.5181  0.6530 -1.4624
 9141TIP3   OH248913   3.140   1.855   4.967 -0.1325  0.4552 -0.3031
 9141TIP3    H148914   3.122   1.816   4.882  3.1758 -1.4347 -0.2156
 9141TIP3    H248915   3.085   1.806   5.028 -0.3348 -0.1508 -0.9741
 9142TIP3   OH248916   5.838   6.504   2.033 -0.0665  0.1233 -0.6161
 9142TIP3    H148917   5.848   6.416   1.998 -0.0824  0.3795 -1.2714
 9142TIP3    H248918   5.850   6.494   2.127 -0.2421 -0.6040 -0.6717
 9143TIP3   OH248919   6.511   6.063  17.165  0.0317 -1.0278  0.3440
 9143TIP3    H148920   6.540   6.013  17.241  1.5935 -1.9495 -0.8288
 9143TIP3    H248921   6.588   6.112  17.137 -0.9819  0.6248  0.3599
 9144TIP3   OH248922   2.286   4.158  13.193 -0.1271 -0.8072  0.6314
 9144TIP3    H148923   2.258   4.072  13.223 -2.8119  0.2807  1.3775
 9144TIP3    H248924   2.205   4.208  13.184  1.2150  1.1038 -1.5392
 9145TIP3   OH248925   4.205   0.393   1.857  0.2136  0.0168  0.6215
 9145TIP3    H148926   4.179   0.471   1.907 -0.5047  1.4992 -1.9901
 9145TIP3    H248927   4.292   0.371   1.891 -0.2175  1.0093  2.4739
 9146TIP3   OH248928   2.959   1.159   4.320 -0.3397  0.5984  0.0948
 9146TIP3    H148929   2.929   1.092   4.382  1.4547 -1.1623 -0.8758
 9146TIP3    H248930   2.878   1.194   4.282 -1.3439 -0.3805  1.2758
 9147TIP3   OH248931   5.898   2.041  12.630 -0.3515 -0.3874  0.1575
 9147TIP3    H148932   5.913   1.947  12.637  0.7778 -0.1842  0.6135
 9147TIP3    H248933   5.809   2.049  12.595  0.5600 -1.6492 -2.5576
 9148TIP3   OH248934   6.121   5.808   5.394  0.1525 -0.6663  0.3332
 9148TIP3    H148935   6.040   5.817   5.444 -1.4310 -2.2248 -1.8792
 9148TIP3    H248936   6.135   5.714   5.386  0.3993 -0.4701 -2.0416
 9149TIP3   OH248937   2.976   0.163  11.233 -0.7231 -0.1435  0.2618
 9149TIP3    H148938   2.961   0.252  11.264 -1.9441 -0.8076  1.6758
 9149TIP3    H248939   3.047   0.171  11.169  0.3869  1.6021  1.6469
 9150TIP3   OH248940   2.538   1.772  15.182 -0.4413  0.0434  0.0043
 9150TIP3    H148941   2.552   1.807  15.270  0.0408  0.1483 -0.1096
 9150TIP3    H248942   2.610   1.808  15.131  0.0321 -1.0625 -0.1354
 9151TIP3   OH248943   3.664   1.150  13.438  0.7078  0.1594  0.4249
 9151TIP3    H148944   3.657   1.239  13.403  1.8259 -0.0378 -0.3038
 9151TIP3    H248945   3.757   1.128  13.431  0.5057 -0.9066  0.9938
 9152TIP3   OH248946   6.221   6.654  16.437 -0.2103 -0.2118  0.5543
 9152TIP3    H148947   6.311   6.643  16.466 -0.0041 -0.7323 -0.2665
 9152TIP3    H248948   6.228   6.672  16.343 -0.9873 -0.7591  0.3915
 9153TIP3   OH248949   0.371   1.459  12.996 -0.4663  0.0290  0.0345
 9153TIP3    H148950   0.434   1.393  13.025 -0.9419 -0.2614  0.4032
 9153TIP3    H248951   0.398   1.539  13.042  0.0326  0.0664 -0.3172
 9154TIP3   OH248952   6.084   5.313   2.199 -0.3116 -0.1022  0.5601
 9154TIP3    H148953   6.076   5.253   2.125  0.5747  0.8907 -0.3724
 9154TIP3    H248954   6.088   5.400   2.158 -1.6475  0.6093  1.8722
 9155TIP3   OH248955   0.585   1.561   2.301 -0.4410 -0.2497  0.1283
 9155TIP3    H148956   0.571   1.490   2.364  1.2740 -0.7934 -0.0732
 9155TIP3    H248957   0.576   1.641   2.353 -0.9260 -0.6357  0.6593
 9156TIP3   OH248958   6.755   1.068  13.648 -0.0040 -0.1877  0.0371
 9156TIP3    H148959   6.692   1.080  13.719 -0.3782  0.1665 -0.3588
 9156TIP3    H248960   6.740   0.978  13.618 -0.6775  0.0732 -0.4067
 9157TIP3   OH248961   2.600   0.753  12.895 -0.9925 -0.5278 -0.2867
 9157TIP3    H148962   2.659   0.813  12.850 -0.7379 -0.2442  0.4130
 9157TIP3    H248963   2.598   0.675  12.839 -0.0830 -0.4743 -0.3984
 9158TIP3   OH248964   2.395   5.999  15.493  0.2671  0.3334 -0.6185
 9158TIP3    H148965   2.442   5.953  15.564  0.4304  1.0863 -0.2327
 9158TIP3    H248966   2.334   5.934  15.459  0.8667 -0.3403 -0.4302
 9159TIP3   OH248967   5.170   5.700  11.658  0.1649  0.1881  0.7872
 9159TIP3    H148968   5.183   5.688  11.564  1.6731 -0.9300  1.1224
 9159TIP3    H248969   5.176   5.795  11.671  1.6789  0.2046 -0.0048
 9160TIP3   OH248970   4.575   2.880   5.244  0.5251  0.1733  0.1027
 9160TIP3    H148971   4.612   2.862   5.158  1.4394 -2.5381  1.0211
 9160TIP3    H248972   4.650   2.905   5.298  0.1440  0.6277  0.4224
 9161TIP3   OH248973   4.312   5.590  16.281  0.4556  0.2655  0.2334
 9161TIP3    H148974   4.216   5.593  16.279  0.4737  0.7368  0.1301
 9161TIP3    H248975   4.333   5.542  16.361  0.1682  1.7092  1.1927
 9162TIP3   OH248976   4.597   1.333  12.254  0.1177 -0.0304  0.2151
 9162TIP3    H148977   4.672   1.378  12.214  0.6150 -1.4380 -0.5091
 9162TIP3    H248978   4.573   1.267  12.189 -0.5380 -0.8403  1.2749
 9163TIP3   OH248979   6.415   6.358  15.561 -0.4564  0.4492  0.1334
 9163TIP3    H148980   6.448   6.397  15.642  0.4312 -0.2685  0.1226
 9163TIP3    H248981   6.467   6.279  15.549 -2.5500 -1.0144  0.4084
 9164TIP3   OH248982   4.090   6.580  13.566  0.2967 -0.0161  0.0465
 9164TIP3    H148983   4.041   6.661  13.559 -2.1203 -1.4702 -0.2598
 9164TIP3    H248984   4.169   6.595  13.513 -0.5969  1.7543 -0.8274
 9165TIP3   OH248985   3.291   6.509  13.574 -0.0141  0.7959 -0.0818
 9165TIP3    H148986   3.197   6.521  13.586 -0.1911 -0.3180 -0.3077
 9165TIP3    H248987   3.304   6.414  13.580  1.3222  1.0492  1.5861
 9166TIP3   OH248988   5.288   2.454  13.255  0.1832  0.0224 -0.0863
 9166TIP3    H148989   5.247   2.368  13.247 -0.7487  0.2606  1.9772
 9166TIP3    H248990   5.263   2.486  13.342  1.2510  1.9999 -0.4571
 9167TIP3   OH248991   2.244   3.343   1.300  0.6050  0.1210 -0.0447
 9167TIP3    H148992   2.309   3.319   1.234  0.0769 -1.6389  0.0711
 9167TIP3    H248993   2.169   3.287   1.282 -0.0647  0.6027  1.2030
 9168TIP3   OH248994   4.240   2.017  14.855  0.0339 -0.1249  0.1502
 9168TIP3    H148995   4.262   2.066  14.777 -0.3382  1.5782  1.0967
 9168TIP3    H248996   4.187   2.077  14.908  0.6767 -1.0612  1.9187
 9169TIP3   OH248997   3.630   6.237   3.863  0.2962 -0.1040 -0.0285
 9169TIP3    H148998   3.575   6.160   3.878 -0.1514 -0.1008 -1.5099
 9169TIP3    H248999   3.619   6.290   3.942 -0.9514 -0.6442  0.1808
 9170TIP3   OH249000   3.705   2.582   6.139  0.3899  0.3732 -0.3560
 9170TIP3    H149001   3.788   2.565   6.183 -0.7851  0.8229  2.1201
 9170TIP3    H249002   3.645   2.517   6.176 -0.9680  1.6255 -0.3373
 9171TIP3   OH249003   1.622   2.422  13.241 -0.3975  0.4633  0.1249
 9171TIP3    H149004   1.600   2.373  13.163 -0.9010  0.6658  0.1398
 9171TIP3    H249005   1.690   2.484  13.212 -0.8601  0.8029 -0.2438
 9172TIP3   OH249006   1.852   2.905  10.803 -0.1844 -0.7616  0.1780
 9172TIP3    H149007   1.855   2.989  10.850 -3.8282 -0.7122  0.4909
 9172TIP3    H249008   1.912   2.916  10.730  1.1780  1.2679  1.5449
 9173TIP3   OH249009   2.027   3.932   0.847 -0.0934 -0.5235  0.5508
 9173TIP3    H149010   1.934   3.914   0.837 -0.1376  0.4993 -1.0895
 9173TIP3    H249011   2.031   4.000   0.914 -0.6928  0.9136 -0.8477
 9174TIP3   OH249012   4.232   0.082   4.448  0.0783 -0.5218 -0.0551
 9174TIP3    H149013   4.217   0.137   4.371  1.3642 -0.7569 -0.4951
 9174TIP3    H249014   4.206   0.136   4.522  0.0054  0.1588 -0.5752
 9175TIP3   OH249015   0.585   1.903  10.535 -0.7980  0.7030  0.2211
 9175TIP3    H149016   0.529   1.976  10.564 -1.0510  1.0828 -1.1939
 9175TIP3    H249017   0.633   1.938  10.460 -0.8548 -0.5690 -0.4110
 9176TIP3   OH249018   0.206   0.621   1.531  0.4321 -0.5674 -0.1500
 9176TIP3    H149019   0.293   0.584   1.517  0.0772 -0.8911 -1.5266
 9176TIP3    H249020   0.218   0.715   1.522  0.5413 -0.6495 -0.8344
 9177TIP3   OH249021   0.627   2.644   2.524 -0.0766  0.1476 -0.1556
 9177TIP3    H149022   0.708   2.691   2.543  0.7861 -0.6359 -1.7633
 9177TIP3    H249023   0.651   2.582   2.455 -1.2737 -2.3122  1.5493
 9178TIP3   OH249024   2.033   6.733  15.085 -0.2648  0.3380 -0.3040
 9178TIP3    H149025   1.968   6.803  15.079  1.2561  1.9387  1.4314
 9178TIP3    H249026   2.111   6.775  15.120  1.1781 -1.9229 -0.6723
 9179TIP3   OH249027   4.468   3.453   0.120 -0.1062 -0.3336  0.5988
 9179TIP3    H149028   4.379   3.420   0.106 -1.2497  2.1423  1.8196
 9179TIP3    H249029   4.491   3.495   0.037 -0.5325  0.0290  0.6600
 9180TIP3   OH249030   4.994   1.509  15.014 -0.0940  0.3654  0.2189
 9180TIP3    H149031   4.961   1.435  14.962 -2.1347  3.3166 -2.9528
 9180TIP3    H249032   5.070   1.540  14.965  0.6346  0.4954  1.4229
 9181TIP3   OH249033   3.175   1.814   6.269  0.3254 -0.0531  0.3505
 9181TIP3    H149034   3.146   1.877   6.335  0.2386  1.7783 -1.3803
 9181TIP3    H249035   3.098   1.760   6.251 -0.9038  2.1121 -1.2011
 9182TIP3   OH249036   1.085   1.582  12.643  0.4072  0.5429  0.4112
 9182TIP3    H149037   1.053   1.670  12.664 -1.8204 -0.5589  1.8480
 9182TIP3    H249038   1.011   1.524  12.663  2.2712 -1.8017  0.7740
 9183TIP3   OH249039   5.437   4.738  17.212  0.0260  0.2670 -0.2544
 9183TIP3    H149040   5.490   4.809  17.175 -0.3537  0.6236 -0.1146
 9183TIP3    H249041   5.395   4.698  17.136  0.8293 -0.2934 -0.4131
 9184TIP3   OH249042   1.587   3.420   4.992  0.4363 -0.2401 -0.2487
 9184TIP3    H149043   1.571   3.511   5.018  2.4091  0.3087 -0.8708
 9184TIP3    H249044   1.525   3.369   5.045 -2.8982  1.6603 -2.0891
 9185TIP3   OH249045   1.371   0.140   1.250 -0.0424  0.1226 -0.0134
 9185TIP3    H149046   1.357   0.211   1.312 -0.5084 -1.6366  1.9398
 9185TIP3    H249047   1.284   0.108   1.228  0.1739  0.0007 -0.7298
 9186TIP3   OH249048   4.705   2.805  14.852  0.9166 -0.1443  0.0912
 9186TIP3    H149049   4.611   2.805  14.839  0.8663  3.6630 -0.2304
 9186TIP3    H249050   4.717   2.808  14.947  0.7183 -1.0895  0.1419
 9187TIP3   OH249051   5.687   0.841  11.593 -0.7009 -0.1986  0.0769
 9187TIP3    H149052   5.769   0.806  11.558  0.3326  1.9313  0.2876
 9187TIP3    H249053   5.627   0.767  11.591  1.1168 -1.7033 -0.4369
 9188TIP3   OH249054   3.020   0.657  13.531  0.0289  0.0627  0.3562
 9188TIP3    H149055   2.985   0.589  13.473  1.5868 -1.2188  0.8871
 9188TIP3    H249056   3.071   0.714  13.472 -1.6088  1.0432 -0.1565
 9189TIP3   OH249057   3.885   1.628  16.876  0.8526  0.3142 -0.3128
 9189TIP3    H149058   3.940   1.677  16.816 -0.1989  0.3395 -1.2740
 9189TIP3    H249059   3.841   1.563  16.821  3.2842 -2.7255  1.1340
 9190TIP3   OH249060   5.038   4.580   5.227 -0.1953 -0.5891  0.5578
 9190TIP3    H149061   5.106   4.522   5.260 -0.5475 -0.6092  1.2589
 9190TIP3    H249062   5.040   4.569   5.132  1.0812 -0.2427  0.5372
 9191TIP3   OH249063   0.899   3.532   4.452 -0.0574 -0.2925 -0.0177
 9191TIP3    H149064   0.859   3.447   4.470  0.7098 -0.3536  1.4843
 9191TIP3    H249065   0.960   3.546   4.525 -0.7853  1.9240  0.2155
 9192TIP3   OH249066   3.272   1.037  11.542 -0.1913 -0.4772  0.5806
 9192TIP3    H149067   3.290   1.113  11.598 -0.0461  0.6688 -0.9803
 9192TIP3    H249068   3.214   0.982  11.594  0.5203  0.2120  2.1405
 9193TIP3   OH249069   5.325   6.564  16.213 -0.3035 -0.2152 -0.0316
 9193TIP3    H149070   5.273   6.641  16.188 -0.9820 -1.0430 -1.1977
 9193TIP3    H249071   5.260   6.500  16.243  0.3218 -0.0597  1.7570
 9194TIP3   OH249072   4.337   4.391  12.040  0.3188 -0.2248  0.1611
 9194TIP3    H149073   4.404   4.414  11.975  0.4789 -0.0538  0.3894
 9194TIP3    H249074   4.386   4.371  12.119  0.0476  0.7824  0.5873
 9195TIP3   OH249075   2.813   4.386   3.985  0.1882  0.3106  0.2233
 9195TIP3    H149076   2.820   4.304   3.936  1.9421  1.8689 -2.2494
 9195TIP3    H249077   2.781   4.359   4.071  0.0390 -2.8790 -0.7402
 9196TIP3   OH249078   4.299   5.154  17.068 -0.3152 -0.1781  0.2648
 9196TIP3    H149079   4.388   5.126  17.046 -0.2925  0.1485 -0.0517
 9196TIP3    H249080   4.310   5.235  17.118 -0.4503  0.0590 -0.0872
 9197TIP3   OH249081   5.681   5.819  10.963  0.5740  0.3051  0.0425
 9197TIP3    H149082   5.688   5.909  10.994  0.8325 -0.0417  1.0434
 9197TIP3    H249083   5.767   5.799  10.928  0.8338  0.1284  0.7599
 9198TIP3   OH249084   6.213   1.967   4.147  0.0653 -0.0059 -0.6292
 9198TIP3    H149085   6.191   2.033   4.213 -0.1061 -1.8285  1.1487
 9198TIP3    H249086   6.164   1.889   4.173  1.9192 -1.4901 -1.5174
 9199TIP3   OH249087   0.568   1.626  12.262 -0.1792  0.4377 -0.1259
 9199TIP3    H149088   0.506   1.625  12.189 -0.7152 -1.8850  0.3134
 9199TIP3    H249089   0.530   1.565  12.326  1.3257  0.8708  1.1987
 9200TIP3   OH249090   2.935   2.056  11.995  0.0901  0.3805 -0.0150
 9200TIP3    H149091   2.861   2.015  11.949  0.2470  0.1402 -0.0566
 9200TIP3    H249092   2.907   2.060  12.087 -0.0543  0.4715 -0.0634
 9201TIP3   OH249093   5.914   0.048   1.705 -0.2655 -0.5641 -0.0266
 9201TIP3    H149094   5.894   0.082   1.792 -1.7451 -0.5412 -0.3767
 9201TIP3    H249095   5.957   0.121   1.660 -1.7591  0.2420 -0.1509
 9202TIP3   OH249096   6.009   5.560   0.320 -0.4497 -0.1626 -0.0330
 9202TIP3    H149097   5.934   5.612   0.293  0.6248  1.2471 -0.3226
 9202TIP3    H249098   5.994   5.541   0.413  0.6192  3.2615  0.8920
 9203TIP3   OH249099   0.600   0.599  14.203  0.0569  0.3980  0.0234
 9203TIP3    H149100   0.674   0.660  14.202  1.3568 -1.1261  1.5329
 9203TIP3    H249101   0.612   0.546  14.124  0.8041 -0.1192  0.4847
 9204TIP3   OH249102   3.170   1.208  14.453 -0.2378  0.1866  0.4601
 9204TIP3    H149103   3.173   1.164  14.537  0.0747  0.9543  0.8557
 9204TIP3    H249104   3.246   1.265  14.452  0.2216 -0.4209 -0.6904
 9205TIP3   OH249105   6.061   3.073  16.870 -0.1308 -0.6689  0.0188
 9205TIP3    H149106   5.979   3.116  16.846 -0.4664 -1.2255  0.1557
 9205TIP3    H249107   6.042   3.030  16.953  0.1022 -1.3495 -0.2749
 9206TIP3   OH249108   1.156   3.372   1.020  0.0946  0.5152  0.2792
 9206TIP3    H149109   1.159   3.378   0.924 -0.7390 -1.4213  0.1200
 9206TIP3    H249110   1.242   3.402   1.048  1.5952 -2.1270 -1.2881
 9207TIP3   OH249111   0.443   0.089  11.689 -0.4746 -0.6949  0.0063
 9207TIP3    H149112   0.499   0.011  11.690 -2.0210 -1.8245  1.2303
 9207TIP3    H249113   0.454   0.126  11.777  1.5179  1.4219 -1.0935
 9208TIP3   OH249114   3.590   3.251  16.184  0.1796 -0.2447 -0.1330
 9208TIP3    H149115   3.610   3.163  16.153  1.0285  0.0186 -0.3428
 9208TIP3    H249116   3.637   3.309  16.124 -0.6578  0.3673 -0.2184
 9209TIP3   OH249117   5.468   3.632  15.327 -0.1780 -0.1636 -0.4390
 9209TIP3    H149118   5.475   3.673  15.241 -1.1952 -0.3199 -0.6078
 9209TIP3    H249119   5.426   3.698  15.382 -1.7395 -0.9208 -0.6889
 9210TIP3   OH249120   3.516   5.194  15.881  0.1574  0.6772  0.1293
 9210TIP3    H149121   3.472   5.205  15.965  0.8173 -1.2344  0.7751
 9210TIP3    H249122   3.514   5.099  15.865 -0.9826  1.1028 -2.5871
 9211TIP3   OH249123   1.750   6.768   0.377 -0.2936  0.1700 -0.3371
 9211TIP3    H149124   1.755   6.766   0.282 -1.5320  0.6180 -0.4247
 9211TIP3    H249125   1.673   6.715   0.398  0.4417 -0.5986  0.4590
 9212TIP3   OH249126   5.506   2.809   2.109 -0.0549 -0.5108 -0.1115
 9212TIP3    H149127   5.528   2.771   2.024  1.1493 -0.6781  0.2633
 9212TIP3    H249128   5.419   2.848   2.096 -0.2506 -1.2731 -1.1726
 9213TIP3   OH249129   3.348   2.043  15.997  0.5718  0.0406 -0.1401
 9213TIP3    H149130   3.384   2.089  16.073 -1.7743  0.1030  0.9663
 9213TIP3    H249131   3.322   2.113  15.937  0.8067  0.0395 -0.2436
 9214TIP3   OH249132   0.674   2.625   6.144  0.4017 -0.0359  0.0056
 9214TIP3    H149133   0.599   2.641   6.201  0.3351 -0.9691  0.1880
 9214TIP3    H249134   0.638   2.633   6.055 -0.0735 -1.2115  0.0941
 9215TIP3   OH249135   1.156   2.247  12.903  0.2196  0.0494 -0.3204
 9215TIP3    H149136   1.171   2.254  12.808 -0.5297 -2.3952 -0.6541
 9215TIP3    H249137   1.239   2.212  12.937  0.6228  1.2870  0.0083
 9216TIP3   OH249138   1.686   1.145  13.077  0.4419 -0.8766 -0.0785
 9216TIP3    H149139   1.774   1.112  13.098  0.5724 -1.0213 -0.8126
 9216TIP3    H249140   1.659   1.093  13.001  0.5138  0.4817 -1.0451
 9217TIP3   OH249141   4.273   2.859  11.822  0.6874 -0.2385  0.0070
 9217TIP3    H149142   4.279   2.771  11.786  1.3030 -0.2862  0.2165
 9217TIP3    H249143   4.224   2.909  11.757  1.8775 -0.2889 -0.9494
 9218TIP3   OH249144   2.746   4.902  16.963  0.8375 -0.0920 -0.6520
 9218TIP3    H149145   2.763   4.888  16.870 -1.1590 -0.7963 -0.9324
 9218TIP3    H249146   2.668   4.851  16.981  0.5100  1.0003  1.1558
 9219TIP3   OH249147   5.543   4.478  14.947  0.4469  0.5976 -0.0306
 9219TIP3    H149148   5.562   4.571  14.936  0.1036  0.6286 -0.3902
 9219TIP3    H249149   5.459   4.477  14.993  1.2381  0.4666  1.4488
 9220TIP3   OH249150   0.420   2.382   0.415 -0.1931  0.2417 -0.5183
 9220TIP3    H149151   0.438   2.384   0.509  0.8043  0.9437 -0.7095
 9220TIP3    H249152   0.335   2.338   0.407  1.1130 -2.5549  0.4921
 9221TIP3   OH249153   3.976   0.108  13.033  0.5200  0.2029  0.1149
 9221TIP3    H149154   3.950   0.076  13.120 -2.0073 -1.0594 -1.0358
 9221TIP3    H249155   3.907   0.171  13.010  0.3831 -0.5391 -1.5398
 9222TIP3   OH249156   0.797   6.266   3.670 -0.3556 -0.7777 -0.9906
 9222TIP3    H149157   0.720   6.256   3.614 -2.7151  0.4321  1.9456
 9222TIP3    H249158   0.794   6.191   3.729  0.3487 -0.3532 -0.4083
 9223TIP3   OH249159   0.458   6.170  16.729  0.5467  0.3813  0.7403
 9223TIP3    H149160   0.533   6.209  16.774  0.9809 -0.2362  0.5560
 9223TIP3    H249161   0.494   6.139  16.645  0.1365 -0.1327  0.7569
 9224TIP3   OH249162   1.644   5.641  15.081  0.0333 -0.6245 -0.0957
 9224TIP3    H149163   1.718   5.624  15.024 -1.4203 -2.8979 -1.3871
 9224TIP3    H249164   1.572   5.664  15.022 -1.0775 -1.4559  0.8950
 9225TIP3   OH249165   0.293   2.962   4.063 -0.0698  0.0570  0.0769
 9225TIP3    H149166   0.220   2.984   4.122 -1.3039 -2.1006 -0.5906
 9225TIP3    H249167   0.273   3.009   3.982 -2.6058 -3.1718 -1.2877
 9226TIP3   OH249168   4.412   4.853   0.388 -0.2303  0.3086  0.5944
 9226TIP3    H149169   4.324   4.824   0.414 -0.4264  0.7601  0.4335
 9226TIP3    H249170   4.426   4.812   0.303 -0.4387  0.5349  0.4477
 9227TIP3   OH249171   0.916   4.172  15.440 -0.3251  0.2285  0.1750
 9227TIP3    H149172   0.820   4.173  15.450 -0.4284 -0.3363 -0.7246
 9227TIP3    H249173   0.930   4.180  15.345  0.5574  2.0261  0.4354
 9228TIP3   OH249174   2.640   0.856   1.699 -0.1647  0.0255  0.5922
 9228TIP3    H149175   2.661   0.907   1.777  0.8621  0.4804  0.0201
 9228TIP3    H249176   2.565   0.802   1.726 -0.6550  1.1163  1.4950
 9229TIP3   OH249177   5.409   5.916   3.769 -0.1331 -0.1008 -0.1097
 9229TIP3    H149178   5.441   6.005   3.755  2.3730 -0.9662 -0.0811
 9229TIP3    H249179   5.488   5.863   3.775 -1.5859 -2.2257  0.6327
 9230TIP3   OH249180   5.675   6.135   4.194 -0.0671 -0.3181 -0.2852
 9230TIP3    H149181   5.770   6.137   4.187 -0.0315 -2.3401 -0.7070
 9230TIP3    H249182   5.658   6.098   4.281 -0.4556 -0.6335 -0.4916
 9231TIP3   OH249183   4.843   1.689  13.639  0.2621 -0.1570  0.3854
 9231TIP3    H149184   4.835   1.610  13.693 -1.6830 -1.6844 -2.0624
 9231TIP3    H249185   4.876   1.658  13.555 -1.8794  1.4049 -1.0887
 9232TIP3   OH249186   3.689   5.935   0.142  0.4931  0.6345  0.1208
 9232TIP3    H149187   3.594   5.920   0.144  0.5360  0.0977 -1.2907
 9232TIP3    H249188   3.707   5.980   0.224 -0.7869 -0.4653  1.0396
 9233TIP3   OH249189   5.079   5.740  16.757 -0.1480  0.2173  0.4338
 9233TIP3    H149190   5.145   5.678  16.728 -0.6746 -0.1688  0.0448
 9233TIP3    H249191   5.128   5.810  16.801  0.3643 -0.9790  1.8020
 9234TIP3   OH249192   1.959   1.259   2.841  0.1716  0.1828  0.1064
 9234TIP3    H149193   1.899   1.214   2.901 -0.2012  0.1463 -0.2847
 9234TIP3    H249194   2.044   1.219   2.857 -0.3925 -1.5690 -1.1166
 9235TIP3   OH249195   1.583   3.619   4.106  0.0209  0.1100 -0.1703
 9235TIP3    H149196   1.542   3.534   4.124  1.3752  0.1651  3.7753
 9235TIP3    H249197   1.531   3.682   4.156  1.8615  0.8798  0.8103
 9236TIP3   OH249198   1.764   1.364  13.645  1.3551 -0.7093  0.1988
 9236TIP3    H149199   1.685   1.329  13.687  1.2920 -2.7669 -1.5244
 9236TIP3    H249200   1.820   1.287  13.634  1.5485 -0.1726 -3.0329
 9237TIP3   OH249201   0.513   6.173   6.633 -0.0900  0.1015  0.7113
 9237TIP3    H149202   0.506   6.251   6.689  0.7512  2.4459 -2.3495
 9237TIP3    H249203   0.607   6.158   6.625 -0.1362  0.9771 -1.6416
 9238TIP3   OH249204   5.803   4.123  15.788  0.3087  0.5832 -0.0047
 9238TIP3    H149205   5.820   4.055  15.853  1.9366  0.3564 -0.6518
 9238TIP3    H249206   5.853   4.198  15.818  0.6680  0.6361 -0.7319
 9239TIP3   OH249207   6.518   5.643  11.791 -0.0433 -0.5034  0.2992
 9239TIP3    H149208   6.423   5.648  11.797 -0.0554 -0.8290  0.3758
 9239TIP3    H249209   6.535   5.574  11.728  0.1311  0.7880 -1.0855
 9240TIP3   OH249210   3.581   4.411   1.363 -0.0688 -0.0983  0.2790
 9240TIP3    H149211   3.570   4.318   1.380 -1.7474 -0.2681 -1.4770
 9240TIP3    H249212   3.654   4.416   1.301  0.9715 -0.1210  1.5022
 9241TIP3   OH249213   2.895   6.157   0.372  0.0979  0.2153  0.2338
 9241TIP3    H149214   2.969   6.096   0.373 -1.1268 -1.3030  1.7880
 9241TIP3    H249215   2.863   6.157   0.462 -0.2682  2.7941  0.1505
 9242TIP3   OH249216   2.385   4.235   0.211  0.4455  0.0068 -0.0584
 9242TIP3    H149217   2.446   4.242   0.285  0.1870  1.6476  0.0313
 9242TIP3    H249218   2.338   4.154   0.226 -0.8307  1.1571  2.5564
 9243TIP3   OH249219   4.203   2.045   5.117 -1.2485 -0.5721 -0.1429
 9243TIP3    H149220   4.114   2.014   5.106 -1.2110 -1.5151  2.0763
 9243TIP3    H249221   4.225   2.027   5.208  1.2123 -0.3555 -0.6418
 9244TIP3   OH249222   2.314   3.917  12.824  0.3796 -0.4108  0.5153
 9244TIP3    H149223   2.346   3.987  12.767 -0.3303 -0.0162  0.5999
 9244TIP3    H249224   2.360   3.839  12.793  0.0609 -0.1900 -0.5451
 9245TIP3   OH249225   3.380   1.482  13.261 -0.3365  0.2534 -0.0232
 9245TIP3    H149226   3.307   1.544  13.256 -0.1523  0.4682 -0.0932
 9245TIP3    H249227   3.344   1.400  13.226 -0.2264  0.6621 -1.1368
 9246TIP3   OH249228   2.734   2.248  14.670  0.0331 -0.2624  0.1866
 9246TIP3    H149229   2.775   2.220  14.751 -1.4045 -1.1195  0.6382
 9246TIP3    H249230   2.663   2.185  14.656 -0.8368  0.9189 -0.8094
 9247TIP3   OH249231   2.405   2.200  14.956 -0.3129  0.1682 -0.1483
 9247TIP3    H149232   2.386   2.189  15.049 -2.3779 -0.7527 -0.6411
 9247TIP3    H249233   2.391   2.293  14.939 -0.8663  0.1621  0.2754
 9248TIP3   OH249234   0.039   0.002   3.864  0.3291  0.0723 -0.1610
 9248TIP3    H149235   0.057   0.042   3.779 -0.4787 -1.2475 -0.9589
 9248TIP3    H249236   0.121   0.011   3.912  0.7199  1.0320 -0.9840
 9249TIP3   OH249237   2.212   5.589   5.855 -0.1184  0.2796  0.2108
 9249TIP3    H149238   2.117   5.576   5.853 -0.0687  0.0196 -1.3833
 9249TIP3    H249239   2.241   5.567   5.766  1.1398  2.6383 -0.0102
 9250TIP3   OH249240   2.190   6.651  16.915  0.1492 -0.1538  0.1589
 9250TIP3    H149241   2.196   6.605  16.999  0.1332  0.4907  0.5074
 9250TIP3    H249242   2.206   6.743  16.936  1.4743 -0.1730 -0.7391
 9251TIP3   OH249243   0.887   4.098   2.612 -0.3613  0.2777  1.1862
 9251TIP3    H149244   0.823   4.149   2.562 -0.2644  0.0977  0.8788
 9251TIP3    H249245   0.877   4.008   2.580  3.3325  0.9495 -2.4038
 9252TIP3   OH249246   5.033   1.765  17.147  0.3023  0.1171 -0.3517
 9252TIP3    H149247   5.111   1.787  17.198 -0.7667 -0.1328  1.4050
 9252TIP3    H249248   5.021   1.671  17.161 -1.6228  0.5677  1.2657
 9253TIP3   OH249249   2.044   2.399   6.242  0.1646 -0.2528  0.1113
 9253TIP3    H149250   2.094   2.426   6.165  1.6820 -2.3972  0.3132
 9253TIP3    H249251   2.083   2.449   6.314  1.5434 -1.3710  0.1493
 9254TIP3   OH249252   2.537   3.966  13.216 -0.3528 -0.7417  0.0460
 9254TIP3    H149253   2.531   4.060  13.200 -1.0213 -0.4550  1.9304
 9254TIP3    H249254   2.580   3.931  13.137  1.1159  1.2943 -0.0912
 9255TIP3   OH249255   0.747   0.535   4.940  0.5906 -0.2686 -0.3508
 9255TIP3    H149256   0.737   0.448   4.978 -0.1802  0.4978  1.2127
 9255TIP3    H249257   0.658   0.569   4.934  1.1070  1.4876  1.6201
 9256TIP3   OH249258   5.666   4.852   5.638  0.1402 -0.1885  0.3448
 9256TIP3    H149259   5.610   4.803   5.698 -0.6789 -0.8289 -0.9277
 9256TIP3    H249260   5.749   4.862   5.686 -0.5399 -0.5714  1.6232
 9257TIP3   OH249261   3.830   6.075  14.165  0.2279  0.2644 -0.4470
 9257TIP3    H149262   3.887   6.134  14.215  0.3873  0.5833 -0.9939
 9257TIP3    H249263   3.741   6.109  14.181 -0.0308 -1.3869  1.9635
 9258TIP3   OH249264   5.868   0.948   2.833 -0.0354  0.0373  0.7055
 9258TIP3    H149265   5.898   0.858   2.821 -1.0750 -0.0326 -1.6716
 9258TIP3    H249266   5.927   0.984   2.899  0.8649 -2.1526  1.1575
 9259TIP3   OH249267   0.903   1.967  15.227 -0.0611 -0.1950 -0.3133
 9259TIP3    H149268   0.843   2.033  15.260  1.8993  1.4392  0.0368
 9259TIP3    H249269   0.910   1.985  15.133 -1.1330 -1.2257 -0.6056
 9260TIP3   OH249270   4.970   0.459   4.281 -0.4828  0.2440  0.2951
 9260TIP3    H149271   4.875   0.459   4.279 -0.4819  1.7796 -0.1546
 9260TIP3    H249272   4.994   0.544   4.318  0.7149 -0.0470  0.2259
 9261TIP3   OH249273   4.407   4.283  12.720  0.3417 -0.3262  0.1097
 9261TIP3    H149274   4.356   4.236  12.786  0.9631 -0.2225  0.6726
 9261TIP3    H249275   4.352   4.283  12.642 -0.4808 -0.2735  0.6889
 9262TIP3   OH249276   4.715   1.576  14.485 -0.3962 -0.0359 -0.1431
 9262TIP3    H149277   4.731   1.559  14.392 -0.0475  2.3086 -0.5618
 9262TIP3    H249278   4.680   1.494  14.519  3.6475 -2.3768 -1.3281
 9263TIP3   OH249279   5.837   2.155   4.269 -1.3525  0.0826  0.0489
 9263TIP3    H149280   5.815   2.109   4.187  1.1712 -1.7811  0.3477
 9263TIP3    H249281   5.930   2.177   4.260 -1.1413  0.2147  2.2456
 9264TIP3   OH249282   1.604   1.937   3.817  0.0590  0.5536 -0.4002
 9264TIP3    H149283   1.522   1.905   3.778  0.3595 -0.9658  0.2074
 9264TIP3    H249284   1.670   1.925   3.749  0.2945 -0.7297  0.0447
 9265TIP3   OH249285   1.052   5.558   5.491  0.3181 -0.4009  0.1031
 9265TIP3    H149286   0.980   5.606   5.449  0.7493  1.1796  1.1436
 9265TIP3    H249287   1.116   5.546   5.421  0.2730  0.6862 -0.1284
 9266TIP3   OH249288   4.075   6.653   2.756 -0.2752 -0.4039 -0.6236
 9266TIP3    H149289   4.129   6.615   2.686 -0.7085  0.0831 -1.2195
 9266TIP3    H249290   4.117   6.622   2.837 -0.1773 -1.5338 -1.0936
 9267TIP3   OH249291   1.494   4.290  15.007 -0.2397 -0.3689  0.3616
 9267TIP3    H149292   1.504   4.332  15.093  2.7776 -2.8000  1.3168
 9267TIP3    H249293   1.501   4.362  14.944 -0.8512  1.2538  2.1162
 9268TIP3   OH249294   1.556   4.666  11.875 -0.1572  0.6008 -0.3371
 9268TIP3    H149295   1.486   4.613  11.837 -0.3213  0.5547  0.0252
 9268TIP3    H249296   1.519   4.754  11.880  0.0203  0.6989 -0.6869
 9269TIP3   OH249297   0.790   4.078   5.401  0.2239 -0.4085 -0.2344
 9269TIP3    H149298   0.726   4.090   5.331 -0.1051  0.4164  0.1974
 9269TIP3    H249299   0.845   4.156   5.398  0.8556 -0.8444 -0.2304
 9270TIP3   OH249300   5.506   5.003   0.820  0.9093  0.0063  0.2512
 9270TIP3    H149301   5.594   5.028   0.794  0.6639 -0.0267 -0.6283
 9270TIP3    H249302   5.502   4.908   0.806  0.7419  0.0065  0.2898
 9271TIP3   OH249303   3.967   4.763   1.444 -0.4384  0.0134  0.4881
 9271TIP3    H149304   3.897   4.798   1.500 -0.6188  0.4999 -0.0339
 9271TIP3    H249305   3.964   4.669   1.458 -1.7065 -0.0466 -0.1136
 9272TIP3   OH249306   6.341   1.611  17.212 -0.2428 -0.1961 -0.0185
 9272TIP3    H149307   6.327   1.609  17.118 -1.9235 -0.3816  0.2186
 9272TIP3    H249308   6.351   1.704  17.234  1.1751 -0.2332 -0.5223
 9273TIP3   OH249309   1.697   5.039  10.364 -0.7389 -0.2322 -0.2767
 9273TIP3    H149310   1.772   5.087  10.328 -1.3426 -0.1625 -1.4461
 9273TIP3    H249311   1.623   5.064  10.309 -1.7741  0.2204  1.2879
 9274TIP3   OH249312   1.354   2.041  11.805  0.0064  1.1719 -0.1554
 9274TIP3    H149313   1.274   2.033  11.754  1.5371 -2.0182 -2.2152
 9274TIP3    H249314   1.418   2.079  11.744  1.3536 -0.9126 -0.0867
 9275TIP3   OH249315   5.073   3.823  16.947  0.6310 -0.2724  0.4080
 9275TIP3    H149316   4.978   3.826  16.934  0.6338  1.0631  0.6055
 9275TIP3    H249317   5.086   3.862  17.034  1.2911 -1.3150  0.7901
 9276TIP3   OH249318   0.911   0.880  15.202  0.1716  0.0254 -0.0061
 9276TIP3    H149319   1.001   0.853  15.220  0.5502  1.1026 -0.2438
 9276TIP3    H249320   0.917   0.930  15.120 -0.7234 -0.3622 -0.3130
 9277TIP3   OH249321   2.484   5.690   2.437  1.1604 -0.0484 -0.7515
 9277TIP3    H149322   2.434   5.771   2.439  0.7785 -0.2469 -1.9173
 9277TIP3    H249323   2.575   5.717   2.422  1.6221  0.3859  2.3411
 9278TIP3   OH249324   6.449   5.253  14.584  0.2162 -0.0446  0.2876
 9278TIP3    H149325   6.372   5.197  14.573  1.4105 -1.8134  0.8064
 9278TIP3    H249326   6.419   5.340  14.557 -1.9311 -0.7255  0.3643
 9279TIP3   OH249327   0.695   0.643  12.567 -0.2534 -0.2058 -0.1791
 9279TIP3    H149328   0.705   0.734  12.539 -1.9751 -0.2346 -0.9532
 9279TIP3    H249329   0.784   0.608  12.566  0.4351  1.4747  0.1763
 9280TIP3   OH249330   4.077   1.207   2.836  0.3962  0.5247  0.2724
 9280TIP3    H149331   4.111   1.119   2.851 -0.0510  0.3109  0.0617
 9280TIP3    H249332   4.149   1.255   2.795  0.0873 -0.2353 -1.1954
 9281TIP3   OH249333   4.434   1.836  11.757 -0.0927  0.7226 -0.0175
 9281TIP3    H149334   4.359   1.891  11.735  0.1578  1.9770  2.0966
 9281TIP3    H249335   4.508   1.896  11.758  1.0077 -0.5549 -2.3262
 9282TIP3   OH249336   4.264   1.460  14.840  0.1326 -0.4330  0.4321
 9282TIP3    H149337   4.353   1.494  14.843 -0.7136  2.0680 -0.9280
 9282TIP3    H249338   4.209   1.537  14.856 -1.8299 -1.4652 -1.1147
 9283TIP3   OH249339   2.141   0.858  15.606 -0.0924  0.0759  0.1566
 9283TIP3    H149340   2.145   0.949  15.577  0.0358 -0.0240 -0.1466
 9283TIP3    H249341   2.065   0.822  15.559 -0.1502  0.0314  0.2852
 9284TIP3   OH249342   3.650   4.912  13.695  0.0415  0.3634 -0.5099
 9284TIP3    H149343   3.660   4.831  13.744  0.2219 -0.4868 -1.9330
 9284TIP3    H249344   3.739   4.942  13.678 -0.0260  1.0924  0.3748
 9285TIP3   OH249345   2.422   1.500  13.520 -0.5452  0.3948 -0.5047
 9285TIP3    H149346   2.500   1.465  13.565 -1.3812 -0.4193  0.3429
 9285TIP3    H249347   2.369   1.538  13.590  0.0079  2.7364 -1.3415
 9286TIP3   OH249348   4.850   2.480   5.640  0.5692 -0.2386  0.2271
 9286TIP3    H149349   4.774   2.537   5.630  1.5088  0.9836 -0.1649
 9286TIP3    H249350   4.881   2.497   5.729 -0.5142 -1.9046  0.9550
 9287TIP3   OH249351   6.300   5.786   1.851 -0.5988  0.0075 -0.1424
 9287TIP3    H149352   6.296   5.880   1.833 -0.0944  0.2130  0.8183
 9287TIP3    H249353   6.208   5.758   1.852 -0.7395  0.4336 -0.6749
 9288TIP3   OH249354   3.283   2.749   0.510 -0.4129  0.4983 -0.9208
 9288TIP3    H149355   3.273   2.713   0.422 -0.4088  1.0801 -1.1628
 9288TIP3    H249356   3.336   2.685   0.556  0.6669  0.8023 -1.7166
 9289TIP3   OH249357   0.654   2.162  14.395 -0.0337  0.0901 -0.2708
 9289TIP3    H149358   0.695   2.239  14.356 -0.9978  0.5993 -0.2967
 9289TIP3    H249359   0.702   2.148  14.477  0.2835  0.5892 -0.3663
 9290TIP3   OH249360   6.332   2.196  13.175  0.0063 -0.1208  0.2173
 9290TIP3    H149361   6.403   2.210  13.237  1.0170 -0.2040 -0.8980
 9290TIP3    H249362   6.339   2.268  13.113 -0.3935 -0.5726 -0.3614
 9291TIP3   OH249363   6.140   3.413  12.565  0.3682  0.2299  0.7103
 9291TIP3    H149364   6.123   3.456  12.649 -3.3519  2.1282 -0.8625
 9291TIP3    H249365   6.161   3.484  12.505 -0.9280 -0.6149 -0.8104
 9292TIP3   OH249366   2.872   2.698  17.036 -0.4641  0.4723 -0.0919
 9292TIP3    H149367   2.900   2.702  17.128 -0.4566 -0.0718 -0.0706
 9292TIP3    H249368   2.802   2.633  17.035 -1.6926  1.7645 -0.1627
 9293TIP3   OH249369   6.787   3.647  11.078  0.3535 -0.0888  0.6574
 9293TIP3    H149370   6.867   3.697  11.063 -0.4399  2.0684  3.3745
 9293TIP3    H249371   6.811   3.580  11.142  0.6591 -1.3346 -0.7201
 9294TIP3   OH249372   4.517   5.815  16.361  0.3718 -0.1664  0.0758
 9294TIP3    H149373   4.607   5.811  16.328  0.0131  0.6737 -1.0240
 9294TIP3    H249374   4.469   5.751  16.309  0.1007  0.1578 -0.0696
 9295TIP3   OH249375   1.011   3.968   4.890  0.3108 -0.5509 -0.3904
 9295TIP3    H149376   0.972   3.908   4.826 -0.7856 -1.1582  0.8341
 9295TIP3    H249377   0.946   4.037   4.900  0.5062 -0.4313  0.0303
 9296TIP3   OH249378   3.942   2.912   5.016 -0.6215  0.0557 -0.2939
 9296TIP3    H149379   3.873   2.856   4.978 -1.6202  0.0259  1.4868
 9296TIP3    H249380   3.894   2.984   5.057  0.4100  0.0595  0.9404
 9297TIP3   OH249381   1.092   0.051   1.243 -0.1905  0.3138 -0.0946
 9297TIP3    H149382   1.003   0.014   1.244 -0.0397 -0.0398  0.2928
 9297TIP3    H249383   1.078   0.146   1.237 -0.6810  0.5062  3.1490
 9298TIP3   OH249384   5.443   1.221  14.950  0.9740  0.0922  0.3250
 9298TIP3    H149385   5.469   1.180  14.868  0.7366  1.4151 -0.4155
 9298TIP3    H249386   5.349   1.202  14.957  0.7650  0.8895 -0.2487
 9299TIP3   OH249387   4.428   4.909  12.850  0.1732 -0.0528  0.3789
 9299TIP3    H149388   4.483   4.901  12.928  0.4656  1.1983  0.3133
 9299TIP3    H249389   4.473   4.973  12.795  0.9017 -2.2374 -1.6464
 9300TIP3   OH249390   3.879   0.385  15.018  0.1613 -0.2182 -0.7764
 9300TIP3    H149391   3.804   0.436  15.048 -0.8378 -1.4900 -1.0492
 9300TIP3    H249392   3.926   0.361  15.098 -0.9700 -1.2727 -0.4047
 9301TIP3   OH249393   1.769   5.118   1.445 -0.5219  0.1506  0.4170
 9301TIP3    H149394   1.677   5.140   1.435 -0.3520  0.5456 -0.3122
 9301TIP3    H249395   1.804   5.116   1.356  0.1519 -0.0975  0.6771
 9302TIP3   OH249396   3.400   2.107   5.269  0.1794 -0.4200  0.7137
 9302TIP3    H149397   3.341   2.182   5.269 -1.1875 -1.4626 -0.2188
 9302TIP3    H249398   3.355   2.040   5.321  0.8725 -0.9770  0.6169
 9303TIP3   OH249399   4.748   2.268  16.950  0.1462  0.5479 -0.6678
 9303TIP3    H149400   4.671   2.320  16.926  0.4880  0.9824 -0.8356
 9303TIP3    H249401   4.814   2.333  16.974  1.2534  0.2669 -2.8712
 9304TIP3   OH249402   1.157   4.200   0.769  0.6840  0.7528 -0.3125
 9304TIP3    H149403   1.121   4.269   0.714 -0.8243 -0.2179 -0.5750
 9304TIP3    H249404   1.145   4.119   0.718  0.3766  0.0053  0.9223
 9305TIP3   OH249405   2.658   4.556   4.654 -0.3491 -0.6008  0.1792
 9305TIP3    H149406   2.737   4.503   4.659  0.6528  0.7800 -0.5392
 9305TIP3    H249407   2.683   4.640   4.693 -1.9047 -0.6324  1.3328
 9306TIP3   OH249408   2.238   6.674   0.845 -0.0708 -0.1579 -0.0623
 9306TIP3    H149409   2.253   6.762   0.879  0.3775  0.1770 -1.0787
 9306TIP3    H249410   2.178   6.687   0.772  0.3687 -0.6267 -0.5174
 9307TIP3   OH249411   5.102   6.378   2.840  0.0714 -0.3485  0.3504
 9307TIP3    H149412   5.051   6.316   2.892 -0.6800  0.6118  0.7705
 9307TIP3    H249413   5.178   6.399   2.894 -1.2540  1.4928  1.5750
 9308TIP3   OH249414   1.107   0.602  17.124  0.1274  0.4494 -0.1630
 9308TIP3    H149415   1.056   0.585  17.203  0.5752  2.6319  0.6411
 9308TIP3    H249416   1.192   0.633  17.157  0.4688  0.9583 -1.4916
 9309TIP3   OH249417   2.644   1.706  14.268 -0.2022  0.0352 -0.4718
 9309TIP3    H149418   2.558   1.687  14.306  0.4505  0.5784  1.3447
 9309TIP3    H249419   2.703   1.642  14.307  0.7582  1.5308  0.5974
 9310TIP3   OH249420   3.347   1.754  12.266 -0.4454 -0.0905 -0.7956
 9310TIP3    H149421   3.331   1.838  12.222 -0.0796  0.9079  0.9552
 9310TIP3    H249422   3.438   1.733  12.245 -0.9030 -0.7036 -2.2768
 9311TIP3   OH249423   1.228   3.103   0.377  0.0956  0.2870  0.1229
 9311TIP3    H149424   1.197   3.170   0.316 -2.5110  0.3310  1.3871
 9311TIP3    H249425   1.148   3.056   0.402  1.7621 -2.7327 -0.0680
 9312TIP3   OH249426   3.110   6.273   4.913 -0.4883  0.8902  0.0877
 9312TIP3    H149427   3.113   6.202   4.977 -1.5159 -0.6759 -1.5463
 9312TIP3    H249428   3.180   6.253   4.851 -1.5902  0.5942 -1.0822
 9313TIP3   OH249429   6.584   0.642   5.287  0.1768  0.2321 -0.0881
 9313TIP3    H149430   6.531   0.705   5.237  1.4350  1.3859 -0.0141
 9313TIP3    H249431   6.671   0.682   5.290  0.7855 -1.1291  0.6977
 9314TIP3   OH249432   3.284   5.271  13.110  0.0071  0.2771  0.0550
 9314TIP3    H149433   3.263   5.350  13.060  1.1182  0.3493 -0.3196
 9314TIP3    H249434   3.298   5.204  13.043 -0.0400 -0.0046  0.3318
 9315TIP3   OH249435   6.068   4.255   0.958  0.0362 -0.3582  0.2697
 9315TIP3    H149436   6.026   4.170   0.972  1.8742 -1.3112  0.2420
 9315TIP3    H249437   6.103   4.278   1.044 -1.7254  1.0894  0.6073
 9316TIP3   OH249438   2.023   2.165   2.113  0.0032 -0.4363  0.1149
 9316TIP3    H149439   1.969   2.143   2.037  1.2196 -1.9272 -0.3334
 9316TIP3    H249440   1.974   2.130   2.188 -0.3183 -0.5503 -0.1446
 9317TIP3   OH249441   5.231   5.355   5.373  0.5321 -0.6113  0.1592
 9317TIP3    H149442   5.194   5.404   5.299  1.7326  0.6054  0.3410
 9317TIP3    H249443   5.249   5.421   5.439  0.5911 -1.5370  1.0851
 9318TIP3   OH249444   1.986   4.764  11.566  0.4753 -0.0938  0.4723
 9318TIP3    H149445   1.920   4.754  11.497  1.0015 -0.0688 -0.0435
 9318TIP3    H249446   1.961   4.843  11.612 -0.4574 -0.6577  0.9475
 9319TIP3   OH249447   3.894   6.266   3.344  0.2162  0.0508  0.2020
 9319TIP3    H149448   3.873   6.359   3.351  0.9429  0.3324 -1.2777
 9319TIP3    H249449   3.907   6.250   3.251  0.6690 -1.4092  0.4906
 9320TIP3   OH249450   2.972   6.256   1.895 -0.1494  0.2749  0.2706
 9320TIP3    H149451   2.933   6.204   1.825  0.7920  0.8416 -0.6876
 9320TIP3    H249452   2.905   6.257   1.964 -0.7805 -0.9156 -0.3055
 9321TIP3   OH249453   4.689   1.238  11.795 -0.2367 -0.4956  0.2478
 9321TIP3    H149454   4.684   1.315  11.738  1.3632  0.3751  1.2611
 9321TIP3    H249455   4.708   1.165  11.735 -0.3527  0.1216 -0.5430
 9322TIP3   OH249456   3.533   5.730   0.842 -0.1920 -0.2606 -0.1972
 9322TIP3    H149457   3.572   5.816   0.824  1.2708 -0.5668  1.3313
 9322TIP3    H249458   3.584   5.669   0.788 -0.2350 -0.3366 -0.1518
 9323TIP3   OH249459   4.859   0.975  14.858 -0.6314  0.4716  0.1389
 9323TIP3    H149460   4.783   0.990  14.802 -0.0499  1.6576 -0.3569
 9323TIP3    H249461   4.914   1.053  14.845  0.6919 -0.3941  0.4542
 9324TIP3   OH249462   0.887   4.996   0.795  0.0732  0.4000 -0.1383
 9324TIP3    H149463   0.977   4.965   0.797 -0.0292  0.0065 -1.3022
 9324TIP3    H249464   0.834   4.919   0.815 -0.0392  0.4996 -0.0482
 9325TIP3   OH249465   0.833   2.859  10.869  1.1430  0.1772  0.2208
 9325TIP3    H149466   0.856   2.776  10.828  0.3212 -1.2988  2.6882
 9325TIP3    H249467   0.738   2.857  10.875  1.1468  1.1206  0.6586
 9326TIP3   OH249468   2.922   2.712   0.003  0.5051 -0.0334  0.5949
 9326TIP3    H149469   3.006   2.747   0.034  0.5048  1.4645 -1.0359
 9326TIP3    H249470   2.857   2.754   0.059  0.7031  0.2255  0.6314
 9327TIP3   OH249471   2.647   5.617   1.291  0.0365  0.4285  0.3817
 9327TIP3    H149472   2.673   5.710   1.290  0.1474  0.4012  0.6796
 9327TIP3    H249473   2.683   5.583   1.373 -1.1269  0.4423  0.9063
 9328TIP3   OH249474   4.445   1.439   2.357 -0.0277  0.1268 -0.0725
 9328TIP3    H149475   4.438   1.528   2.390  1.4453  0.8686 -1.6790
 9328TIP3    H249476   4.465   1.449   2.264 -0.7504 -1.8841 -0.4829
 9329TIP3   OH249477   5.368   2.470   4.470  0.3523  0.1887  0.0960
 9329TIP3    H149478   5.340   2.455   4.560 -0.6155  0.6655 -0.1204
 9329TIP3    H249479   5.436   2.405   4.454  0.4534  0.0387  1.1376
 9330TIP3   OH249480   6.658   4.459   4.096  0.7563 -0.0339 -0.2467
 9330TIP3    H149481   6.665   4.477   4.002  1.2038 -2.8443 -0.7915
 9330TIP3    H249482   6.567   4.479   4.117 -0.2703 -2.4630 -2.0427
 9331TIP3   OH249483   3.729   2.498   2.211  0.1214 -0.8658 -0.3748
 9331TIP3    H149484   3.790   2.502   2.284 -1.1545  0.8460  0.6402
 9331TIP3    H249485   3.702   2.406   2.207 -1.2748 -0.6431  2.6019
 9332TIP3   OH249486   3.038   1.243   1.431  0.1130  0.1978 -0.1970
 9332TIP3    H149487   2.958   1.258   1.380 -0.7150 -0.7504  0.8196
 9332TIP3    H249488   3.070   1.158   1.401  0.9054  0.6959 -0.7973
 9333TIP3   OH249489   0.848   3.533   2.526  0.1847  0.8039  0.0730
 9333TIP3    H149490   0.752   3.531   2.529  0.0458  0.6053 -3.3555
 9333TIP3    H249491   0.868   3.612   2.475  1.8567  0.8345  0.7640
 9334TIP3   OH249492   1.985   1.379   1.241 -0.1721  0.1413  0.2309
 9334TIP3    H149493   2.027   1.363   1.156 -0.0964  0.0835  0.2795
 9334TIP3    H249494   1.988   1.474   1.251 -1.5158  0.2779 -0.5184
 9335TIP3   OH249495   1.114   2.328   4.428  0.4758 -0.0597 -0.3411
 9335TIP3    H149496   1.026   2.299   4.452  0.1715  0.7844 -0.4325
 9335TIP3    H249497   1.169   2.251   4.441 -0.3357 -0.6948 -0.6336
 9336TIP3   OH249498   0.829   0.567  13.469 -0.3381  0.0241 -0.0528
 9336TIP3    H149499   0.874   0.639  13.515  1.2046 -1.4112  0.7761
 9336TIP3    H249500   0.813   0.601  13.381 -0.2188  1.6151  0.5172
 9337TIP3   OH249501   1.007   2.584   2.162  0.3661  0.0984  0.0435
 9337TIP3    H149502   1.030   2.496   2.192 -0.6893 -0.7099 -1.4701
 9337TIP3    H249503   0.915   2.577   2.135  0.2845  1.6557 -0.1412
 9338TIP3   OH249504   0.286   4.553  16.677 -0.1765 -0.0874 -0.0502
 9338TIP3    H149505   0.224   4.480  16.667 -1.0350  0.3744  1.7879
 9338TIP3    H249506   0.319   4.567  16.588 -2.1477 -0.8281 -0.9499
 9339TIP3   OH249507   5.390   6.198   2.442  0.2689 -0.0232  0.6389
 9339TIP3    H149508   5.423   6.281   2.478  0.7330  0.2734 -0.4474
 9339TIP3    H249509   5.345   6.156   2.515  0.8330  0.7676  1.4486
 9340TIP3   OH249510   2.048   5.717  14.488  0.6580 -0.4678 -0.3037
 9340TIP3    H149511   2.086   5.804  14.475  1.7428 -0.9779 -0.6119
 9340TIP3    H249512   2.000   5.700  14.407  1.4337 -0.6429 -0.7349
 9341TIP3   OH249513   1.862   5.335  15.054 -0.5115  0.6897 -0.2154
 9341TIP3    H149514   1.912   5.358  15.132 -0.5525 -0.2137  0.0812
 9341TIP3    H249515   1.929   5.313  14.988 -0.5015 -0.7930  0.2656
 9342TIP3   OH249516   4.789   5.245   5.992  1.0504 -0.2800  0.3488
 9342TIP3    H149517   4.876   5.258   5.955  1.4669 -0.4967  1.2401
 9342TIP3    H249518   4.763   5.157   5.963  0.7305  0.1487 -0.6917
 9343TIP3   OH249519   5.068   2.263   1.702  0.3375 -0.1766  0.3460
 9343TIP3    H149520   5.155   2.245   1.666 -0.2097 -1.1296 -0.5253
 9343TIP3    H249521   5.046   2.184   1.751 -0.8435 -0.7476 -1.0547
 9344TIP3   OH249522   0.645   3.950   1.967 -0.1341  0.2120  0.0908
 9344TIP3    H149523   0.598   4.023   1.927 -1.1038  0.5686  1.8211
 9344TIP3    H249524   0.678   3.985   2.050 -0.3455 -1.2155  0.7912
 9345TIP3   OH249525   1.007   0.010  16.705  0.2840  0.4419 -0.3116
 9345TIP3    H149526   0.943  -0.056  16.679 -2.3262  2.5504  0.5709
 9345TIP3    H249527   1.018   0.065  16.627 -1.3756  1.9168  0.4595
 9346TIP3   OH249528   0.352   4.998   4.735  0.0466 -0.4014 -0.3895
 9346TIP3    H149529   0.356   5.011   4.829 -1.4713  0.8105 -0.4524
 9346TIP3    H249530   0.317   4.910   4.723  2.0860 -1.2863  0.1611
 9347TIP3   OH249531   5.008   4.679   5.625 -0.0311  0.0817 -0.2309
 9347TIP3    H149532   5.043   4.657   5.711  0.6823 -0.7036 -0.7211
 9347TIP3    H249533   4.924   4.633   5.620  0.3738 -0.6500 -0.3329
 9348TIP3   OH249534   5.302   1.589  12.491  0.2011  0.0957 -0.2809
 9348TIP3    H149535   5.288   1.639  12.411  0.6720 -0.4490 -0.7130
 9348TIP3    H249536   5.313   1.499  12.461  1.5561  0.0570  0.2984
 9349TIP3   OH249537   0.016   5.041  11.217 -0.4609 -0.2371  0.2804
 9349TIP3    H149538   0.072   4.964  11.220 -0.0539 -0.0015 -0.8940
 9349TIP3    H249539   0.073   5.112  11.186 -0.7807  0.5860  1.5452
 9350TIP3   OH249540   5.542   2.151  12.788  0.0277  0.1398  0.3208
 9350TIP3    H149541   5.555   2.150  12.693  1.7976  0.5145  0.5346
 9350TIP3    H249542   5.567   2.239  12.814  0.1964 -0.1705  1.2164
 9351TIP3   OH249543   3.179   2.422   3.369  0.7111 -0.3353 -0.0256
 9351TIP3    H149544   3.215   2.388   3.287  2.1716  0.7279  0.1488
 9351TIP3    H249545   3.109   2.481   3.342  1.1489 -0.0336 -0.5104
 9352TIP3   OH249546   4.258   1.693   2.309 -0.2405 -0.7331 -0.0711
 9352TIP3    H149547   4.249   1.665   2.218 -1.0928 -2.8369  0.6410
 9352TIP3    H249548   4.170   1.688   2.346 -0.4279  2.7782  0.1742
 9353TIP3   OH249549   6.203   2.970  14.225 -0.3192  0.4501  0.1156
 9353TIP3    H149550   6.281   3.014  14.258  0.9935 -0.7363 -1.3235
 9353TIP3    H249551   6.186   2.901  14.289  0.2254  0.2771  0.0751
 9354TIP3   OH249552   1.162   5.825  15.033 -0.2971  0.3106  0.7472
 9354TIP3    H149553   1.125   5.758  14.977 -1.5182 -0.1616  2.1148
 9354TIP3    H249554   1.147   5.907  14.986  1.8423 -0.4034 -1.2668
 9355TIP3   OH249555   4.647   5.592   0.912  0.2273 -0.2787 -0.2427
 9355TIP3    H149556   4.692   5.676   0.921 -0.6497 -0.0001  1.9200
 9355TIP3    H249557   4.715   5.529   0.890  1.2507  0.5778  0.4820
 9356TIP3   OH249558   3.181   6.366  14.792  0.8449  0.2358 -0.9123
 9356TIP3    H149559   3.274   6.387  14.796  0.7680  0.3603  0.3004
 9356TIP3    H249560   3.162   6.327  14.877 -0.3994  1.0270 -0.8160
 9357TIP3   OH249561   1.532   1.111   2.537  0.5012 -0.7521  0.2227
 9357TIP3    H149562   1.532   1.070   2.623  1.5084 -1.5163 -0.1322
 9357TIP3    H249563   1.586   1.189   2.547  0.9919 -1.0819  0.1808
 9358TIP3   OH249564   4.012   6.522  14.236  0.1061  0.1356  0.1750
 9358TIP3    H149565   3.994   6.493  14.147  0.5377 -0.8412  0.4072
 9358TIP3    H249566   3.925   6.540  14.273 -0.1605 -0.8010  0.0096
 9359TIP3   OH249567   4.757   1.591   3.859 -0.6088 -0.7264 -0.2901
 9359TIP3    H149568   4.735   1.511   3.906  0.0452 -0.4482  0.5294
 9359TIP3    H249569   4.690   1.654   3.887 -1.2382 -1.0348 -1.0866
 9360TIP3   OH249570   2.617   3.536  13.243 -0.0097 -0.1933  0.3446
 9360TIP3    H149571   2.541   3.505  13.292 -0.7019  1.0425  0.0681
 9360TIP3    H249572   2.666   3.456  13.221  0.1149 -0.7987  2.6833
 9361TIP3   OH249573   1.031   1.307  13.817  0.3584 -0.0436 -0.1234
 9361TIP3    H149574   0.999   1.273  13.733  0.2551  2.9580 -1.3460
 9361TIP3    H249575   0.956   1.297  13.876 -0.1923 -0.4018 -0.8706
 9362TIP3   OH249576   0.306   5.625  16.141 -0.1012 -0.6044  0.4451
 9362TIP3    H149577   0.320   5.717  16.118  0.9182 -0.9300 -0.2795
 9362TIP3    H249578   0.382   5.579  16.104 -0.3497 -1.6668  1.2289
 9363TIP3   OH249579   2.125   5.074  15.001  0.5970  0.5235  0.3669
 9363TIP3    H149580   2.203   5.018  14.991  0.4707  0.7858 -2.8912
 9363TIP3    H249581   2.066   5.023  15.056  2.0579 -0.8225  0.7413
 9364TIP3   OH249582   6.193   3.117  16.066 -0.1363 -0.1654  0.6252
 9364TIP3    H149583   6.245   3.086  15.993  1.2086  0.1123  1.4571
 9364TIP3    H249584   6.111   3.148  16.026  0.3684 -0.5026 -0.6833
 9365TIP3   OH249585   4.060   1.296  12.541 -0.6440 -0.8076 -0.2103
 9365TIP3    H149586   4.117   1.220  12.547 -0.8878 -0.9176  0.8841
 9365TIP3    H249587   3.996   1.274  12.473  1.3835 -0.1613 -2.3566
 9366TIP3   OH249588   2.356   4.943  14.925 -0.2988 -0.4272  0.2577
 9366TIP3    H149589   2.387   4.853  14.939  1.9204  0.6772  3.0337
 9366TIP3    H249590   2.436   4.995  14.920 -1.5705  1.6283  0.6145
 9367TIP3   OH249591   5.306   3.708   1.677 -0.1695  0.4277 -0.6127
 9367TIP3    H149592   5.366   3.648   1.722  1.9143  2.6233 -0.3458
 9367TIP3    H249593   5.331   3.701   1.585  0.9652  1.7880 -0.4313
 9368TIP3   OH249594   4.579   4.677  12.158  0.3538  0.2544  0.2009
 9368TIP3    H149595   4.660   4.663  12.109 -0.9640 -0.3635 -1.8427
 9368TIP3    H249596   4.592   4.630  12.240  2.0294  0.0957 -0.1412
 9369TIP3   OH249597   0.579   2.024  14.178  0.0510  0.2633  0.5825
 9369TIP3    H149598   0.495   1.984  14.199 -0.7490  1.9024  0.6220
 9369TIP3    H249599   0.595   2.085  14.251  0.9229  0.4602  0.2289
 9370TIP3   OH249600   4.991   1.164   2.924 -0.3166  0.4556  0.3949
 9370TIP3    H149601   4.999   1.075   2.956  0.2808  0.0266 -0.8780
 9370TIP3    H249602   4.981   1.218   3.002 -1.9916 -0.8608  1.0916
 9371TIP3   OH249603   2.937   3.739   5.089  0.5966  0.1016 -0.5986
 9371TIP3    H149604   3.022   3.706   5.119  0.0051 -0.1017  0.8768
 9371TIP3    H249605   2.957   3.826   5.053  1.4337  0.0279 -0.3280
 9372TIP3   OH249606   2.532   4.355  14.968 -0.0032 -0.4392  0.4464
 9372TIP3    H149607   2.551   4.402  14.887 -1.0371 -0.2362  0.3128
 9372TIP3    H249608   2.605   4.294  14.978  1.6005  1.4624  0.8390
 9373TIP3   OH249609   3.076   6.033  13.964  0.8784 -0.2315  0.5628
 9373TIP3    H149610   3.037   6.093  14.027  0.7253 -0.6825  0.8976
 9373TIP3    H249611   3.100   6.089  13.890  0.3351  0.1700  0.6872
 9374TIP3   OH249612   4.676   4.067  11.642  0.5465  0.3334 -0.4347
 9374TIP3    H149613   4.638   4.045  11.727  0.2031  0.1182 -0.6410
 9374TIP3    H249614   4.769   4.050  11.652  0.5577  0.6590  0.0120
 9375TIP3   OH249615   2.830   6.643  16.609  0.0558  0.2886 -0.1278
 9375TIP3    H149616   2.914   6.598  16.621  0.1347 -0.0993 -1.9162
 9375TIP3    H249617   2.851   6.736  16.623  0.8143  0.2076 -0.6483
 9376TIP3   OH249618   6.448   0.444  13.485 -0.2195  0.1927  0.1850
 9376TIP3    H149619   6.497   0.518  13.449  0.3078 -0.3891 -0.3144
 9376TIP3    H249620   6.379   0.427  13.421  0.9225 -1.0569 -0.7600
 9377TIP3   OH249621   1.494   2.620  17.131  0.1974 -0.9064 -0.0234
 9377TIP3    H149622   1.422   2.665  17.175  1.0378  0.2908  0.1500
 9377TIP3    H249623   1.570   2.633  17.189  1.2907  0.5893 -1.7296
 9378TIP3   OH249624   6.802   4.985   1.058  0.0681 -0.4514 -0.4317
 9378TIP3    H149625   6.726   4.929   1.070 -0.5004  0.2121 -0.9152
 9378TIP3    H249626   6.771   5.073   1.079  0.2281  0.0840 -2.3563
 9379TIP3   OH249627   4.586   1.434   2.098  0.6896  0.6002 -0.1228
 9379TIP3    H149628   4.567   1.371   2.028  0.6855 -0.5950  0.9230
 9379TIP3    H249629   4.681   1.432   2.107  0.5405 -1.0820  1.5117
 9380TIP3   OH249630   2.831   1.410   3.341  0.1937 -0.2539 -0.4987
 9380TIP3    H149631   2.871   1.378   3.260  0.5351  0.7816 -0.7573
 9380TIP3    H249632   2.737   1.398   3.328  0.4073 -3.3152  0.3733
 9381TIP3   OH249633   0.709   6.116  17.094  0.2831  0.3860  0.3271
 9381TIP3    H149634   0.714   6.211  17.106 -0.2527  0.4473  0.0662
 9381TIP3    H249635   0.626   6.102  17.048  1.2977 -0.0196 -1.4384
 9382TIP3   OH249636   3.079   1.305   4.064  0.1654  0.1298 -0.5382
 9382TIP3    H149637   3.003   1.251   4.082  0.6602  0.0040  1.2823
 9382TIP3    H249638   3.052   1.394   4.088 -0.6122  0.7014 -3.4260
 9383TIP3   OH249639   5.912   0.159   3.700 -0.1823  0.4369 -0.4076
 9383TIP3    H149640   5.877   0.105   3.630  1.6705  0.5868 -1.4857
 9383TIP3    H249641   5.849   0.149   3.772  0.3390 -3.5017 -0.3895
 9384TIP3   OH249642   4.597   5.265   0.678  0.7509 -0.3864  0.1366
 9384TIP3    H149643   4.578   5.256   0.771  0.7421  3.8555  0.6204
 9384TIP3    H249644   4.689   5.241   0.670  0.5594 -1.4907  1.0788
 9385TIP3   OH249645   5.943   3.676  15.282 -0.1047  0.2670 -0.4731
 9385TIP3    H149646   5.985   3.739  15.341 -0.7747 -0.8992  1.3102
 9385TIP3    H249647   5.857   3.660  15.322 -1.2270  0.6452 -2.6543
 9386TIP3   OH249648   1.046   1.624   0.215 -0.5233  0.4145 -0.6311
 9386TIP3    H149649   1.066   1.711   0.181 -0.2314  1.2049  1.4542
 9386TIP3    H249650   0.995   1.641   0.295 -0.0799 -1.3003  0.0318
 9387TIP3   OH249651   3.994   2.410   5.829  0.0407  0.6706 -0.3302
 9387TIP3    H149652   3.900   2.412   5.844  0.1472 -1.4050  0.9174
 9387TIP3    H249653   4.033   2.438   5.912  0.5281 -2.3373  0.5390
 9388TIP3   OH249654   3.221   0.288  16.043 -0.0094 -0.0357 -0.0163
 9388TIP3    H149655   3.157   0.222  16.016 -1.5571  0.6191  1.9954
 9388TIP3    H249656   3.211   0.358  15.979 -3.1376  1.1817  1.7104
 9389TIP3   OH249657   3.412   6.281   2.033 -0.2460 -0.3299 -0.1705
 9389TIP3    H149658   3.383   6.240   2.115  0.3960  0.3170  0.3852
 9389TIP3    H249659   3.496   6.321   2.054 -0.8082  1.1897 -0.7309
 9390TIP3   OH249660   0.675   0.368   2.303 -0.1933 -0.2491 -0.3908
 9390TIP3    H149661   0.673   0.318   2.221  0.4899 -0.8110 -0.0704
 9390TIP3    H249662   0.612   0.325   2.360 -0.5012  0.0024 -0.5407
 9391TIP3   OH249663   6.612   3.616   4.836 -0.6111  0.0801  0.6836
 9391TIP3    H149664   6.599   3.653   4.749  1.4306  0.1352  0.3653
 9391TIP3    H249665   6.585   3.685   4.896 -1.7376  0.1550  0.0870
 9392TIP3   OH249666   4.620   1.669   2.485 -0.4334  0.4103 -0.4414
 9392TIP3    H149667   4.557   1.739   2.500  2.4464  2.8560  0.6338
 9392TIP3    H249668   4.675   1.700   2.413  1.4200 -0.3428  0.6026
 9393TIP3   OH249669   4.518   5.525  11.082 -0.0961 -0.2569  0.4406
 9393TIP3    H149670   4.575   5.550  11.009  1.3202 -0.7862  1.3422
 9393TIP3    H249671   4.578   5.497  11.151 -1.4021  0.5299  1.9371
 9394TIP3   OH249672   0.134   1.112   0.558  0.1820 -0.3199  0.4716
 9394TIP3    H149673   0.095   1.075   0.637  0.9962  1.0125  1.5157
 9394TIP3    H249674   0.132   1.206   0.572 -1.5060  0.0556 -1.9820
 9395TIP3   OH249675   1.948   5.237   5.421 -0.0782  0.4423  0.4646
 9395TIP3    H149676   1.876   5.300   5.426  1.5068  2.3146  0.3558
 9395TIP3    H249677   1.960   5.207   5.511 -0.7935  0.3387  0.5304
 9396TIP3   OH249678   5.739   2.229  14.632 -0.2375  0.1402  0.2714
 9396TIP3    H149679   5.716   2.293  14.564  1.4399 -0.6886 -1.1219
 9396TIP3    H249680   5.807   2.274  14.684 -0.8142  0.4024  0.8051
 9397TIP3   OH249681   2.116   3.494   0.132 -0.1637  0.7714  0.2316
 9397TIP3    H149682   2.028   3.463   0.153 -0.2853 -0.2240 -1.7190
 9397TIP3    H249683   2.108   3.533   0.045  1.5149 -0.1175 -0.3370
 9398TIP3   OH249684   0.019   0.101   3.003 -0.2792 -0.4419 -0.3712
 9398TIP3    H149685   0.097   0.150   3.028  0.3944 -1.4684 -0.4402
 9398TIP3    H249686  -0.054   0.162   3.018  0.3784 -0.0302  1.2553
 9399TIP3   OH249687   5.228   6.480   3.821 -0.2794 -0.2343  0.6855
 9399TIP3    H149688   5.227   6.384   3.823 -1.2230 -0.2439  0.1695
 9399TIP3    H249689   5.167   6.502   3.751  1.7526  0.6952 -0.8617
 9400TIP3   OH249690   5.829   3.662  10.751 -0.3707 -0.2049  0.2227
 9400TIP3    H149691   5.812   3.570  10.770 -2.5468  0.3969  1.4540
 9400TIP3    H249692   5.755   3.709  10.791 -0.0684  1.9526 -1.6255
 9401TIP3   OH249693   2.573   0.287   3.173  0.0700  0.2541  0.3725
 9401TIP3    H149694   2.533   0.232   3.106  0.7485 -1.7839  1.5978
 9401TIP3    H249695   2.512   0.361   3.182 -0.1361  0.4470 -2.2778
 9402TIP3   OH249696   2.105   1.066   5.208 -0.0554  0.2481 -0.1164
 9402TIP3    H149697   2.061   1.007   5.147 -0.6737 -0.6217  1.1792
 9402TIP3    H249698   2.198   1.052   5.191 -0.1788 -1.5225  0.5651
 9403TIP3   OH249699   5.973   0.607   2.003 -0.5878  0.5992  0.3041
 9403TIP3    H149700   6.016   0.598   2.088  1.0828 -0.8740 -0.6646
 9403TIP3    H249701   5.924   0.690   2.010  2.8783  2.6672  1.2492
 9404TIP3   OH249702   6.333   4.948   0.985 -0.3137  0.5377  0.2273
 9404TIP3    H149703   6.290   4.862   0.977 -0.2720  0.5093  0.3033
 9404TIP3    H249704   6.262   5.008   1.010 -0.2204  0.3996  0.8341
 9405TIP3   OH249705   0.123   4.211  12.580 -0.5466  0.3883  0.5148
 9405TIP3    H149706   0.103   4.119  12.595 -1.0863  0.3318 -0.4863
 9405TIP3    H249707   0.142   4.246  12.667 -1.0294 -0.5045  0.9924
 9406TIP3   OH249708   6.163   0.682   2.616 -0.1080  0.1000  0.0169
 9406TIP3    H149709   6.124   0.767   2.594 -2.5347 -0.6741  1.0551
 9406TIP3    H249710   6.237   0.703   2.672 -0.7696  1.5551  0.3840
 9407TIP3   OH249711   3.124   5.360   0.438  0.0267 -0.5612 -0.2874
 9407TIP3    H149712   3.102   5.429   0.375 -1.7831 -0.9273 -0.1114
 9407TIP3    H249713   3.161   5.406   0.513 -0.5865  0.1739 -0.4268
 9408TIP3   OH249714   4.411   3.366   0.388 -0.0138 -0.0070  0.2054
 9408TIP3    H149715   4.479   3.393   0.327  0.6999  2.3758  1.9773
 9408TIP3    H249716   4.377   3.285   0.351  1.0547  0.8398 -2.8159
 9409TIP3   OH249717   1.768   6.307   1.363  0.0808 -0.3030 -0.0696
 9409TIP3    H149718   1.718   6.243   1.414  1.6168 -2.1234 -0.7615
 9409TIP3    H249719   1.815   6.254   1.298  1.4864  1.5239 -0.5969
 9410TIP3   OH249720   1.817   5.799  16.465  0.7927 -1.1169  0.1744
 9410TIP3    H149721   1.790   5.875  16.517  3.2402 -0.7881  1.0622
 9410TIP3    H249722   1.775   5.724  16.508 -1.5214 -0.3076 -0.6244
 9411TIP3   OH249723   5.928   3.628  16.616  0.2689  0.0997  0.0390
 9411TIP3    H149724   5.945   3.624  16.710  1.8990 -0.9476 -0.2701
 9411TIP3    H249725   5.877   3.549  16.597 -0.4072  0.5181  0.1066
 9412TIP3   OH249726   2.957   3.323  17.243 -0.3535  0.1926  0.6885
 9412TIP3    H149727   3.021   3.391  17.224 -1.7300  1.9462  2.1507
 9412TIP3    H249728   2.991   3.279  17.321 -0.5736  0.6914  1.0719
 9413TIP3   OH249729   4.237   5.584   3.807  0.1256  0.4143 -0.0651
 9413TIP3    H149730   4.327   5.608   3.783  0.1226 -0.5261 -1.0822
 9413TIP3    H249731   4.206   5.656   3.862  1.4307  0.8437  0.1140
 9414TIP3   OH249732   3.708   4.210   3.855  0.4320  0.0706 -0.3858
 9414TIP3    H149733   3.640   4.143   3.852  1.5018 -0.9643 -2.9863
 9414TIP3    H249734   3.697   4.251   3.940 -1.0898 -2.5340  0.7415
 9415TIP3   OH249735   0.939   1.327   1.556 -0.0821  0.3316  0.2884
 9415TIP3    H149736   0.869   1.262   1.551  0.1648  0.1050 -0.3588
 9415TIP3    H249737   0.899   1.403   1.597 -0.6540  0.1327  0.1046
 9416TIP3   OH249738   2.533   1.180  16.881 -0.4830  0.4716  0.3736
 9416TIP3    H149739   2.599   1.249  16.874 -0.3202  0.3282  0.4818
 9416TIP3    H249740   2.450   1.226  16.889 -0.3540  0.6583  0.6358
 9417TIP3   OH249741   4.067   6.060   5.019  0.3641 -0.6098  0.1470
 9417TIP3    H149742   4.008   6.074   4.945  0.1417 -0.7710  0.2928
 9417TIP3    H249743   4.051   5.969   5.046 -1.7595  0.3463  2.3170
 9418TIP3   OH249744   3.160   1.678  13.229  0.1063  0.3473  0.5853
 9418TIP3    H149745   3.065   1.688  13.223 -0.2697 -2.0517  1.8739
 9418TIP3    H249746   3.186   1.740  13.297 -0.7855 -0.2065  1.4514
 9419TIP3   OH249747   6.472   4.839   1.575 -0.9990 -0.1296  0.6577
 9419TIP3    H149748   6.482   4.929   1.545 -1.3114  0.1058  1.2674
 9419TIP3    H249749   6.492   4.786   1.497 -0.7576  0.4578  0.3157
 9420TIP3   OH249750   2.707   1.792  16.345  0.4255 -0.9209  0.2347
 9420TIP3    H149751   2.725   1.885  16.333  0.6244 -0.7504  1.7627
 9420TIP3    H249752   2.789   1.748  16.325  0.8561 -0.6136  1.2868
 9421TIP3   OH249753   6.238   3.645   4.453  0.5382  0.1486  0.6142
 9421TIP3    H149754   6.199   3.698   4.523 -2.0905 -1.6904  0.6256
 9421TIP3    H249755   6.251   3.706   4.381  0.6456  1.4916  1.7551
 9422TIP3   OH249756   5.695   2.244  13.071  0.4283  0.0013 -0.2067
 9422TIP3    H149757   5.712   2.334  13.097 -0.3562 -0.3055  1.4269
 9422TIP3    H249758   5.636   2.250  12.997  0.7446  0.8353 -0.3897
 9423TIP3   OH249759   2.687   5.692   0.689  0.2180  0.0151 -0.1015
 9423TIP3    H149760   2.655   5.661   0.774 -1.2404  0.9111 -0.2976
 9423TIP3    H249761   2.763   5.637   0.670 -0.2749 -1.1245  1.1333
 9424TIP3   OH249762   0.913   4.949   2.707 -0.1976 -1.0358 -0.4512
 9424TIP3    H149763   0.985   5.011   2.720 -1.0267 -0.4134  1.3834
 9424TIP3    H249764   0.869   4.979   2.627  0.5828 -0.4252 -0.6556
 9425TIP3   OH249765   2.940   4.958   1.245  0.1584 -0.2226 -0.2337
 9425TIP3    H149766   2.900   4.892   1.302  0.2066 -0.3142 -0.3065
 9425TIP3    H249767   2.871   4.981   1.183  0.5123 -1.0585 -0.9503
 9426TIP3   OH249768   5.583   0.403   5.340 -0.6976  0.5072 -0.5563
 9426TIP3    H149769   5.619   0.441   5.260 -0.8725  1.4245 -0.2104
 9426TIP3    H249770   5.583   0.475   5.403 -0.2576 -0.2843  0.3777
 9427TIP3   OH249771   4.743   6.506   4.524 -0.1252  0.2335  0.1217
 9427TIP3    H149772   4.771   6.536   4.611  0.8953  1.8342 -0.7486
 9427TIP3    H249773   4.807   6.440   4.499 -0.1119  0.1622  0.3418
 9428TIP3   OH249774   0.025   5.591   5.849  0.3260  0.5795  0.3808
 9428TIP3    H149775  -0.033   5.540   5.905  1.5690 -2.1583 -0.7398
 9428TIP3    H249776   0.055   5.663   5.905 -2.8503  1.1733  1.4266
 9429TIP3   OH249777   5.680   6.734  16.491 -0.0082  0.4501  0.0249
 9429TIP3    H149778   5.616   6.671  16.457  0.4650  0.1297 -0.2811
 9429TIP3    H249779   5.677   6.722  16.586 -0.5418  0.5734  0.0235
 9430TIP3   OH249780   5.701   2.135  16.306 -0.0984 -0.0044  0.1429
 9430TIP3    H149781   5.701   2.230  16.321  0.1864 -0.0617  0.5201
 9430TIP3    H249782   5.621   2.119  16.255  0.6878  0.6480 -1.3173
 9431TIP3   OH249783   6.538   4.531   6.009 -0.2359  0.0558 -0.8907
 9431TIP3    H149784   6.622   4.488   6.025 -0.2063 -0.0311 -1.2784
 9431TIP3    H249785   6.549   4.619   6.045  0.5603  0.5671 -2.3766
 9432TIP3   OH249786   6.242   0.970   0.733  0.2511  0.7374 -0.3175
 9432TIP3    H149787   6.174   1.000   0.674  0.9133  0.8516 -1.0362
 9432TIP3    H249788   6.315   1.030   0.718  0.3239  0.9468  0.8319
 9433TIP3   OH249789   6.556   2.226   0.883 -0.5184 -0.3310 -0.1285
 9433TIP3    H149790   6.572   2.239   0.790  1.5780  0.6360  0.3416
 9433TIP3    H249791   6.641   2.238   0.924 -1.1641 -2.0170  1.7951
 9434TIP3   OH249792   0.786   5.180   5.311 -0.3380  0.4100  0.2797
 9434TIP3    H149793   0.881   5.189   5.302 -0.2177 -0.3616  0.7079
 9434TIP3    H249794   0.760   5.120   5.241 -0.2248 -0.9205  1.3525
 9435TIP3   OH249795   3.083   4.508   1.039 -0.3408 -0.3845 -0.0729
 9435TIP3    H149796   3.059   4.479   1.127 -0.3984 -0.7756 -0.2134
 9435TIP3    H249797   3.055   4.436   0.982 -1.9597  0.6659 -0.6175
 9436TIP3   OH249798   3.875   5.825   4.381  0.4414 -0.6220  0.5552
 9436TIP3    H149799   3.896   5.743   4.336  0.1848 -0.2518 -0.2321
 9436TIP3    H249800   3.787   5.811   4.416 -0.0299 -0.2743 -0.5056
 9437TIP3   OH249801   4.803   3.372   3.203  0.4841  0.0180  0.2253
 9437TIP3    H149802   4.724   3.342   3.157  0.7786 -1.8682  0.9072
 9437TIP3    H249803   4.852   3.421   3.137 -0.6818  0.1797 -0.5413
 9438TIP3   OH249804   0.377   6.612   5.922 -0.1819  0.1346 -0.2647
 9438TIP3    H149805   0.413   6.596   5.835 -0.0584  0.2106 -0.2276
 9438TIP3    H249806   0.309   6.545   5.933 -0.1057  0.0421 -0.3653
 9439TIP3   OH249807   0.860   6.301  11.873  0.5612 -0.0711  0.0847
 9439TIP3    H149808   0.902   6.220  11.842 -0.4631  0.1216 -1.8933
 9439TIP3    H249809   0.768   6.277  11.883  0.3187  0.7620 -0.1807
 9440TIP3   OH249810   0.604   5.363  13.951 -0.3665  0.1932  0.3552
 9440TIP3    H149811   0.672   5.316  13.903  1.2495  1.5207  1.2786
 9440TIP3    H249812   0.525   5.311  13.938  0.5476 -0.7347 -1.7585
 9441TIP3   OH249813   0.765   0.117  11.098  0.2462  0.7881  0.5991
 9441TIP3    H149814   0.708   0.169  11.041 -0.0813  0.6510  0.8004
 9441TIP3    H249815   0.853   0.152  11.082 -0.0301  1.7178  1.0766
 9442TIP3   OH249816   5.954   6.071  15.062 -0.3433 -0.7004 -0.0295
 9442TIP3    H149817   6.003   6.090  15.142  0.8461 -1.9664 -0.4511
 9442TIP3    H249818   6.019   6.073  14.992 -1.1046 -1.1367 -0.7632
 9443TIP3   OH249819   1.982   1.376   4.891  0.3593 -0.3198  0.4721
 9443TIP3    H149820   1.921   1.331   4.832 -0.1378  1.0194 -0.0665
 9443TIP3    H249821   2.055   1.402   4.834 -0.1475  1.0296  0.4302
 9444TIP3   OH249822   0.971   3.026  11.973 -0.5022 -0.3863 -0.2267
 9444TIP3    H149823   0.969   2.949  11.916  0.0190 -1.0454  0.6180
 9444TIP3    H249824   0.893   3.016  12.029  0.2019 -0.9298  0.6719
 9445TIP3   OH249825   2.611   1.861   5.270 -0.2886 -0.4250 -0.4427
 9445TIP3    H149826   2.575   1.933   5.218  1.1860  0.7831  0.1439
 9445TIP3    H249827   2.574   1.782   5.231 -0.9186  0.5745 -1.9337
 9446TIP3   OH249828   0.911   6.555  17.127  0.8215 -0.6623  0.1767
 9446TIP3    H149829   0.995   6.586  17.161  0.2160 -1.1004  2.1347
 9446TIP3    H249830   0.874   6.501  17.197 -0.8245 -0.9913 -0.8903
 9447TIP3   OH249831   5.861   3.820   0.094  0.1600 -0.7245  0.1946
 9447TIP3    H149832   5.923   3.748   0.078  0.9960  0.4007 -1.9152
 9447TIP3    H249833   5.917   3.896   0.110 -0.6679  0.1310 -0.8931
 9448TIP3   OH249834   4.696   0.758  16.892  0.0638  0.0465 -0.2607
 9448TIP3    H149835   4.782   0.715  16.886 -0.2485 -0.4849 -0.9585
 9448TIP3    H249836   4.715   0.844  16.930  1.0619  0.4203 -1.5953
 9449TIP3   OH249837   0.384   5.133   2.101  0.3539 -0.3656  0.3104
 9449TIP3    H149838   0.470   5.159   2.068 -0.3533  1.2068 -0.3422
 9449TIP3    H249839   0.382   5.165   2.191  0.6681 -0.9184  0.5159
 9450TIP3   OH249840   0.362   5.571   1.692 -0.4999  0.0496  0.6621
 9450TIP3    H149841   0.372   5.612   1.606  0.5994  1.7406  1.5595
 9450TIP3    H249842   0.295   5.504   1.679 -0.8145  0.7169 -1.3603
 9451TIP3   OH249843   6.769   5.657  13.591  0.1297  0.1389 -0.1690
 9451TIP3    H149844   6.728   5.598  13.654 -0.0820  0.9981  0.4917
 9451TIP3    H249845   6.734   5.628  13.506  2.2074 -2.5628 -0.2005
 9452TIP3   OH249846   6.802   2.096   0.205 -0.0989  0.0127 -0.0993
 9452TIP3    H149847   6.850   2.111   0.123  0.0898 -0.0609 -0.0032
 9452TIP3    H249848   6.801   2.001   0.215  2.0229  0.0970  1.2437
 9453TIP3   OH249849   3.471   4.841  13.355  0.0508  0.4037  0.1909
 9453TIP3    H149850   3.426   4.871  13.277 -0.0428 -0.3549 -0.0502
 9453TIP3    H249851   3.534   4.910  13.375  1.5733 -0.3733 -1.7959
 9454TIP3   OH249852   3.546   0.610   2.196 -0.3225 -0.4863 -0.1675
 9454TIP3    H149853   3.571   0.565   2.277 -0.5481 -0.2779  0.0182
 9454TIP3    H249854   3.469   0.663   2.220  1.2974  1.7943  0.2058
 9455TIP3   OH249855   0.273   1.661   0.162 -0.1902 -0.3700 -0.2243
 9455TIP3    H149856   0.353   1.655   0.215 -0.6438  1.9293  0.7652
 9455TIP3    H249857   0.305   1.663   0.072  0.8194 -0.5238  0.1238
 9456TIP3   OH249858   1.359   0.150   3.329  0.3685 -0.2164  0.5443
 9456TIP3    H149859   1.441   0.197   3.349 -0.2086  0.7976  0.5547
 9456TIP3    H249860   1.347   0.091   3.404  0.8303 -0.0028  0.7903
 9457TIP3   OH249861   4.108   4.857  14.855 -0.3747  0.1895  0.1617
 9457TIP3    H149862   4.050   4.907  14.913 -0.8951 -0.3514  0.1259
 9457TIP3    H249863   4.147   4.922  14.798 -1.7615  0.4597 -0.5100
 9458TIP3   OH249864   4.093   6.007   4.400 -0.2374 -0.3022  0.0638
 9458TIP3    H149865   4.028   5.942   4.427  0.0381 -1.2295 -1.4577
 9458TIP3    H249866   4.041   6.079   4.362 -0.3686 -1.2969 -1.6882
 9459TIP3   OH249867   2.542   1.511  16.787 -0.7055  0.3515 -0.0928
 9459TIP3    H149868   2.510   1.493  16.699 -2.6822 -3.4201  1.2865
 9459TIP3    H249869   2.470   1.558  16.830  0.5222  2.8071 -0.6292
 9460TIP3   OH249870   6.611   2.492  15.009  0.3018 -0.3259 -0.1516
 9460TIP3    H149871   6.590   2.448  15.092  1.4752  0.7912  0.7714
 9460TIP3    H249872   6.697   2.532  15.025 -0.2127  1.2897 -1.3501
 9461TIP3   OH249873   3.105   4.360   5.118  0.2918  0.4297  0.2786
 9461TIP3    H149874   3.162   4.379   5.044 -1.2451  2.1825 -0.4975
 9461TIP3    H249875   3.162   4.367   5.195  2.2399 -2.8459 -0.7589
 9462TIP3   OH249876   4.963   0.115  16.654 -0.0563  0.0029  0.0833
 9462TIP3    H149877   4.936   0.023  16.665  0.5171 -0.0846  0.7923
 9462TIP3    H249878   5.002   0.118  16.567 -0.8154 -0.2484 -0.2699
 9463TIP3   OH249879   1.214   6.377  16.120  0.1832 -0.5067  0.1416
 9463TIP3    H149880   1.174   6.294  16.147 -2.2322  0.4413 -0.3757
 9463TIP3    H249881   1.140   6.431  16.091  1.6727  1.9466  0.7492
 9464TIP3   OH249882   5.267   5.552  16.669  0.8351 -0.0747  0.2560
 9464TIP3    H149883   5.238   5.513  16.586  1.6247  1.2896 -0.6782
 9464TIP3    H249884   5.356   5.519  16.680  1.5207  1.4463 -0.5541
 9465TIP3   OH249885   4.901   2.701  12.422 -0.9694 -0.3813  0.6537
 9465TIP3    H149886   4.947   2.705  12.338 -1.9897 -4.0533 -0.1259
 9465TIP3    H249887   4.821   2.752  12.408  0.4384  1.8688  0.5045
 9466TIP3   OH249888   1.425   4.087  16.343 -0.4267  0.1955 -0.7801
 9466TIP3    H149889   1.517   4.112  16.350 -0.3413  0.3429 -2.1821
 9466TIP3    H249890   1.421   3.998  16.378 -0.6377  1.8795  3.7629
 9467TIP3   OH249891   2.569   4.981   5.838  0.5196 -0.1836  0.2211
 9467TIP3    H149892   2.613   4.995   5.921 -0.0366  1.5676  0.2411
 9467TIP3    H249893   2.475   4.984   5.859  0.3719  1.0532 -0.5802
 9468TIP3   OH249894   5.158   1.311  11.529  0.0021 -0.1107 -0.2623
 9468TIP3    H149895   5.107   1.259  11.592  2.8699 -1.8742  0.6798
 9468TIP3    H249896   5.110   1.394  11.523 -1.8425 -0.9105  2.1597
 9469TIP3   OH249897   0.953   0.772  13.587  0.1128  0.7792  0.3785
 9469TIP3    H149898   1.047   0.753  13.577  0.1971  0.6287  1.3912
 9469TIP3    H249899   0.934   0.834  13.517 -0.0946 -2.7694 -2.8296
 9470TIP3   OH249900   3.264   4.672  15.106  0.3029  0.0844 -0.2376
 9470TIP3    H149901   3.351   4.710  15.115  0.1500  0.1697  0.9593
 9470TIP3    H249902   3.270   4.586  15.147 -0.0071 -0.1856 -0.7467
 9471TIP3   OH249903   5.584   2.862   4.925 -0.5667 -0.3535 -0.3580
 9471TIP3    H149904   5.567   2.856   5.019  0.5543 -1.1017 -0.1896
 9471TIP3    H249905   5.630   2.946   4.914 -0.9726 -0.1195 -0.2895
 9472TIP3   OH249906   1.792   5.350  13.865  0.0654  0.2196  0.5059
 9472TIP3    H149907   1.782   5.309  13.779  0.0465 -0.5711  0.8849
 9472TIP3    H249908   1.791   5.444  13.847 -1.2716  0.0745 -0.2167
 9473TIP3   OH249909   6.198   6.664   0.151 -0.1139 -0.0792  0.0890
 9473TIP3    H149910   6.235   6.693   0.234 -0.2263 -0.3130  0.2218
 9473TIP3    H249911   6.135   6.732   0.127 -1.5943 -1.0073  1.2280
 9474TIP3   OH249912   5.203   3.046  10.969 -0.5091  0.5532  0.8159
 9474TIP3    H149913   5.215   2.974  10.907  2.3838  2.9131 -1.5190
 9474TIP3    H249914   5.145   3.107  10.923  0.1415  1.4526  1.1649
 9475TIP3   OH249915   6.592   1.760  15.905 -0.5698  0.3658  0.3163
 9475TIP3    H149916   6.531   1.827  15.934  0.1034  1.2858 -0.3545
 9475TIP3    H249917   6.661   1.809  15.860  0.4901 -0.6801  0.7902
 9476TIP3   OH249918   2.039   2.384  12.322  0.2242 -0.5950  0.5242
 9476TIP3    H149919   2.057   2.470  12.283  0.7516 -0.5899  0.7776
 9476TIP3    H249920   2.124   2.339  12.320  0.3471 -0.4380  2.0624
 9477TIP3   OH249921   6.166   0.099  11.326 -0.4393 -0.4171 -0.4093
 9477TIP3    H149922   6.151   0.120  11.233 -1.7111 -0.2846 -0.1871
 9477TIP3    H249923   6.234   0.159  11.354 -1.0295  0.4973 -0.9050
 9478TIP3   OH249924   2.599   1.940  14.157  0.5286 -0.4807  0.3663
 9478TIP3    H149925   2.622   1.852  14.186 -0.7001 -0.6806  0.7380
 9478TIP3    H249926   2.635   1.997  14.225  0.1819 -0.7696  0.7935
 9479TIP3   OH249927   4.043   1.623   3.927 -0.0902 -0.0789 -0.0222
 9479TIP3    H149928   3.977   1.619   3.996  1.7475  0.5699  1.8349
 9479TIP3    H249929   4.044   1.715   3.900  2.7234  0.7843  2.7243
 9480TIP3   OH249930   0.517   4.310   3.064  0.6204 -0.3516  0.1477
 9480TIP3    H149931   0.481   4.398   3.071 -0.1563 -0.4273 -2.2786
 9480TIP3    H249932   0.581   4.316   2.993  1.3130 -1.5090  0.6511
 9481TIP3   OH249933   3.034   2.983  15.805 -0.1805 -0.9071 -0.4518
 9481TIP3    H149934   3.052   2.967  15.712  0.4004  0.4677 -0.5958
 9481TIP3    H249935   2.941   3.003  15.808 -0.3275 -1.5615 -0.6574
 9482TIP3   OH249936   4.348   6.534  12.376 -0.0946 -0.1261  0.3267
 9482TIP3    H149937   4.265   6.509  12.334  0.5614 -1.4606 -0.1799
 9482TIP3    H249938   4.415   6.496  12.320  0.8390 -0.1266  1.4436
 9483TIP3   OH249939   6.033   3.671   6.120 -0.0283 -0.0378 -0.4815
 9483TIP3    H149940   6.011   3.580   6.138  0.8211  0.0642  1.1759
 9483TIP3    H249941   6.124   3.679   6.149 -0.4339  1.6066  0.3617
 9484TIP3   OH249942   4.357   5.402   0.521  0.3840  0.2283  0.3552
 9484TIP3    H149943   4.338   5.355   0.440 -1.5064 -1.0498  1.5192
 9484TIP3    H249944   4.439   5.363   0.552 -1.0466 -2.1721  1.1912
 9485TIP3   OH249945   2.226   2.533   2.621  0.0320  0.2176  0.1818
 9485TIP3    H149946   2.205   2.626   2.615 -0.6367  0.0059 -0.7197
 9485TIP3    H249947   2.151   2.488   2.582  1.0757 -0.6367 -0.8617
 9486TIP3   OH249948   2.709   0.374  13.849 -0.3978  0.7058  0.2791
 9486TIP3    H149949   2.634   0.322  13.878 -0.8587  1.2276  0.0440
 9486TIP3    H249950   2.764   0.312  13.800 -1.0166  0.4688 -0.1263
 9487TIP3   OH249951   2.872   4.284  15.812  0.1477 -0.1932  0.1481
 9487TIP3    H149952   2.885   4.325  15.727 -0.6836  0.3441  0.2690
 9487TIP3    H249953   2.879   4.190  15.795 -0.5874 -0.1131 -0.6272
 9488TIP3   OH249954   1.731   3.824  11.261 -0.0277 -0.0976 -0.6615
 9488TIP3    H149955   1.793   3.896  11.249  0.0553 -0.2267 -1.0258
 9488TIP3    H249956   1.776   3.747  11.226  0.1586 -0.4647  0.3598
 9489TIP3   OH249957   3.526   2.219  15.535  0.3338 -0.1213 -0.1360
 9489TIP3    H149958   3.505   2.274  15.460  2.3635 -0.5206 -1.0178
 9489TIP3    H249959   3.449   2.163  15.546 -0.0210  0.0137 -1.8507
 9490TIP3   OH249960   4.636   2.303   6.058 -0.1076  0.2271  0.4533
 9490TIP3    H149961   4.578   2.313   6.134 -1.0012  0.5798 -0.2698
 9490TIP3    H249962   4.580   2.267   5.989  0.6572  0.0725 -0.0968
 9491TIP3   OH249963   5.788   4.424  11.507  0.4836 -0.1864  0.4892
 9491TIP3    H149964   5.857   4.382  11.559  0.5212 -0.5750  0.1311
 9491TIP3    H249965   5.747   4.352  11.460  1.0377  0.2815 -0.7089
 9492TIP3   OH249966   4.269   3.496  17.038  0.3242  0.1259 -0.1600
 9492TIP3    H149967   4.254   3.541  17.122  0.4615 -0.3618  0.1305
 9492TIP3    H249968   4.270   3.403  17.061 -0.5766 -0.0550 -0.8549
 9493TIP3   OH249969   4.929   3.561   6.458  0.1521  0.1607 -0.1510
 9493TIP3    H149970   4.868   3.631   6.434  1.4189  0.8566 -1.4132
 9493TIP3    H249971   4.884   3.481   6.433 -0.5546  0.6278 -0.4008
 9494TIP3   OH249972   1.652   4.608   3.801 -0.0150 -0.7239  0.3476
 9494TIP3    H149973   1.684   4.697   3.813 -2.7849  0.3761  0.0203
 9494TIP3    H249974   1.652   4.570   3.888  1.0740 -0.3704  0.5037
 9495TIP3   OH249975   0.561   1.269  13.233  0.5917  0.9130  0.4881
 9495TIP3    H149976   0.594   1.198  13.288 -0.7545  0.1196  0.2744
 9495TIP3    H249977   0.547   1.341  13.294 -0.1182  0.2994  1.0629
 9496TIP3   OH249978   1.085   1.597   2.852 -0.5203  0.6058  0.0854
 9496TIP3    H149979   1.164   1.617   2.902 -0.5051 -1.6539  1.0284
 9496TIP3    H249980   1.097   1.506   2.824 -2.5332  0.4205 -0.2538
 9497TIP3   OH249981   4.461   4.349  16.409 -0.2574 -0.7801 -0.6012
 9497TIP3    H149982   4.435   4.387  16.493 -1.7087  2.1745 -2.2943
 9497TIP3    H249983   4.555   4.367  16.403 -0.7194  1.6965 -0.8942
 9498TIP3   OH249984   2.153   3.298  12.051  0.4729 -0.3011 -0.2102
 9498TIP3    H149985   2.130   3.338  11.967  1.0295  1.8420  0.6342
 9498TIP3    H249986   2.081   3.321  12.110 -0.1946 -2.2617 -0.1922
 9499TIP3   OH249987   4.372   5.999  16.214  0.8622 -0.1751  0.4092
 9499TIP3    H149988   4.409   5.941  16.280  1.7312 -2.7475 -2.2358
 9499TIP3    H249989   4.447   6.038  16.171  0.2950  1.6480  1.0135
 9500TIP3   OH249990   6.105   6.714  14.639 -0.4549  0.3213 -0.3183
 9500TIP3    H149991   6.079   6.666  14.561  0.3992 -0.7286  0.0247
 9500TIP3    H249992   6.023   6.736  14.683 -0.8739 -0.4259 -0.7296
 9501TIP3   OH249993   6.130   5.070   5.785 -1.0218  0.6004  0.0228
 9501TIP3    H149994   6.135   5.163   5.762  0.3715  0.4696 -0.2457
 9501TIP3    H249995   6.152   5.067   5.878  2.1267  0.2590 -0.6510
 9502TIP3   OH249996   6.723   3.064   3.228  0.6007 -0.3881  0.0834
 9502TIP3    H149997   6.690   3.100   3.146  0.0646 -1.3269 -0.1223
 9502TIP3    H249998   6.809   3.105   3.239  0.2755  0.4493 -0.4674
 9503TIP3   OH249999   2.708   2.894   0.785 -0.1618  0.2085 -0.0736
 9503TIP3    H150000   2.645   2.922   0.851 -0.4579  0.5463 -0.4968
 9503TIP3    H250001   2.792   2.896   0.830 -0.3659  0.4118  0.3020
 9504TIP3   OH250002   2.105   5.777  10.552  0.6878  0.3506 -0.1643
 9504TIP3    H150003   2.079   5.747  10.640  1.1338 -3.2538 -1.1719
 9504TIP3    H250004   2.024   5.776  10.501  0.6949  0.9695 -0.1893
 9505TIP3   OH250005   0.954   5.386   2.138  0.2602 -0.3614  0.1314
 9505TIP3    H150006   0.881   5.439   2.168 -0.5064 -1.7051  0.6876
 9505TIP3    H250007   0.952   5.393   2.043 -1.4610 -1.4884  0.0545
 9506TIP3   OH250008   5.718   4.724  12.191 -0.3258 -0.1745 -0.0098
 9506TIP3    H150009   5.678   4.646  12.155  0.3479 -0.4568 -0.1512
 9506TIP3    H250010   5.754   4.770  12.115 -0.7986  0.3161  0.0627
 9507TIP3   OH250011   2.083   1.109  12.812 -0.2405 -0.3926 -0.0838
 9507TIP3    H150012   2.048   1.184  12.860 -2.0630 -0.1308 -1.7704
 9507TIP3    H250013   2.076   1.036  12.873  1.8795  0.8259  1.7022
 9508TIP3   OH250014   5.704   2.431  17.004  0.1582 -0.1992 -0.1804
 9508TIP3    H150015   5.772   2.435  16.936  0.9090  0.5589  0.6101
 9508TIP3    H250016   5.668   2.342  16.996  1.3282 -0.6555 -0.5174
 9509TIP3   OH250017   1.673   6.503  16.482 -0.1605 -0.3288 -0.5220
 9509TIP3    H150018   1.684   6.552  16.401 -0.6442 -0.2951 -0.5657
 9509TIP3    H250019   1.743   6.537  16.539 -2.2938  2.5450  0.4892
 9510TIP3   OH250020   1.956   3.662   2.438 -0.2431  0.2208 -0.5549
 9510TIP3    H150021   2.024   3.680   2.502  0.2478  0.0905 -1.0378
 9510TIP3    H250022   1.996   3.600   2.377 -0.7943  0.1372 -0.8376
 9511TIP3   OH250023   0.533   0.928  13.635 -0.0563 -0.6015 -0.2824
 9511TIP3    H150024   0.484   0.997  13.678  0.8468 -0.5107  0.6092
 9511TIP3    H250025   0.487   0.914  13.552 -1.1900 -0.0708  0.2516
 9512TIP3   OH250026   4.371   3.745  15.984  0.7891  0.1601 -0.4775
 9512TIP3    H150027   4.315   3.801  15.930  2.4772  1.2646 -1.1361
 9512TIP3    H250028   4.440   3.804  16.015  0.7861 -0.8552  1.5030
 9513TIP3   OH250029   5.005   1.044   5.467  0.2451 -0.3912 -0.0532
 9513TIP3    H150030   5.077   1.014   5.523  1.4184  1.1371 -0.6983
 9513TIP3    H250031   4.939   0.975   5.474  1.2206 -1.2013  1.5883
 9514TIP3   OH250032   0.532   4.766  14.914 -0.4863  0.1230  0.6140
 9514TIP3    H150033   0.543   4.762  15.009 -0.7058 -1.4112  0.5796
 9514TIP3    H250034   0.520   4.860  14.895  0.9515  0.5908  1.9329
 9515TIP3   OH250035   1.501   0.720  15.377  0.3201  0.2432 -0.8306
 9515TIP3    H150036   1.457   0.657  15.435  0.0528  1.6535  0.5554
 9515TIP3    H250037   1.430   0.769  15.336  0.5414  0.6426 -0.7448
 9516TIP3   OH250038   6.023   4.327  15.844  0.3131  0.4823  1.3302
 9516TIP3    H150039   6.013   4.410  15.799  0.4783 -0.3754 -0.3395
 9516TIP3    H250040   6.116   4.321  15.864  0.5890 -0.0395 -0.0503
 9517TIP3   OH250041   4.641   2.953  13.487  0.0302  0.2751  0.4148
 9517TIP3    H150042   4.598   2.898  13.552 -0.1002  0.0091  0.1092
 9517TIP3    H250043   4.704   3.004  13.536 -1.6037  1.6886  1.1128
 9518TIP3   OH250044   5.764   6.350  16.689 -0.0578 -0.0077  0.1132
 9518TIP3    H150045   5.803   6.391  16.611 -1.1466 -0.8636 -0.9060
 9518TIP3    H250046   5.713   6.277  16.654  1.1432 -1.7190  1.8251
 9519TIP3   OH250047   1.257   2.054   3.723 -0.0767 -0.1733  0.5559
 9519TIP3    H150048   1.334   2.069   3.669 -1.4204  1.7606 -0.8929
 9519TIP3    H250049   1.248   1.959   3.727  2.9184 -0.4816  1.5830
 9520TIP3   OH250050   0.573   1.428  16.242  0.0113  0.3194  0.1339
 9520TIP3    H150051   0.478   1.435  16.231  0.1604 -0.0024 -1.5758
 9520TIP3    H250052   0.588   1.443  16.335 -1.8671 -1.1762  0.7147
 9521TIP3   OH250053   5.422   3.089  12.676  0.3588 -0.7108  0.1216
 9521TIP3    H150054   5.376   3.164  12.638  0.0846  0.5651  2.9143
 9521TIP3    H250055   5.508   3.124  12.700  0.0159 -1.1008  1.9959
 9522TIP3   OH250056   4.428   2.533  13.406  0.0356  0.9984  0.7365
 9522TIP3    H150057   4.448   2.448  13.368 -1.3336  0.5113  1.0557
 9522TIP3    H250058   4.495   2.592  13.371 -0.1431  0.1910 -1.0173
 9523TIP3   OH250059   2.155   2.441  15.750 -0.4567 -0.1945 -0.4888
 9523TIP3    H150060   2.249   2.458  15.745 -0.6058  0.3443 -1.7063
 9523TIP3    H250061   2.138   2.376  15.682 -0.8023 -1.0519  0.4105
 9524TIP3   OH250062   1.334   1.102   4.898  0.2014 -0.2367  0.3814
 9524TIP3    H150063   1.371   1.146   4.975  1.7602 -0.4534 -0.2266
 9524TIP3    H250064   1.274   1.037   4.934 -0.4495  0.8711  1.3594
 9525TIP3   OH250065   0.854   6.323  12.290 -0.8496 -0.2497  0.2643
 9525TIP3    H150066   0.832   6.361  12.375 -1.7296  1.1001 -0.5435
 9525TIP3    H250067   0.887   6.397  12.239  1.0844 -1.3330 -0.1149
 9526TIP3   OH250068   3.299   1.549  14.518 -0.0975 -0.5771 -0.0092
 9526TIP3    H150069   3.383   1.583  14.487  0.5177 -0.2147  1.9887
 9526TIP3    H250070   3.322   1.492  14.592 -1.7976  2.1899  2.7847
 9527TIP3   OH250071   6.226   4.467   4.094  0.9960 -0.0364  0.2739
 9527TIP3    H150072   6.189   4.394   4.144  1.9580  0.4655  1.7720
 9527TIP3    H250073   6.275   4.426   4.023 -2.8101 -0.7212 -2.1264
 9528TIP3   OH250074   5.220   3.698   2.672 -0.5256  0.1741 -0.7230
 9528TIP3    H150075   5.266   3.690   2.589 -0.0278  1.9069 -0.6193
 9528TIP3    H250076   5.281   3.744   2.730  0.0184 -2.9714  1.3195
 9529TIP3   OH250077   0.600   2.276  16.050  0.1682 -0.4581 -0.0693
 9529TIP3    H150078   0.629   2.185  16.045 -1.2369 -0.9418  0.2437
 9529TIP3    H250079   0.606   2.308  15.960  2.0545 -0.4031  0.0558
 9530TIP3   OH250080   2.221   1.504   3.673 -0.1701 -0.1755 -0.2418
 9530TIP3    H150081   2.199   1.502   3.580  1.6085  0.6511 -0.6942
 9530TIP3    H250082   2.244   1.413   3.694  2.5274  0.2107 -1.3961
 9531TIP3   OH250083   1.335   1.703  13.125 -0.2544 -0.5935  0.2575
 9531TIP3    H150084   1.380   1.620  13.140 -0.0069 -0.2026  1.7757
 9531TIP3    H250085   1.268   1.682  13.060  3.2285 -0.8031 -3.4969
 9532TIP3   OH250086   2.207   1.161   2.066  0.0176  0.8235  0.5949
 9532TIP3    H150087   2.294   1.201   2.067  0.3142  0.1730  1.4388
 9532TIP3    H250088   2.223   1.067   2.066 -0.6751  0.6666 -1.3221
 9533TIP3   OH250089   0.790   4.132   4.547 -0.4269 -0.1803 -0.6717
 9533TIP3    H150090   0.799   4.122   4.453 -1.0256 -0.5612 -0.6912
 9533TIP3    H250091   0.700   4.104   4.566 -0.2407 -0.3119  0.0384
 9534TIP3   OH250092   6.242   0.798  13.416  0.0880 -0.0043 -0.0627
 9534TIP3    H150093   6.148   0.779  13.421  0.3611 -1.2265  0.5143
 9534TIP3    H250094   6.264   0.783  13.324 -0.3735  0.7500 -0.3002
 9535TIP3   OH250095   2.779   2.674  13.607  0.1121 -0.1518  0.2163
 9535TIP3    H150096   2.684   2.684  13.620  0.1061 -1.0802  0.9824
 9535TIP3    H250097   2.817   2.754  13.642 -0.1413 -1.3021  3.3055
 9536TIP3   OH250098   0.241   0.145  14.913 -0.6686  0.2352  0.0982
 9536TIP3    H150099   0.315   0.126  14.857 -1.0105 -0.2920 -0.1853
 9536TIP3    H250100   0.201   0.223  14.876 -1.6082 -0.8083 -1.1252
 9537TIP3   OH250101   4.923   2.653  13.654 -0.3253  0.1950  0.1648
 9537TIP3    H150102   4.888   2.731  13.696  0.3542  0.6394 -0.0814
 9537TIP3    H250103   4.848   2.595  13.645 -0.7525  0.6544  0.7259
 9538TIP3   OH250104   1.599   1.666  11.367  0.1543  0.4682 -0.1302
 9538TIP3    H150105   1.633   1.609  11.298 -0.5054  0.9886 -0.9062
 9538TIP3    H250106   1.677   1.709  11.403  0.3759  1.5269 -1.7820
 9539TIP3   OH250107   4.933   2.923  14.221 -0.7765  0.3128 -0.5700
 9539TIP3    H150108   4.931   2.879  14.306  0.2423  0.1197 -0.6363
 9539TIP3    H250109   4.902   3.012  14.239 -1.6799 -0.0729 -0.2120
 9540TIP3   OH250110   5.096   1.457   6.067 -0.1463 -0.5597  0.6063
 9540TIP3    H150111   5.114   1.391   6.000  2.2044 -0.5056  1.1480
 9540TIP3    H250112   5.123   1.417   6.149 -2.7005 -0.5005  1.5278
 9541TIP3   OH250113   4.115   5.826   6.287 -0.3422 -0.2273  0.1873
 9541TIP3    H150114   4.034   5.785   6.258 -0.8538 -0.2026  1.5360
 9541TIP3    H250115   4.100   5.920   6.273 -0.5617 -0.2191  0.4780
 9542TIP3   OH250116   6.011   5.918  16.509 -0.1474 -0.4782  0.5630
 9542TIP3    H150117   6.013   5.865  16.429 -0.8152 -1.9603  1.5206
 9542TIP3    H250118   5.957   5.868  16.570 -0.8552  1.3439  1.4573
 9543TIP3   OH250119   0.575   3.312  14.156 -0.2310 -0.4464 -0.4208
 9543TIP3    H150120   0.483   3.331  14.172  0.1542 -0.1325  1.5531
 9543TIP3    H250121   0.586   3.220  14.179 -0.6097 -1.2529 -3.2990
 9544TIP3   OH250122   2.677   1.938  13.340 -0.5544 -0.0630  0.5237
 9544TIP3    H150123   2.606   1.919  13.278 -0.4772  2.0397 -0.2335
 9544TIP3    H250124   2.644   2.012  13.391  0.8215  0.4765  0.6296
 9545TIP3   OH250125   2.049   4.289  12.383 -0.0895 -0.7809  0.0429
 9545TIP3    H150126   1.971   4.341  12.368  0.0028 -0.7234 -0.2289
 9545TIP3    H250127   2.121   4.342  12.348  0.1470 -0.5449  0.8813
 9546TIP3   OH250128   6.771   4.344   2.371 -0.0372  0.0241 -0.5112
 9546TIP3    H150129   6.699   4.313   2.425  0.7508  0.1546  0.6473
 9546TIP3    H250130   6.837   4.374   2.434  0.3034  1.5617 -1.5614
 9547TIP3   OH250131   3.302   5.931   4.456 -0.0098  0.3820  0.3116
 9547TIP3    H150132   3.285   5.845   4.496 -1.2689  0.0843 -0.8120
 9547TIP3    H250133   3.338   5.910   4.370 -0.9015  0.9695 -0.2088
 9548TIP3   OH250134   0.713   3.044   3.351  0.4514  0.6340 -0.2005
 9548TIP3    H150135   0.804   3.015   3.345 -0.3478 -2.0892  0.3416
 9548TIP3    H250136   0.692   3.037   3.444 -0.4674  0.8206 -0.3931
 9549TIP3   OH250137   4.428   2.999   1.374 -0.8459 -0.6609 -0.2113
 9549TIP3    H150138   4.411   2.986   1.280  0.0730  0.0906 -0.5022
 9549TIP3    H250139   4.453   3.092   1.380 -0.4146 -0.8348  0.7021
 9550TIP3   OH250140   1.848   1.892   4.886  0.7150 -1.1474  0.1386
 9550TIP3    H150141   1.778   1.915   4.825  2.3162  0.7802 -1.0587
 9550TIP3    H250142   1.817   1.925   4.970  0.1570 -0.3376 -0.3726
 9551TIP3   OH250143   3.750   4.319  11.314 -0.3098  0.4479 -0.1796
 9551TIP3    H150144   3.796   4.355  11.389 -0.5008 -0.5524  0.4293
 9551TIP3    H250145   3.667   4.366  11.311  0.7003  2.2024 -1.2318
 9552TIP3   OH250146   0.798   4.852   5.631  0.8418 -0.2384  0.6464
 9552TIP3    H150147   0.813   4.945   5.614  0.6865 -0.6415 -1.8533
 9552TIP3    H250148   0.839   4.807   5.557  1.2283 -2.1830  2.0205
 9553TIP3   OH250149   5.772   4.977   0.192 -0.5377 -0.3768 -0.0955
 9553TIP3    H150150   5.785   5.067   0.161  1.3351 -0.8257 -0.7011
 9553TIP3    H250151   5.700   4.984   0.254 -0.4527  1.5545 -0.1598
 9554TIP3   OH250152   2.896   4.397   0.429  0.3523 -0.2677 -0.2014
 9554TIP3    H150153   2.937   4.449   0.361  0.4999  0.7816  0.6847
 9554TIP3    H250154   2.904   4.306   0.398  0.1623  0.2182 -1.6959
 9555TIP3   OH250155   6.124   1.667  13.346 -0.0829  0.3353  0.6486
 9555TIP3    H150156   6.112   1.670  13.251  1.7734 -1.4674  0.3354
 9555TIP3    H250157   6.152   1.756  13.369 -0.5802  0.7994 -0.4786
 9556TIP3   OH250158   0.302   3.831   4.760  0.3169 -0.0193  0.4825
 9556TIP3    H150159   0.250   3.858   4.685 -1.3362 -2.9612  0.4789
 9556TIP3    H250160   0.277   3.890   4.831 -0.8122  0.4694 -0.3187
 9557TIP3   OH250161   3.876   6.715   0.475 -0.4194  0.0777 -0.6500
 9557TIP3    H150162   3.852   6.674   0.558 -0.6756  0.9368 -0.2955
 9557TIP3    H250163   3.966   6.686   0.459 -0.9099 -1.3407 -0.8528
 9558TIP3   OH250164   6.315   3.070   1.233  0.0129  0.5516 -0.5466
 9558TIP3    H150165   6.271   3.073   1.318  2.1533 -0.1631  0.6266
 9558TIP3    H250166   6.262   3.009   1.181 -0.6476  0.0629  0.6666
 9559TIP3   OH250167   4.578   5.114  14.274  0.3995  0.9366  0.1616
 9559TIP3    H150168   4.488   5.133  14.249  0.2963  1.3220  0.7993
 9559TIP3    H250169   4.617   5.200  14.288  0.8117  0.7630  0.0731
 9560TIP3   OH250170   2.776   0.765  16.307  0.1912  0.2524 -0.2980
 9560TIP3    H150171   2.762   0.778  16.213  1.2649 -0.4190 -0.5557
 9560TIP3    H250172   2.694   0.727  16.339  0.4887 -1.2451 -1.2988
 9561TIP3   OH250173   4.625   3.353  12.515 -0.2467 -0.9831 -0.2206
 9561TIP3    H150174   4.701   3.384  12.465 -0.4715 -1.7066 -1.0266
 9561TIP3    H250175   4.661   3.289  12.576  0.2912  1.1079  1.7526
 9562TIP3   OH250176   3.137   0.750  16.615 -0.4082 -0.0628 -0.8716
 9562TIP3    H150177   3.192   0.753  16.693  0.0827 -2.6019 -1.0618
 9562TIP3    H250178   3.060   0.801  16.638  0.7163  1.0703  0.4665
 9563TIP3   OH250179   2.967   5.102  14.104  0.1860 -0.6032 -0.5138
 9563TIP3    H150180   2.931   5.027  14.151 -1.5216 -0.8600 -2.1729
 9563TIP3    H250181   2.898   5.129  14.043  0.4849  2.7390  0.4925
 9564TIP3   OH250182   5.952   0.616   5.104  0.1561  0.1879  0.2753
 9564TIP3    H150183   5.958   0.712   5.107 -0.9902  0.2452  0.7190
 9564TIP3    H250184   5.860   0.597   5.118  0.9104 -1.1566  3.6964
 9565TIP3   OH250185   5.536   5.193  10.662  0.4537  0.3726  0.5132
 9565TIP3    H150186   5.577   5.115  10.698  1.6879  0.8975  0.2578
 9565TIP3    H250187   5.451   5.163  10.630  1.3191 -1.0513 -0.4710
 9566TIP3   OH250188   4.171   5.508   4.267  0.1279 -0.3831  0.0460
 9566TIP3    H150189   4.218   5.550   4.339 -2.2217  1.2678  0.6724
 9566TIP3    H250190   4.209   5.420   4.262  1.1102 -0.1537  2.5562
 9567TIP3   OH250191   0.368   4.713   5.200 -0.7554  0.0742  0.0003
 9567TIP3    H150192   0.334   4.624   5.212  0.5200 -0.6510 -1.6585
 9567TIP3    H250193   0.403   4.738   5.286  0.4043 -1.6768  0.0466
 9568TIP3   OH250194   0.426   0.829  10.719 -0.5811 -0.8170 -0.3309
 9568TIP3    H150195   0.338   0.855  10.694 -0.3716 -0.6971 -0.9468
 9568TIP3    H250196   0.476   0.910  10.721 -0.4021 -0.9250 -0.3173
 9569TIP3   OH250197   1.154   6.754  12.114  0.4556  0.4181  0.0567
 9569TIP3    H150198   1.244   6.725  12.097 -0.4292 -1.7481 -1.0878
 9569TIP3    H250199   1.119   6.775  12.027  0.1759  2.3242  0.5951
 9570TIP3   OH250200   0.277   0.976  14.668 -0.6988 -0.0245 -0.2943
 9570TIP3    H150201   0.271   0.897  14.613  0.0259  1.6263 -2.8139
 9570TIP3    H250202   0.331   1.036  14.618 -0.1581  1.6236  2.2047
 9571TIP3   OH250203   2.855   0.910   1.261 -0.1543 -0.2796  0.6185
 9571TIP3    H150204   2.861   0.876   1.350  0.9628 -2.2411 -0.1783
 9571TIP3    H250205   2.918   0.982   1.258 -0.2375 -0.1692  1.4133
 9572TIP3   OH250206   3.727   4.755  10.513  0.4678 -0.0488 -0.2818
 9572TIP3    H150207   3.692   4.704  10.439  1.0338  0.2542 -0.7610
 9572TIP3    H250208   3.687   4.715  10.590 -0.0427 -0.4420 -0.7430
 9573TIP3   OH250209   2.164   0.978   0.053 -1.0137 -0.3575 -0.4581
 9573TIP3    H150210   2.193   1.067   0.038 -1.4227 -0.0679  0.4266
 9573TIP3    H250211   2.212   0.925  -0.011 -0.4449  0.4330 -0.6821
 9574TIP3   OH250212   5.109   0.289  11.945 -0.2398  0.5086  0.1385
 9574TIP3    H150213   5.176   0.277  11.878  1.4345  1.9622  1.4997
 9574TIP3    H250214   5.101   0.202  11.986  0.7330  0.3070 -0.0924
 9575TIP3   OH250215   5.573   0.751  15.056 -0.3525 -0.3370 -0.0428
 9575TIP3    H150216   5.574   0.842  15.085  0.7384  0.0381 -1.2219
 9575TIP3    H250217   5.523   0.705  15.124 -0.8645  1.1205  0.5898
 9576TIP3   OH250218   0.966   2.518  12.155 -0.1094  0.8872 -0.6694
 9576TIP3    H150219   1.023   2.459  12.106 -1.2061  1.4725 -2.7024
 9576TIP3    H250220   0.881   2.474  12.155 -0.1313  0.8946  0.7421
 9577TIP3   OH250221   3.654   0.691   1.442 -0.2641  0.0399 -0.3038
 9577TIP3    H150222   3.618   0.730   1.362 -0.5106  1.4430  0.4669
 9577TIP3    H250223   3.577   0.673   1.496  0.1499  4.0399  1.7913
 9578TIP3   OH250224   0.064   6.399   1.771  0.2565  0.0782  0.0792
 9578TIP3    H150225   0.099   6.313   1.751  0.8044  0.2923  0.1073
 9578TIP3    H250226   0.140   6.457   1.768 -0.5947  1.1598 -3.3397
 9579TIP3   OH250227   0.130   3.304   2.977  0.3301 -0.5686 -0.0165
 9579TIP3    H150228   0.171   3.335   2.896 -0.0848  0.5547  0.2064
 9579TIP3    H250229   0.036   3.319   2.963 -0.0336 -2.9238 -0.4404
 9580TIP3   OH250230   5.321   1.909  16.023 -0.0511 -0.1953  0.1860
 9580TIP3    H150231   5.347   1.828  15.979  1.0731 -0.4958  1.3645
 9580TIP3    H250232   5.333   1.977  15.957 -0.3155 -0.8886 -0.5895
 9581TIP3   OH250233   4.264   3.543  16.505 -0.6173  0.2935 -0.1791
 9581TIP3    H150234   4.295   3.536  16.595  2.1811 -0.6551 -1.1817
 9581TIP3    H250235   4.281   3.634  16.481  0.9583 -0.0758 -0.5333
 9582TIP3   OH250236   2.725   4.248  14.783 -0.1105 -0.2908 -0.4534
 9582TIP3    H150237   2.786   4.200  14.839 -1.1800 -1.3736 -0.1984
 9582TIP3    H250238   2.776   4.324  14.752  1.4600 -1.3333 -0.5133
 9583TIP3   OH250239   5.818   2.537  12.404 -0.3045  0.1029 -0.9576
 9583TIP3    H150240   5.759   2.554  12.332 -0.4435  1.0098 -0.6318
 9583TIP3    H250241   5.798   2.605  12.469 -0.1371 -0.6560 -0.0956
 9584TIP3   OH250242   4.133   5.831  13.718  0.8325  0.1785 -0.1553
 9584TIP3    H150243   4.150   5.888  13.644  2.9624 -0.7552 -0.4304
 9584TIP3    H250244   4.220   5.809  13.751  0.0147 -2.0303  0.5967
 9585TIP3   OH250245   0.137   3.946  11.132 -0.0013  0.2167 -0.2630
 9585TIP3    H150246   0.181   3.887  11.069  0.1937 -0.1005  0.1681
 9585TIP3    H250247   0.061   3.979  11.085  0.0332 -0.1801 -0.5982
 9586TIP3   OH250248   2.722   3.250  17.129  0.5316 -0.3249 -0.2967
 9586TIP3    H150249   2.714   3.168  17.082 -1.7991 -1.4810  1.9809
 9586TIP3    H250250   2.816   3.259  17.147  0.7829 -2.5449 -0.4454
 9587TIP3   OH250251   4.740   5.514   3.986  0.4644  0.2609  0.1304
 9587TIP3    H150252   4.699   5.476   3.908 -0.6587  0.0161  0.8298
 9587TIP3    H250253   4.816   5.562   3.952  2.4032 -3.2374 -0.7162
 9588TIP3   OH250254   3.929   1.310   0.079  0.6268  0.3386 -0.0501
 9588TIP3    H150255   3.857   1.248   0.086  0.7454  0.2508  0.4207
 9588TIP3    H250256   3.999   1.262   0.035  0.3700  0.4474 -0.5735
 9589TIP3   OH250257   2.865   0.833  12.545 -0.3399  0.6523  0.3250
 9589TIP3    H150258   2.904   0.859  12.461  1.5043  1.2191  1.3338
 9589TIP3    H250259   2.774   0.860  12.538  0.0904  1.8305 -1.0162
 9590TIP3   OH250260   2.019   0.734   1.770  0.5433 -0.2929  0.4001
 9590TIP3    H150261   1.996   0.826   1.786 -2.2165 -0.9991  0.8672
 9590TIP3    H250262   2.074   0.710   1.845  0.2558  0.6526  0.9252
 9591TIP3   OH250263   5.758   2.566   3.210  0.1513 -0.0342  0.2015
 9591TIP3    H150264   5.843   2.575   3.254 -0.1897 -1.4185  1.1805
 9591TIP3    H250265   5.775   2.509   3.135  0.3639  0.8222 -0.4031
 9592TIP3   OH250266   5.091   4.778  14.210  0.3482 -0.3105 -0.2898
 9592TIP3    H150267   5.026   4.718  14.247  0.6646  0.5938  1.7370
 9592TIP3    H250268   5.056   4.800  14.123 -1.8747 -0.1247  0.6272
 9593TIP3   OH250269   6.530   5.576  13.960  0.3980  0.3284  0.6046
 9593TIP3    H150270   6.579   5.524  13.896 -0.6497  1.9086 -1.5219
 9593TIP3    H250271   6.468   5.514  13.999 -0.7829 -0.0815 -1.8439
 9594TIP3   OH250272   1.612   1.521  12.583 -0.2250 -0.0750  0.1307
 9594TIP3    H150273   1.560   1.564  12.515  0.2888 -0.6432 -0.6224
 9594TIP3    H250274   1.582   1.561  12.665 -1.4220  0.0262 -0.3492
 9595TIP3   OH250275   0.465   0.458  13.223 -0.4756 -0.2916 -0.2210
 9595TIP3    H150276   0.515   0.520  13.171  1.4013 -2.3571 -0.9485
 9595TIP3    H250277   0.452   0.502  13.307 -0.2903  1.5716 -1.1395
 9596TIP3   OH250278   3.045   2.616  15.084  0.0838 -0.6972 -0.0836
 9596TIP3    H150279   3.049   2.581  15.173 -1.2581  3.0608  1.5459
 9596TIP3    H250280   3.127   2.665  15.074 -1.4379  2.0584  0.5443
 9597TIP3   OH250281   4.566   4.311  15.890  0.4744  0.3034  0.1075
 9597TIP3    H150282   4.496   4.285  15.950  0.1445  1.3808  0.1927
 9597TIP3    H250283   4.577   4.405  15.904  1.3785  0.3002 -0.4938
 9598TIP3   OH250284   3.038   2.671  14.042 -0.2958  0.3135  0.0537
 9598TIP3    H150285   3.109   2.712  14.092 -0.3838 -1.4803  1.7131
 9598TIP3    H250286   3.083   2.611  13.983 -0.3994 -1.3499  1.5959
 9599TIP3   OH250287   2.724   3.634   4.973  0.7276 -0.5196  0.6111
 9599TIP3    H150288   2.663   3.584   5.027  2.0881 -1.1451  1.5889
 9599TIP3    H250289   2.801   3.646   5.028  0.8040  1.8400  0.0556
 9600TIP3   OH250290   5.467   0.349  13.407  0.4043  0.1570 -0.1647
 9600TIP3    H150291   5.477   0.366  13.314 -0.6100 -1.5140 -0.5874
 9600TIP3    H250292   5.544   0.298  13.431 -0.2665 -1.0506 -0.5170
 9601TIP3   OH250293   4.622   4.357   4.641  0.5081  0.0549  0.3088
 9601TIP3    H150294   4.545   4.319   4.599 -0.2530  0.7489  1.0436
 9601TIP3    H250295   4.615   4.451   4.625  0.1092  0.3507  2.1061
 9602TIP3   OH250296   3.227   4.036   1.053 -0.3195  0.4562 -0.6816
 9602TIP3    H150297   3.194   4.106   1.109 -1.7516 -1.0148  0.3570
 9602TIP3    H250298   3.222   4.072   0.964  0.5243  2.2514 -0.0161
 9603TIP3   OH250299   3.929   2.949  13.888  0.0051 -0.3222  0.6598
 9603TIP3    H150300   4.011   2.987  13.857 -1.0076  0.2061 -1.4579
 9603TIP3    H250301   3.917   2.985  13.976  2.9400 -1.8536  1.7336
 9604TIP3   OH250302   2.820   0.897   5.759 -0.1752  0.1022  0.0399
 9604TIP3    H150303   2.808   0.837   5.685 -0.0333  0.2487 -0.1034
 9604TIP3    H250304   2.903   0.871   5.797  0.6489  1.2081 -0.9692
 9605TIP3   OH250305   2.402   5.500   2.577  0.0432  1.0412 -0.6216
 9605TIP3    H150306   2.445   5.557   2.513  2.1895  1.5938  1.2344
 9605TIP3    H250307   2.473   5.471   2.635 -1.6828 -0.1438  0.9787
 9606TIP3   OH250308   1.136   0.517   5.940 -0.4892  0.4430  0.0561
 9606TIP3    H150309   1.183   0.434   5.949 -1.7930 -0.1445  1.7936
 9606TIP3    H250310   1.072   0.500   5.870 -1.4870 -0.4108  1.1387
 9607TIP3   OH250311   3.160   2.692   2.005  0.0108 -0.3414  0.2842
 9607TIP3    H150312   3.165   2.776   2.051 -0.5189 -0.4268  0.5007
 9607TIP3    H250313   3.233   2.694   1.943  1.1076 -0.4918  1.5561
 9608TIP3   OH250314   3.734   0.620  15.775 -0.1626 -0.8456  0.5389
 9608TIP3    H150315   3.666   0.681  15.743  1.0004 -0.3855 -1.1200
 9608TIP3    H250316   3.735   0.634  15.870 -2.6325 -1.1261  0.6595
 9609TIP3   OH250317   1.345   4.612   0.173 -0.0275  0.2252 -0.1338
 9609TIP3    H150318   1.282   4.610   0.245 -0.1850  1.9292 -0.2155
 9609TIP3    H250319   1.294   4.635   0.096  0.6046  1.1487 -0.2868
 9610TIP3   OH250320   2.195   3.913  16.333  0.4072 -0.2944 -0.0638
 9610TIP3    H150321   2.149   3.847  16.385  0.9306  0.8172  1.8513
 9610TIP3    H250322   2.205   3.872  16.247 -2.3849 -1.3221  0.0357
 9611TIP3   OH250323   0.848   2.662   5.809 -0.3947  0.4133  0.5632
 9611TIP3    H150324   0.784   2.727   5.780 -1.4716 -0.9422 -0.1163
 9611TIP3    H250325   0.800   2.607   5.870 -0.6877 -2.2693 -1.9759
 9612TIP3   OH250326   5.361   4.744   1.900  0.1841 -0.0374 -0.4910
 9612TIP3    H150327   5.410   4.792   1.834  0.8400  0.4667  0.3612
 9612TIP3    H250328   5.427   4.711   1.961 -0.1625 -2.6681 -1.4601
 9613TIP3   OH250329   4.806   3.441  16.188 -0.0098 -0.4265  0.3998
 9613TIP3    H150330   4.865   3.487  16.128 -1.0450 -1.0443 -1.1405
 9613TIP3    H250331   4.764   3.511  16.238  1.0938  0.0847  0.6260
 9614TIP3   OH250332   1.901   6.635  11.257  0.2397  0.2122 -0.3454
 9614TIP3    H150333   1.955   6.570  11.301  0.1822 -0.4387 -1.2273
 9614TIP3    H250334   1.824   6.587  11.226 -0.0519  0.8006 -0.5566
 9615TIP3   OH250335   4.283   5.337  16.813 -0.2890  0.2305 -0.1825
 9615TIP3    H150336   4.329   5.311  16.733 -0.1840 -1.2234  0.3191
 9615TIP3    H250337   4.334   5.298  16.883 -0.2994  1.6223  0.6090
 9616TIP3   OH250338   2.154   2.501  16.960  0.2464  0.1133 -0.2483
 9616TIP3    H150339   2.071   2.459  16.935 -0.6209  1.3019  0.5820
 9616TIP3    H250340   2.219   2.431  16.954 -0.7456 -0.7353 -1.3204
 9617TIP3   OH250341   4.641   2.263  12.098 -0.3472 -0.3336  0.1002
 9617TIP3    H150342   4.562   2.216  12.126 -1.2548  0.5123 -1.0074
 9617TIP3    H250343   4.610   2.322  12.029  1.7995 -2.2901 -2.6271
 9618TIP3   OH250344   2.213   3.193  16.483  0.5524 -0.4329 -0.2117
 9618TIP3    H150345   2.128   3.150  16.472 -1.6406  3.3524  1.0708
 9618TIP3    H250346   2.226   3.197  16.578  1.3765  0.4036 -0.3543
 9619TIP3   OH250347   1.908   3.724  12.531  0.6090  0.0885 -0.4893
 9619TIP3    H150348   1.850   3.657  12.568  0.6255  0.1818 -0.2927
 9619TIP3    H250349   1.850   3.796  12.507  0.9191  1.3127  2.2127
 9620TIP3   OH250350   2.621   3.465  15.345 -0.2033 -0.4997  0.5583
 9620TIP3    H150351   2.601   3.558  15.352 -0.1956 -0.5367  1.1381
 9620TIP3    H250352   2.567   3.434  15.272  0.3088  0.0936 -0.0749
 9621TIP3   OH250353   1.889   3.007   1.031  0.2728  0.3607 -0.4968
 9621TIP3    H150354   1.813   3.001   1.089  0.1614  2.7020 -0.3550
 9621TIP3    H250355   1.860   2.966   0.949 -1.2947  1.6308 -0.5903
 9622TIP3   OH250356   3.759   1.958   0.012 -0.1208 -0.7683  0.3113
 9622TIP3    H150357   3.800   2.020  -0.049 -0.7251 -0.0567  0.6241
 9622TIP3    H250358   3.692   1.914  -0.040 -1.1387  0.3663  0.6488
 9623TIP3   OH250359   6.175   0.676  10.941  0.1501 -0.0792 -0.2501
 9623TIP3    H150360   6.137   0.678  10.853  0.2282  2.6692 -0.2871
 9623TIP3    H250361   6.258   0.630  10.930 -0.5822 -1.1894 -1.2826
 9624TIP3   OH250362   1.724   1.759   1.851  0.2901  0.4641  0.0587
 9624TIP3    H150363   1.642   1.737   1.896 -0.0277  0.5259 -0.4862
 9624TIP3    H250364   1.726   1.855   1.850  0.1132  0.4682 -0.3734
 9625TIP3   OH250365   0.782   3.279  12.334  0.2390  0.2765  0.4200
 9625TIP3    H150366   0.855   3.218  12.324 -0.4212 -0.3610 -0.6141
 9625TIP3    H250367   0.762   3.307  12.244  0.0950  1.4943  0.8207
 9626TIP3   OH250368   5.516   2.618   3.428 -0.1542  0.9257  0.1115
 9626TIP3    H150369   5.531   2.558   3.354  1.7303  1.6463 -0.1069
 9626TIP3    H250370   5.600   2.622   3.473 -0.7153  2.1613  1.0742
 9627TIP3   OH250371   1.762   6.377   6.032  0.1665 -0.0832  0.5859
 9627TIP3    H150372   1.745   6.467   6.061  0.8016 -0.3597  1.8280
 9627TIP3    H250373   1.807   6.336   6.105  0.9109 -1.0917 -0.4151
 9628TIP3   OH250374   3.246   3.414   5.306 -0.5153 -0.4843  0.1575
 9628TIP3    H150375   3.331   3.371   5.304  0.2727  1.1020 -2.0181
 9628TIP3    H250376   3.231   3.434   5.399  1.1974 -1.3211  0.6239
 9629TIP3   OH250377   4.254   5.398  15.509 -0.3120 -0.2115  0.4737
 9629TIP3    H150378   4.338   5.435  15.535 -0.2326 -0.3054  0.3526
 9629TIP3    H250379   4.276   5.334  15.441 -0.4933 -0.1547  0.3624
 9630TIP3   OH250380   5.345   3.461  10.990 -0.1962 -0.3890  0.0513
 9630TIP3    H150381   5.278   3.414  11.039  0.4045 -0.2469  1.0313
 9630TIP3    H250382   5.296   3.521  10.933 -0.9460 -1.9268 -0.9507
 9631TIP3   OH250383   1.656   1.096   0.868  0.3644 -0.0624 -0.5795
 9631TIP3    H150384   1.706   1.020   0.840  0.8981 -0.2215  0.7529
 9631TIP3    H250385   1.722   1.160   0.897 -0.0533  1.0996 -2.1393
 9632TIP3   OH250386   5.476   0.156  14.395 -0.3770 -0.7721  0.2508
 9632TIP3    H150387   5.490   0.118  14.482  3.0889 -2.8871 -1.1184
 9632TIP3    H250388   5.416   0.095  14.352 -1.0506 -0.4292  0.6931
 9633TIP3   OH250389   0.828   3.807   0.960 -0.3442 -0.3103  0.4924
 9633TIP3    H150390   0.776   3.794   0.881 -0.5911  0.0944  0.5841
 9633TIP3    H250391   0.882   3.883   0.941  0.2874 -0.7933  0.3613
 9634TIP3   OH250392   4.898   3.678   5.230  0.2391 -0.3021  0.2623
 9634TIP3    H150393   4.912   3.768   5.199  1.3205 -0.6965 -0.4323
 9634TIP3    H250394   4.804   3.663   5.219  0.4513 -0.1341 -2.1193
 9635TIP3   OH250395   6.336   6.673   2.739  0.3290 -0.4239 -0.1902
 9635TIP3    H150396   6.332   6.622   2.820 -1.9930 -0.9373 -0.6021
 9635TIP3    H250397   6.281   6.750   2.756 -0.8967 -0.9844 -1.5798
 9636TIP3   OH250398   3.902   0.428  11.172  0.1160  0.2853  0.2713
 9636TIP3    H150399   3.875   0.343  11.137 -0.9573  0.5734  0.3633
 9636TIP3    H250400   3.995   0.418  11.192  0.7112  0.0548 -2.4363
 9637TIP3   OH250401   6.745   5.149  14.176 -0.6055  0.4742 -0.6745
 9637TIP3    H150402   6.736   5.244  14.177 -0.3576  0.4963 -0.5203
 9637TIP3    H250403   6.690   5.120  14.249  1.0292  0.6553  0.6531
 9638TIP3   OH250404   2.508   3.446  16.991 -0.0969  0.4620 -0.0314
 9638TIP3    H150405   2.552   3.362  17.004  0.2468  0.7681  0.8748
 9638TIP3    H250406   2.419   3.432  17.024  0.0203  0.5072  0.3088
 9639TIP3   OH250407   3.571   2.522  15.131  0.0648  0.0423  0.3252
 9639TIP3    H150408   3.491   2.540  15.181 -1.0069  2.1134 -2.0122
 9639TIP3    H250409   3.540   2.481  15.050  1.3822  0.6033 -0.4763
 9640TIP3   OH250410   6.098   5.800  17.214 -0.4855 -0.3811  0.7330
 9640TIP3    H150411   6.081   5.789  17.120  3.2912 -0.8016  0.0197
 9640TIP3    H250412   6.122   5.712  17.245  0.7939  0.2218  1.5021
 9641TIP3   OH250413   1.246   2.328  11.474  0.3336 -0.0865  0.2639
 9641TIP3    H150414   1.200   2.383  11.410  0.0391  0.2826  0.7905
 9641TIP3    H250415   1.316   2.286  11.423 -1.9112 -2.3656 -1.0328
 9642TIP3   OH250416   5.138   3.091   2.328 -0.6151 -0.0521 -0.1937
 9642TIP3    H150417   5.068   3.123   2.271 -0.0729 -0.9526 -1.3786
 9642TIP3    H250418   5.093   3.047   2.399 -1.2889  0.8467 -0.0522
 9643TIP3   OH250419   2.213   3.417   5.203 -0.2255  0.5171  0.0540
 9643TIP3    H150420   2.297   3.433   5.160  0.0966 -1.8132 -0.2131
 9643TIP3    H250421   2.235   3.372   5.284 -1.1466  0.9524  0.5620
 9644TIP3   OH250422   6.347   0.752   0.031  0.7069 -0.1901 -0.7419
 9644TIP3    H150423   6.283   0.683   0.011 -0.0484  0.7390 -1.6112
 9644TIP3    H250424   6.355   0.801  -0.051 -0.1640  1.8843  0.3672
 9645TIP3   OH250425   6.384   5.908  15.406  0.3375  0.3483 -0.2401
 9645TIP3    H150426   6.298   5.880  15.372  0.4360 -0.2526 -0.0043
 9645TIP3    H250427   6.447   5.852  15.361  0.6063  0.7623 -0.3847
 9646TIP3   OH250428   6.518   1.448  15.432  0.3170 -0.2263  0.1099
 9646TIP3    H150429   6.463   1.450  15.354 -0.7460  0.1085  0.8556
 9646TIP3    H250430   6.590   1.388  15.410  0.4193  0.4288 -1.3637
 9647TIP3   OH250431   1.243   0.795   1.803  0.2463 -0.3538 -0.3040
 9647TIP3    H150432   1.234   0.708   1.840  1.4903 -0.3484  0.0193
 9647TIP3    H250433   1.203   0.853   1.868 -1.6300 -0.7689 -1.0390
 9648TIP3   OH250434   2.458   3.349  13.022 -0.8040 -0.2519  0.1322
 9648TIP3    H150435   2.432   3.266  13.060 -2.6380 -0.2768 -1.1214
 9648TIP3    H250436   2.396   3.413  13.058  0.2076  0.4943  0.6097
 9649TIP3   OH250437   1.633   5.333  13.379  0.2858 -0.2385  0.0211
 9649TIP3    H150438   1.632   5.277  13.301  0.6639  0.3500 -0.4137
 9649TIP3    H250439   1.545   5.369  13.384 -0.7251 -2.8039  1.7329
 9650TIP3   OH250440   3.406   3.294   1.181  0.2550  0.2501  0.5576
 9650TIP3    H150441   3.421   3.382   1.217 -0.3714  0.0894  1.2350
 9650TIP3    H250442   3.311   3.285   1.179  0.3055 -0.1099 -0.2752
 9651TIP3   OH250443   5.834   1.428   3.732 -0.4067 -0.0636  0.3542
 9651TIP3    H150444   5.913   1.391   3.691  0.0471 -0.2915  1.4179
 9651TIP3    H250445   5.808   1.499   3.673 -0.7436 -1.4433 -1.2159
 9652TIP3   OH250446   6.595   5.157   4.564 -0.3886  0.1608 -0.5685
 9652TIP3    H150447   6.655   5.166   4.489  0.0389 -0.2883 -0.2829
 9652TIP3    H250448   6.653   5.143   4.639 -0.8857 -1.0998 -0.4148
 9653TIP3   OH250449   4.002   5.132  11.215 -0.2537 -0.1195  0.1046
 9653TIP3    H150450   4.075   5.097  11.266  0.9563  1.2331 -0.6672
 9653TIP3    H250451   4.044   5.178  11.142 -1.7580  3.0383  1.1349
 9654TIP3   OH250452   3.254   3.744  13.539 -0.2196  0.0640  0.3723
 9654TIP3    H150453   3.188   3.813  13.531 -1.5097 -1.3581 -1.9828
 9654TIP3    H250454   3.331   3.778  13.495 -0.1208  0.8521  1.1484
 9655TIP3   OH250455   1.249   1.127  13.806 -0.2456 -0.3996 -0.4591
 9655TIP3    H150456   1.293   1.166  13.730  1.1052 -1.1603 -0.1003
 9655TIP3    H250457   1.183   1.190  13.831 -0.6573 -0.1021 -2.2306
 9656TIP3   OH250458   2.341   1.901   2.804  0.6915  0.2321  0.3173
 9656TIP3    H150459   2.384   1.950   2.733  1.4684 -0.9832 -0.0558
 9656TIP3    H250460   2.378   1.813   2.798  0.8572  0.1611  2.3177
 9657TIP3   OH250461   5.073   4.359  11.922 -0.4684 -0.2472 -0.4408
 9657TIP3    H150462   5.070   4.270  11.887 -0.0950 -0.7679  0.8461
 9657TIP3    H250463   5.165   4.375  11.940 -0.5289  0.4166 -0.7103
 9658TIP3   OH250464   3.025   2.300  14.158  0.3211 -0.4916  0.0323
 9658TIP3    H150465   2.960   2.242  14.118  0.0085 -0.0990 -0.0245
 9658TIP3    H250466   3.109   2.259  14.138  0.0527 -1.4933  0.8848
 9659TIP3   OH250467   5.477   0.363   0.329 -0.2853  0.2675 -0.1999
 9659TIP3    H150468   5.492   0.269   0.316 -0.4184  0.1096  0.7973
 9659TIP3    H250469   5.387   0.369   0.360 -0.7543  0.8500 -1.6318
 9660TIP3   OH250470   5.237   6.337  13.989  0.0228  0.0383 -0.8274
 9660TIP3    H150471   5.248   6.427  14.019 -1.3094  0.2205 -0.8799
 9660TIP3    H250472   5.326   6.301  13.992  0.6836  1.5396 -1.4137
 9661TIP3   OH250473   4.678   4.955  15.783 -0.1972  0.1375 -0.3470
 9661TIP3    H150474   4.625   4.893  15.833  1.3873 -1.3497 -0.4556
 9661TIP3    H250475   4.614   5.008  15.735 -1.7360  1.3529  2.9130
 9662TIP3   OH250476   5.348   2.159  16.670  0.1884 -0.1597  0.2822
 9662TIP3    H150477   5.364   2.249  16.699 -1.6519  0.5490 -0.7929
 9662TIP3    H250478   5.423   2.109  16.702  2.9458  2.3675 -1.9063
 9663TIP3   OH250479   6.090   4.751  11.717 -0.4356  0.2348 -0.2656
 9663TIP3    H150480   6.017   4.787  11.666  0.0686  1.7019  0.0135
 9663TIP3    H250481   6.112   4.669  11.673 -1.5321  0.3326 -1.0097
 9664TIP3   OH250482   6.374   4.058   3.133  0.3362 -0.7036  0.0813
 9664TIP3    H150483   6.420   4.043   3.051 -2.2620  0.4525 -1.6453
 9664TIP3    H250484   6.432   4.116   3.183  1.2139 -0.1284 -1.5829
 9665TIP3   OH250485   2.284   6.231   5.584  0.1785 -0.2271 -0.5838
 9665TIP3    H150486   2.211   6.172   5.602  0.5479 -1.3944 -2.6499
 9665TIP3    H250487   2.354   6.201   5.642  0.1834 -1.4919 -1.2191
 9666TIP3   OH250488   5.156   5.006   2.946  0.1911 -0.0498  0.2101
 9666TIP3    H150489   5.076   5.027   2.899  0.4968  1.4775  0.3496
 9666TIP3    H250490   5.201   4.942   2.891 -1.6494 -1.8045  0.6798
 9667TIP3   OH250491   2.627   6.480   3.438  0.1232 -0.6741 -0.3839
 9667TIP3    H150492   2.594   6.569   3.452  0.9033 -0.4856  0.2831
 9667TIP3    H250493   2.565   6.424   3.485 -1.2709 -0.6360 -2.1066
 9668TIP3   OH250494   5.907   5.217  16.749 -0.1398 -0.5024 -0.0733
 9668TIP3    H150495   5.899   5.189  16.840 -1.0009 -1.4834 -0.4358
 9668TIP3    H250496   5.880   5.141  16.698  2.3871 -0.6687 -1.2143
 9669TIP3   OH250497   3.950   2.104   6.555  0.1658 -0.1258  0.1954
 9669TIP3    H150498   3.967   2.011   6.572 -1.1539 -0.0052  2.3853
 9669TIP3    H250499   4.023   2.132   6.501  1.2189 -2.1561  0.5024
 9670TIP3   OH250500   2.838   5.037  17.189 -0.0946  0.0114 -0.2475
 9670TIP3    H150501   2.796   5.068  17.108 -1.6469  2.3882  1.4065
 9670TIP3    H250502   2.793   4.954  17.208 -1.5021  0.7075 -0.4685
 9671TIP3   OH250503   3.436   0.625   4.170  0.2024 -0.0435  0.2329
 9671TIP3    H150504   3.436   0.550   4.230  0.9812  0.0095  0.3090
 9671TIP3    H250505   3.472   0.590   4.088 -2.9096 -0.6618 -0.9251
 9672TIP3   OH250506   5.565   6.028   4.462 -0.6765  0.0921  0.3894
 9672TIP3    H150507   5.590   6.115   4.492 -1.2416  0.6107 -0.6064
 9672TIP3    H250508   5.560   5.975   4.541 -0.6680  1.0559  1.0368
 9673TIP3   OH250509   5.733   2.017   4.893 -0.1607  0.1385 -0.4391
 9673TIP3    H150510   5.659   1.990   4.840  0.1864  1.5748 -1.6907
 9673TIP3    H250511   5.749   2.108   4.869  0.1166  0.7868  2.0210
 9674TIP3   OH250512   4.823   5.418  14.029 -0.5035 -0.3121 -0.7908
 9674TIP3    H150513   4.795   5.509  14.022 -0.6463 -0.3016 -0.1421
 9674TIP3    H250514   4.757   5.369  13.980 -0.2558 -0.0401 -1.4047
 9675TIP3   OH250515   2.793   4.798  10.798  0.2094  0.3300  0.1485
 9675TIP3    H150516   2.809   4.743  10.721  1.1665 -0.9200  1.2073
 9675TIP3    H250517   2.794   4.888  10.764  1.7448 -0.1430 -1.1234
 9676TIP3   OH250518   3.915   2.197   0.462  0.1074 -0.1791  0.0891
 9676TIP3    H150519   3.859   2.251   0.519  0.3609 -0.0936  0.2587
 9676TIP3    H250520   3.879   2.209   0.375  1.3122  1.7789 -0.1740
 9677TIP3   OH250521   6.390   6.568   5.970  0.3799 -0.2574 -0.3154
 9677TIP3    H150522   6.379   6.482   5.929  0.9128 -0.4082 -0.1439
 9677TIP3    H250523   6.364   6.631   5.901 -0.7203 -0.5665 -0.1991
 9678TIP3   OH250524   0.816   1.253   0.881  0.5230  0.1556  0.0446
 9678TIP3    H150525   0.856   1.288   0.960 -0.8223 -0.5450  1.0451
 9678TIP3    H250526   0.890   1.238   0.822  1.3341  2.6118  0.3731
 9679TIP3   OH250527   5.957   1.811   2.672 -0.3384  0.1650  0.3220
 9679TIP3    H150528   5.967   1.803   2.577 -1.1184  1.0230  0.1630
 9679TIP3    H250529   5.947   1.721   2.702 -0.8068 -0.0597 -0.4974
 9680TIP3   OH250530   2.823   1.258  16.853  0.2393 -0.0112 -0.2609
 9680TIP3    H150531   2.811   1.202  16.776 -1.3367  0.8111 -0.6268
 9680TIP3    H250532   2.912   1.292  16.844  0.7823 -1.5090 -0.6624
 9681TIP3   OH250533   1.770   5.273  14.423  0.2320 -0.0994  0.0252
 9681TIP3    H150534   1.782   5.218  14.499 -1.3651 -1.1328 -0.4499
 9681TIP3    H250535   1.727   5.217  14.358  3.6796  0.0504 -2.5089
 9682TIP3   OH250536   4.112   6.559   0.538 -0.4175 -0.7403  0.0853
 9682TIP3    H150537   4.204   6.545   0.515 -0.0169  1.0021  0.5937
 9682TIP3    H250538   4.088   6.482   0.590  1.4338 -0.1203  1.9137
 9683TIP3   OH250539   4.605   0.151  12.341 -0.7365  0.1681  0.0146
 9683TIP3    H150540   4.621   0.057  12.349 -0.1148  0.3958  1.5507
 9683TIP3    H250541   4.524   0.166  12.390 -0.2365  0.6109  0.7021
 9684TIP3   OH250542   2.622   1.488  15.828 -0.2277 -0.6355  0.1484
 9684TIP3    H150543   2.624   1.474  15.923 -0.0817 -0.5397  0.1597
 9684TIP3    H250544   2.660   1.575  15.816  1.9843 -1.6140 -0.1991
 9685TIP3   OH250545   3.125   4.034   2.989 -0.3871 -0.5645 -0.7058
 9685TIP3    H150546   3.074   4.032   3.070 -0.7501  1.2898 -0.8547
 9685TIP3    H250547   3.085   3.966   2.935 -1.1480 -0.7785  0.1027
 9686TIP3   OH250548   5.527   2.741  14.500  0.3144  0.9175  0.4540
 9686TIP3    H150549   5.473   2.685  14.445 -0.3693  1.3371  0.6876
 9686TIP3    H250550   5.543   2.690  14.578 -1.1575  1.4098  1.1045
 9687TIP3   OH250551   0.040   2.720  12.221  0.2663  0.1178 -0.1699
 9687TIP3    H150552   0.070   2.810  12.212  0.6951 -0.1023 -1.0038
 9687TIP3    H250553  -0.055   2.725  12.213  0.3230  0.4404 -0.6362
 9688TIP3   OH250554   0.469   2.424  14.691  0.0842  0.5466  0.2835
 9688TIP3    H150555   0.455   2.425  14.786  0.3400 -0.1846  0.3285
 9688TIP3    H250556   0.564   2.428  14.680  0.0671  0.3891  0.0653
 9689TIP3   OH250557   1.219   1.658  12.871  0.0606  0.4295  0.7657
 9689TIP3    H150558   1.182   1.638  12.785  0.5027  0.4536  0.5676
 9689TIP3    H250559   1.237   1.752  12.868  0.4258  0.3606  0.7488
 9690TIP3   OH250560   6.690   0.976   4.700  0.2745  0.3886 -0.6532
 9690TIP3    H150561   6.763   0.915   4.684  1.3923  0.8386  2.3324
 9690TIP3    H250562   6.726   1.039   4.763 -2.5527  0.9293  0.4625
 9691TIP3   OH250563   6.479   5.180  16.654 -0.5330 -0.0468 -0.6105
 9691TIP3    H150564   6.565   5.141  16.667 -0.4257  0.1677 -0.6609
 9691TIP3    H250565   6.456   5.158  16.564 -0.4180  0.1126 -0.6808
 9692TIP3   OH250566   3.614   5.294  15.549  0.0815 -0.0232  0.6679
 9692TIP3    H150567   3.700   5.335  15.547  0.2172 -0.3197  0.4278
 9692TIP3    H250568   3.567   5.340  15.620 -0.1729  1.3240 -0.3600
 9693TIP3   OH250569   6.217   1.769   5.371 -0.0150 -0.2494 -0.1828
 9693TIP3    H150570   6.245   1.733   5.287  0.9527  1.9153 -0.8406
 9693TIP3    H250571   6.218   1.695   5.431 -1.6344 -2.0260 -2.2857
 9694TIP3   OH250572   1.182   6.276  11.871  0.1504  0.5318  0.3916
 9694TIP3    H150573   1.100   6.302  11.912  0.1505  1.8334 -0.3759
 9694TIP3    H250574   1.184   6.327  11.789  0.6878 -1.1129 -0.6445
 9695TIP3   OH250575   0.665   6.718   2.983  0.3434 -0.3443  0.0845
 9695TIP3    H150576   0.673   6.714   3.078 -0.3840  2.6332  0.3095
 9695TIP3    H250577   0.751   6.689   2.950  0.6015 -1.3600  1.6152
 9696TIP3   OH250578   0.895   3.351  15.806 -0.3465  0.1549 -0.2087
 9696TIP3    H150579   0.809   3.390  15.819 -0.6278  0.8131 -3.6920
 9696TIP3    H250580   0.950   3.422  15.773  1.2010 -0.5694  0.7018
 9697TIP3   OH250581   1.315   6.356  15.032  0.1270 -0.2072  0.5500
 9697TIP3    H150582   1.251   6.357  14.961  1.7444  0.4143 -0.9334
 9697TIP3    H250583   1.319   6.446  15.062 -0.8095 -0.5368  1.6697
 9698TIP3   OH250584   4.581   1.767  13.542  0.5019 -0.0571  0.3369
 9698TIP3    H150585   4.661   1.718  13.563  1.3522  0.7923 -0.8131
 9698TIP3    H250586   4.613   1.850  13.506 -0.9197  0.9175  1.2698
 9699TIP3   OH250587   5.780   6.689  11.683 -0.0360 -0.1889  0.1469
 9699TIP3    H150588   5.858   6.697  11.739 -0.5010 -0.7721  0.8872
 9699TIP3    H250589   5.777   6.771  11.635  3.1421 -1.5681 -2.6482
 9700TIP3   OH250590   5.067   2.359   3.304 -0.0216 -0.7569 -0.4082
 9700TIP3    H150591   5.047   2.280   3.254 -0.0952 -0.4002 -0.9523
 9700TIP3    H250592   4.988   2.376   3.356  0.0900 -1.1813 -0.1040
 9701TIP3   OH250593   1.934   4.433  10.558 -0.2153 -0.1719  0.0178
 9701TIP3    H150594   1.983   4.498  10.507 -0.9052  0.3452 -0.0007
 9701TIP3    H250595   1.842   4.456  10.544 -0.4076  0.6696  2.3703
 9702TIP3   OH250596   5.015   2.195  15.841 -0.0330 -0.0635  0.0940
 9702TIP3    H150597   4.985   2.278  15.804 -0.7051 -0.9621 -1.4535
 9702TIP3    H250598   4.940   2.161  15.888 -1.0775 -1.6302 -2.5771
 9703TIP3   OH250599   1.031   0.223   3.985  0.1103  0.1240 -0.1349
 9703TIP3    H150600   0.973   0.204   3.911 -0.5435 -0.0090  0.4051
 9703TIP3    H250601   1.016   0.315   4.004 -2.4433 -0.6903  2.1338
 9704TIP3   OH250602   4.027   0.397  13.133 -0.0680 -0.2284 -0.1568
 9704TIP3    H150603   4.066   0.467  13.185 -1.3959 -0.8885  1.7698
 9704TIP3    H250604   4.075   0.318  13.157  2.3893  0.1821 -3.3816
 9705TIP3   OH250605   4.125   2.296  13.401 -0.3152  0.4543 -0.3784
 9705TIP3    H150606   4.142   2.328  13.489  2.2757  0.3646 -0.8140
 9705TIP3    H250607   4.151   2.204  13.403 -1.3526  0.1448 -0.9244
 9706TIP3   OH250608   6.567   2.336  14.758 -0.1475  0.6013  0.3556
 9706TIP3    H150609   6.621   2.375  14.690 -0.4188  0.3915  0.0171
 9706TIP3    H250610   6.581   2.392  14.835  0.2410  0.7761  0.1593
 9707TIP3   OH250611   5.035   6.006  10.606 -0.2652 -0.0864 -0.0998
 9707TIP3    H150612   5.111   6.028  10.660 -0.2758 -0.8980  0.2578
 9707TIP3    H250613   4.996   6.090  10.584  0.7818  0.3449 -0.3519
 9708TIP3   OH250614   1.918   2.187  16.201 -0.2683 -0.0780  1.0985
 9708TIP3    H150615   1.945   2.260  16.145  1.5225 -0.0840  1.9243
 9708TIP3    H250616   1.941   2.214  16.290  0.7254 -1.7641  1.3894
 9709TIP3   OH250617   4.872   4.124  15.558 -0.7908 -0.1340  0.9115
 9709TIP3    H150618   4.867   4.035  15.525  1.3687 -0.4211  1.2381
 9709TIP3    H250619   4.846   4.118  15.650  1.1251 -0.7780  1.4382
 9710TIP3   OH250620   2.409   0.393  13.818 -0.1565 -0.1608  0.2599
 9710TIP3    H150621   2.360   0.404  13.737  0.2601 -0.6329 -0.0591
 9710TIP3    H250622   2.369   0.455  13.879 -2.3634 -1.8449  0.5721
 9711TIP3   OH250623   5.280   1.874   4.963  0.6206 -0.2579 -0.6843
 9711TIP3    H150624   5.237   1.949   5.004  2.8696  0.2552  0.8495
 9711TIP3    H250625   5.209   1.822   4.926 -1.0567  2.0031 -0.6994
 9712TIP3   OH250626   4.178   3.382   0.165 -1.0405  0.1850  0.5099
 9712TIP3    H150627   4.110   3.315   0.173  0.5231 -1.2395  2.4755
 9712TIP3    H250628   4.191   3.414   0.254  1.1409  0.1014  0.2588
 9713TIP3   OH250629   5.709   5.740  13.216  0.1448 -0.1704  0.1311
 9713TIP3    H150630   5.645   5.811  13.218  0.0552 -0.2641  0.7802
 9713TIP3    H250631   5.778   5.768  13.277 -0.0596 -0.7923  0.6591
 9714TIP3   OH250632   6.391   5.054   5.257  0.2464  0.4065 -0.1960
 9714TIP3    H150633   6.320   5.025   5.200  0.2180 -0.2262  0.1540
 9714TIP3    H250634   6.349   5.070   5.342  0.6867 -0.9901  0.3065
 9715TIP3   OH250635   3.885   2.831   4.564 -0.0197 -0.3790 -0.1650
 9715TIP3    H150636   3.972   2.817   4.526 -0.4403 -1.9739 -0.5707
 9715TIP3    H250637   3.893   2.799   4.654  0.3182  1.2039  0.3817
 9716TIP3   OH250638   6.549   1.069  14.370 -0.2562 -0.1796 -0.1854
 9716TIP3    H150639   6.562   0.985  14.327  1.0813 -0.1946  0.2136
 9716TIP3    H250640   6.550   1.133  14.298  1.2350 -0.2774 -0.2796
 9717TIP3   OH250641   3.763   0.799  15.489 -0.2097 -0.1129  0.2091
 9717TIP3    H150642   3.674   0.765  15.500 -0.4270  0.4525  0.1743
 9717TIP3    H250643   3.753   0.894  15.490  0.0557 -0.0089 -2.3718
 9718TIP3   OH250644   4.713   6.634  13.602 -0.2220  0.5418  0.3865
 9718TIP3    H150645   4.781   6.652  13.537 -0.9138 -0.5510 -0.6532
 9718TIP3    H250646   4.682   6.545  13.581 -0.8308  0.3892  1.8633
 9719TIP3   OH250647   3.597   1.047  14.960 -0.2743  0.6400 -0.2393
 9719TIP3    H150648   3.553   1.032  14.876 -1.8190  2.7479  0.1328
 9719TIP3    H250649   3.532   1.023  15.026 -0.1280  1.7739  0.3339
 9720TIP3   OH250650   6.375   2.726  10.747 -0.5604 -0.2700  0.2564
 9720TIP3    H150651   6.440   2.764  10.687 -0.0460 -1.0689  0.2954
 9720TIP3    H250652   6.323   2.667  10.691 -2.0162  1.2250 -0.0242
 9721TIP3   OH250653   0.752   3.823   1.739  0.1981 -0.5622  0.0963
 9721TIP3    H150654   0.731   3.906   1.781 -1.3495 -1.4719  1.1915
 9721TIP3    H250655   0.734   3.837   1.646  0.4651  0.4671  0.1926
 9722TIP3   OH250656   1.958   2.982  14.023  0.2985 -0.0727  0.0169
 9722TIP3    H150657   1.995   3.057  13.979  1.7795 -1.1004 -0.5345
 9722TIP3    H250658   1.868   2.975  13.990  0.5048  0.8106 -0.7213
 9723TIP3   OH250659   2.927   0.569  14.606  0.1776 -0.2075 -0.9278
 9723TIP3    H150660   2.842   0.538  14.575  0.2228 -1.3498  0.0699
 9723TIP3    H250661   2.989   0.534  14.542 -0.0249  0.0333 -1.2616
 9724TIP3   OH250662   6.339   3.089   5.066  0.1412  0.0269  0.4935
 9724TIP3    H150663   6.387   3.171   5.059  1.1047 -0.6411 -1.0017
 9724TIP3    H250664   6.399   3.029   5.111 -0.2726 -0.0778  0.9144
 9725TIP3   OH250665   6.701   4.852  11.895  0.1231 -0.1303 -0.1990
 9725TIP3    H150666   6.749   4.778  11.932  0.5181  0.1001 -0.2402
 9725TIP3    H250667   6.742   4.867  11.810  0.4104  0.4772  0.0366
 9726TIP3   OH250668   3.237   1.450  16.395 -0.0388 -0.3856 -0.1166
 9726TIP3    H150669   3.226   1.532  16.444  0.2605 -0.0696 -0.5707
 9726TIP3    H250670   3.151   1.408  16.399 -0.3904  0.2874 -0.4644
 9727TIP3   OH250671   0.122   6.707  16.085  0.3877 -0.0295  0.5608
 9727TIP3    H150672   0.069   6.688  16.007  0.7146 -1.3793  0.6551
 9727TIP3    H250673   0.127   6.803  16.087  0.1801  0.0355 -0.9573
 9728TIP3   OH250674   6.098   4.929  14.620  0.3829 -0.1374  0.4605
 9728TIP3    H150675   6.190   4.909  14.637  0.6531 -0.3006 -1.1174
 9728TIP3    H250676   6.050   4.872  14.680  1.3042  0.0840  1.4321
 9729TIP3   OH250677   4.984   1.727  11.845 -0.8158 -0.6911 -0.1020
 9729TIP3    H150678   4.978   1.783  11.922 -0.3696  0.4908 -0.9031
 9729TIP3    H250679   4.979   1.637  11.879 -1.1815 -0.1734  1.2297
 9730TIP3   OH250680   3.898   5.529   5.045 -0.0781  0.6974  0.2516
 9730TIP3    H150681   3.975   5.535   5.102 -0.5439  0.2202  0.9344
 9730TIP3    H250682   3.882   5.436   5.036  0.3767  0.7457 -1.1998
 9731TIP3   OH250683   1.060   2.626  15.762  0.1228  0.1044  0.0944
 9731TIP3    H150684   1.008   2.592  15.689  0.7373 -0.5123 -0.0628
 9731TIP3    H250685   0.996   2.666  15.820 -0.6922 -1.7386  0.5159
 9732TIP3   OH250686   0.183   4.177   5.106 -0.0237 -0.4831 -0.5075
 9732TIP3    H150687   0.244   4.139   5.043 -0.4642  0.5612 -1.5884
 9732TIP3    H250688   0.101   4.188   5.056 -0.6732 -0.5813  0.5318
 9733TIP3   OH250689   4.553   1.933  14.664 -0.1336 -0.1529  0.1223
 9733TIP3    H150690   4.564   1.924  14.569  2.9938 -0.2210  0.4415
 9733TIP3    H250691   4.633   1.977  14.693 -1.1639  0.0815  2.7066
 9734TIP3   OH250692   0.179   4.009   0.495 -0.4278  0.0298  0.5217
 9734TIP3    H150693   0.121   3.934   0.483 -1.1172  0.5675  0.4101
 9734TIP3    H250694   0.184   4.050   0.409 -2.0778  1.5313  1.0870
 9735TIP3   OH250695   5.654   0.182  14.933  0.5585 -0.1659  0.2164
 9735TIP3    H150696   5.699   0.262  14.908  2.7716 -1.2660  0.5561
 9735TIP3    H250697   5.591   0.210  14.999  1.5659  1.2545  0.5970
 9736TIP3   OH250698   1.454   4.419  13.481 -0.5704  0.3820  0.5984
 9736TIP3    H150699   1.459   4.385  13.571  0.1531 -1.3278 -0.0826
 9736TIP3    H250700   1.528   4.379  13.436 -0.2034  2.2295 -0.4476
 9737TIP3   OH250701   5.799   5.928   3.675 -0.3153 -0.2781 -0.2619
 9737TIP3    H150702   5.755   5.878   3.742 -1.3315  2.3854  1.1428
 9737TIP3    H250703   5.887   5.942   3.709 -1.0267  1.6304  0.8809
 9738TIP3   OH250704   5.946   6.442  13.847  0.5701 -0.1031 -0.0614
 9738TIP3    H150705   5.854   6.466  13.849  0.5127 -0.4126  1.2610
 9738TIP3    H250706   5.952   6.377  13.777 -0.4007 -0.8149  0.5017
 9739TIP3   OH250707   0.828   5.859  16.574  0.0829 -0.8774  0.1675
 9739TIP3    H150708   0.840   5.953  16.583  0.4965 -0.8877 -0.2113
 9739TIP3    H250709   0.896   5.821  16.630  0.6489 -0.9439 -0.5573
 9740TIP3   OH250710   3.008   2.702  14.700  0.0686  0.0399 -0.6068
 9740TIP3    H150711   2.938   2.717  14.636 -0.8199 -1.9969 -0.1633
 9740TIP3    H250712   3.022   2.787  14.741 -3.3879  0.1204  0.5250
 9741TIP3   OH250713   2.021   1.375  13.412  0.5042 -0.1080  0.4258
 9741TIP3    H150714   1.997   1.285  13.434  2.4120 -0.6212  0.5149
 9741TIP3    H250715   2.104   1.366  13.364  0.4763  1.5667  0.0508
 9742TIP3   OH250716   1.412   3.142  14.194 -0.2061  0.0396 -0.6873
 9742TIP3    H150717   1.458   3.087  14.257  1.4935  0.2412 -1.7090
 9742TIP3    H250718   1.472   3.216  14.179 -1.7867  1.3852 -0.4839
 9743TIP3   OH250719   5.345   5.267   3.196  0.2022  0.2309 -0.3125
 9743TIP3    H150720   5.440   5.276   3.182  0.3291  0.1344  0.4900
 9743TIP3    H250721   5.306   5.297   3.114  0.9937 -1.1896 -1.2434
 9744TIP3   OH250722   3.445   3.360  14.773  0.3725  0.3064 -0.2532
 9744TIP3    H150723   3.363   3.366  14.725  0.4994  2.5767 -0.2253
 9744TIP3    H250724   3.513   3.362  14.705  0.5331  2.9878 -0.0594
 9745TIP3   OH250725   0.374   4.590   0.881 -0.0579 -0.2826  0.6579
 9745TIP3    H150726   0.399   4.539   0.804 -0.4144  0.8831 -0.2578
 9745TIP3    H250727   0.282   4.569   0.895 -0.1187 -0.1530  0.4698
 9746TIP3   OH250728   1.701   2.653  12.187  0.2748 -0.1612 -0.0596
 9746TIP3    H150729   1.611   2.623  12.178  0.1573  0.0778  0.3315
 9746TIP3    H250730   1.728   2.623  12.274  0.2884  0.5343  0.1716
 9747TIP3   OH250731   4.039   6.098   3.525 -0.2322  0.1832  0.3729
 9747TIP3    H150732   3.997   6.138   3.450 -1.2553 -0.6616  0.4847
 9747TIP3    H250733   3.981   6.118   3.599 -1.0853 -1.9918  0.3218
 9748TIP3   OH250734   5.390   0.308   1.508 -0.1260  0.5136  0.1854
 9748TIP3    H150735   5.483   0.313   1.530 -0.2081  0.6866  0.4945
 9748TIP3    H250736   5.381   0.364   1.431  0.0047  0.5972  0.2304
 9749TIP3   OH250737   3.556   2.709  11.745  0.1590  0.3623 -0.4576
 9749TIP3    H150738   3.506   2.638  11.786  2.4164  0.1816  2.1535
 9749TIP3    H250739   3.529   2.787  11.794  1.3098  0.4861 -0.0009
 9750TIP3   OH250740   6.188   5.761   5.903 -0.1131  0.3170  0.1421
 9750TIP3    H150741   6.172   5.692   5.839  0.0992  2.0035 -1.8056
 9750TIP3    H250742   6.275   5.742   5.938 -0.2331 -0.6284 -0.0668
 9751TIP3   OH250743   0.594   2.848   5.396  0.2054  0.4342 -0.3929
 9751TIP3    H150744   0.506   2.866   5.360  0.6412  0.9425 -1.2261
 9751TIP3    H250745   0.632   2.935   5.408  0.7359  0.1979 -0.3884
 9752TIP3   OH250746   6.532   1.036   0.420 -0.4115 -0.8175  0.1849
 9752TIP3    H150747   6.478   1.001   0.349  0.0707  1.6444 -1.4579
 9752TIP3    H250748   6.619   1.045   0.382  0.0724 -0.2717  1.3821
 9753TIP3   OH250749   4.865   1.411   2.382  0.5293  0.0266 -0.1859
 9753TIP3    H150750   4.888   1.472   2.312  1.1605 -0.5637 -0.4926
 9753TIP3    H250751   4.896   1.453   2.462  0.6289  0.2768 -0.3584
 9754TIP3   OH250752   0.696   5.047  15.244 -1.0543 -0.1166 -0.2938
 9754TIP3    H150753   0.735   5.114  15.188  0.6762 -1.6954 -1.0417
 9754TIP3    H250754   0.622   5.014  15.194 -0.0896 -0.8515 -1.2439
 9755TIP3   OH250755   5.060   5.296  12.624 -0.5063 -0.5085 -0.0526
 9755TIP3    H150756   5.024   5.279  12.537  1.1256  1.5013 -1.1621
 9755TIP3    H250757   5.119   5.370  12.611  0.4320 -0.7545  2.6030
 9756TIP3   OH250758   4.665   6.652   6.251  0.5051 -0.2031  0.2501
 9756TIP3    H150759   4.717   6.649   6.332 -0.2716 -0.1356  0.7491
 9756TIP3    H250760   4.586   6.602   6.271  1.0890 -1.6604 -1.0300
 9757TIP3   OH250761   3.221   5.142   0.617 -0.2336 -0.2199 -0.4744
 9757TIP3    H150762   3.314   5.120   0.625 -0.3738  0.0740  2.2707
 9757TIP3    H250763   3.218   5.205   0.545  1.8470  0.6186  0.1439
 9758TIP3   OH250764   0.163   4.805  11.228 -0.0533  0.3202 -0.3685
 9758TIP3    H150765   0.235   4.794  11.166  1.7242 -0.5941  1.7787
 9758TIP3    H250766   0.138   4.716  11.251  0.2157  0.6264  1.1894
 9759TIP3   OH250767   1.468   1.701   3.758  0.1952  0.0589  0.0322
 9759TIP3    H150768   1.401   1.640   3.729  3.3157 -2.3756 -2.2597
 9759TIP3    H250769   1.502   1.663   3.839  1.2065 -0.5907 -0.6820
 9760TIP3   OH250770   2.685   6.579   5.333  0.5697  0.2234 -0.1198
 9760TIP3    H150771   2.749   6.650   5.340 -0.0697  0.5419  3.0625
 9760TIP3    H250772   2.729   6.513   5.280 -0.0271  4.2129 -6.1029
 9761TIP3   OH250773   2.136   0.206   5.493 -0.9575 -0.2707  0.2270
 9761TIP3    H150774   2.065   0.238   5.548 -0.1715  1.6817  0.1615
 9761TIP3    H250775   2.208   0.189   5.554 -1.0376 -0.9392  0.1389
 9762TIP3   OH250776   2.106   1.970   5.898 -0.2456 -0.5185 -0.1337
 9762TIP3    H150777   2.174   1.928   5.844  0.6457 -0.2677  0.7854
 9762TIP3    H250778   2.025   1.958   5.848  0.1308 -2.5795 -0.2935
 9763TIP3   OH250779   1.052   5.552   4.610 -0.0263  0.3559  0.6434
 9763TIP3    H150780   1.021   5.625   4.663  0.7473  1.3582 -0.2871
 9763TIP3    H250781   1.107   5.591   4.542  0.6348 -1.1006  0.3003
 9764TIP3   OH250782   4.195   4.748  13.311  0.1517 -0.1165  0.6322
 9764TIP3    H150783   4.180   4.692  13.387 -0.4103  0.5827  1.0446
 9764TIP3    H250784   4.220   4.688  13.242 -0.7619 -0.9156  0.9786
 9765TIP3   OH250785   0.508   4.392  10.650  0.4837  0.0939 -0.3446
 9765TIP3    H150786   0.529   4.480  10.620  0.6472  0.1681 -0.0228
 9765TIP3    H250787   0.452   4.356  10.582 -2.9373  1.9105  1.3645
 9766TIP3   OH250788   5.987   6.618  10.478 -0.6161 -0.0500 -0.2580
 9766TIP3    H150789   6.044   6.545  10.454 -1.4027 -0.1774 -1.8338
 9766TIP3    H250790   6.045   6.694  10.479 -0.2593 -0.3026 -1.0852
 9767TIP3   OH250791   5.564   5.098  13.408 -0.6105 -0.1264 -0.6868
 9767TIP3    H150792   5.632   5.159  13.436 -0.6503 -0.6932  0.6780
 9767TIP3    H250793   5.589   5.074  13.319  2.3810 -2.2163  0.6322
 9768TIP3   OH250794   4.894   2.431  15.784 -0.5169 -0.1121 -0.0129
 9768TIP3    H150795   4.877   2.418  15.690  0.8971  2.0912 -0.6232
 9768TIP3    H250796   4.858   2.518  15.802 -1.5081 -0.8585  1.7054
 9769TIP3   OH250797   3.086   5.997   6.360 -0.2134 -0.1000 -0.1996
 9769TIP3    H150798   3.145   5.922   6.364  0.2661  0.1931 -1.5141
 9769TIP3    H250799   3.144   6.073   6.362 -0.3632  0.1764 -3.4889
 9770TIP3   OH250800   6.011   0.025   3.161 -0.5492  0.1831  0.1364
 9770TIP3    H150801   6.052  -0.003   3.243  1.8412  1.4010 -0.6278
 9770TIP3    H250802   5.990   0.117   3.175 -1.6560 -0.0236 -0.0609
 9771TIP3   OH250803   3.346   6.287  12.022 -0.0165  0.5611 -0.5811
 9771TIP3    H150804   3.274   6.284  12.086 -0.5532 -0.4677 -1.2219
 9771TIP3    H250805   3.354   6.197  11.990  1.5436  0.6776 -0.5450
 9772TIP3   OH250806   3.095   4.074  12.775  0.2350 -0.3514  0.2516
 9772TIP3    H150807   3.121   4.022  12.852 -1.1896  0.9079  1.6108
 9772TIP3    H250808   3.000   4.067  12.773  0.3226 -1.6373 -2.3490
 9773TIP3   OH250809   2.957   1.903  13.940  0.1739 -0.2903 -0.4759
 9773TIP3    H150810   2.892   1.886  13.872 -0.0146  1.5172 -0.7763
 9773TIP3    H250811   3.024   1.836  13.926 -1.7737 -2.4150  0.0820
 9774TIP3   OH250812   6.306   3.411   1.266  0.0187 -0.0976 -0.1472
 9774TIP3    H150813   6.225   3.446   1.229  0.8644  1.1904 -0.7962
 9774TIP3    H250814   6.315   3.324   1.227 -1.5942 -0.6790  0.7440
 9775TIP3   OH250815   1.338   3.036   1.690  0.0660 -0.5340  0.0178
 9775TIP3    H150816   1.427   3.000   1.690  1.2727  2.3174  2.0486
 9775TIP3    H250817   1.289   2.978   1.749  1.2710 -0.5168  1.0481
 9776TIP3   OH250818   1.725   2.280   0.734  0.6688 -0.6912  0.3847
 9776TIP3    H150819   1.736   2.225   0.811  3.2669  0.9566  1.2473
 9776TIP3    H250820   1.786   2.244   0.669 -1.3908 -1.9783 -0.8959
 9777TIP3   OH250821   5.318   5.088   4.838 -0.6681  0.1310  0.6032
 9777TIP3    H150822   5.286   5.173   4.866 -1.1097  0.8221 -1.8181
 9777TIP3    H250823   5.241   5.046   4.798  0.2019 -0.2763 -0.6739
 9778TIP3   OH250824   4.788   1.372   3.306  0.4637 -0.0239  0.0191
 9778TIP3    H150825   4.867   1.318   3.300 -0.6269 -1.5335 -1.3926
 9778TIP3    H250826   4.819   1.456   3.340  2.7244 -0.4710 -0.8153
 9779TIP3   OH250827   3.338   2.304  14.686 -0.9600 -0.2653 -0.5439
 9779TIP3    H150828   3.345   2.286  14.592 -0.7239  1.0788 -0.8015
 9779TIP3    H250829   3.250   2.338  14.698 -1.1836 -0.9598 -0.1783
 9780TIP3   OH250830   5.814   3.043  14.833 -0.0968  0.0326  0.5619
 9780TIP3    H150831   5.751   3.051  14.904 -0.0085 -3.2210  1.0914
 9780TIP3    H250832   5.808   2.951  14.805  3.7495 -0.1766  0.0673
 9781TIP3   OH250833   0.338   3.545   6.317 -0.2489 -0.3953  0.3617
 9781TIP3    H150834   0.432   3.543   6.334 -0.3076  1.7701  1.1562
 9781TIP3    H250835   0.331   3.569   6.225  0.0024  1.5937  0.8278
 9782TIP3   OH250836   5.284   1.552   5.716  0.5194 -0.2690 -0.7358
 9782TIP3    H150837   5.220   1.623   5.718 -1.2426 -1.8146  1.5458
 9782TIP3    H250838   5.322   1.552   5.804 -0.4421 -2.8907 -0.2669
 9783TIP3   OH250839   1.955   5.917   0.593  0.0753 -0.6447 -0.1130
 9783TIP3    H150840   2.044   5.936   0.622  0.0966 -0.0844 -0.5279
 9783TIP3    H250841   1.901   5.983   0.637 -0.1947 -1.2581  0.4852
 9784TIP3   OH250842   3.497   3.506   2.268  0.4741 -0.3196 -0.3650
 9784TIP3    H150843   3.460   3.498   2.180 -1.8294  0.9877  0.4330
 9784TIP3    H250844   3.540   3.591   2.269  0.0686 -0.1173 -0.0720
 9785TIP3   OH250845   1.106   2.487  15.312 -0.0906  0.9830  0.6347
 9785TIP3    H150846   1.192   2.455  15.340 -0.1033  0.5142  0.1552
 9785TIP3    H250847   1.123   2.575  15.278  0.2894  0.6909  0.0603
 9786TIP3   OH250848   1.906   5.285  10.959  0.2045 -0.1482  0.2986
 9786TIP3    H150849   1.925   5.264  10.868  1.1110  0.9042  0.2362
 9786TIP3    H250850   1.819   5.324  10.957  0.9778  1.5582 -0.3657
 9787TIP3   OH250851   4.312   1.082  16.059  0.4991 -0.0434 -0.3131
 9787TIP3    H150852   4.322   1.131  16.141  0.9066 -0.0092 -0.3783
 9787TIP3    H250853   4.218   1.082  16.042  0.3385 -0.7142  0.5508
 9788TIP3   OH250854   4.997   4.881   3.925 -0.2710  0.1543 -0.5557
 9788TIP3    H150855   4.909   4.846   3.935  0.0303 -0.3038  0.5645
 9788TIP3    H250856   4.984   4.975   3.909 -1.0363 -0.2876 -2.6455
 9789TIP3   OH250857   4.993   0.304  15.333  0.0097 -0.2244 -0.4946
 9789TIP3    H150858   4.911   0.256  15.329  0.2644 -0.5763 -1.8409
 9789TIP3    H250859   5.040   0.265  15.407 -1.2155  0.2939  0.5645
 9790TIP3   OH250860   0.597   3.512   6.405  0.2125 -0.3103 -0.3977
 9790TIP3    H150861   0.574   3.528   6.496  1.5367  3.1738 -0.5967
 9790TIP3    H250862   0.686   3.478   6.408  0.4886  0.3941 -0.3837
 9791TIP3   OH250863   1.708   6.430   1.760  0.9223  0.4845 -0.2662
 9791TIP3    H150864   1.664   6.359   1.713  0.6147 -0.3508  1.2580
 9791TIP3    H250865   1.685   6.509   1.711 -0.2839 -0.2367 -0.8863
 9792TIP3   OH250866   3.106   1.086  14.227 -0.3869 -0.0624  0.5221
 9792TIP3    H150867   3.125   1.135  14.308  0.9155  0.4504 -0.0775
 9792TIP3    H250868   3.109   1.153  14.158 -0.3228 -0.6996 -0.0933
 9793TIP3   OH250869   3.677   6.490  11.531 -0.4860 -0.1046  0.6239
 9793TIP3    H150870   3.742   6.560  11.540  0.7008 -1.0156 -0.6411
 9793TIP3    H250871   3.652   6.469  11.621  0.7129  0.5120  1.1156
 9794TIP3   OH250872   4.582   5.807  17.233  0.4794  0.0322 -0.3222
 9794TIP3    H150873   4.624   5.721  17.223  0.3833  0.0143 -0.5666
 9794TIP3    H250874   4.651   5.863  17.267  0.8576  0.1406 -1.2560
 9795TIP3   OH250875   1.244   0.562  13.978 -0.2109 -0.1318 -0.3163
 9795TIP3    H150876   1.240   0.617  13.900  0.8368  0.7210  0.2061
 9795TIP3    H250877   1.238   0.624  14.051 -1.4578 -0.9394  0.2886
 9796TIP3   OH250878   5.538   1.046   2.095 -0.0674  0.3062  0.1517
 9796TIP3    H150879   5.591   0.972   2.125 -0.8671 -0.3764 -0.1033
 9796TIP3    H250880   5.461   1.006   2.055 -1.2133  1.3032  1.3141
 9797TIP3   OH250881   4.939   5.064  17.107 -0.1743  0.5936  0.4408
 9797TIP3    H150882   4.923   5.141  17.053 -1.4348  0.7738  1.0563
 9797TIP3    H250883   4.880   4.997  17.071  1.4612 -0.3421 -0.5829
 9798TIP3   OH250884   1.466   2.048  17.173 -0.2708  0.3102  0.3951
 9798TIP3    H150885   1.423   1.998  17.103  0.0528  1.1613 -0.4179
 9798TIP3    H250886   1.393   2.087  17.222 -0.4915 -0.0905  0.3922
 9799TIP3   OH250887   3.378   3.031  11.369 -0.8753  0.2169  0.6192
 9799TIP3    H150888   3.430   3.025  11.449 -0.0265  1.0177  0.1305
 9799TIP3    H250889   3.382   2.943  11.331 -1.1264 -0.1146  1.3675
 9800TIP3   OH250890   2.778   2.154   3.735  0.1367 -0.1208  0.0537
 9800TIP3    H150891   2.718   2.224   3.707 -0.8091 -0.5059  1.0936
 9800TIP3    H250892   2.865   2.193   3.726 -0.3590  1.0529  0.2023
 9801TIP3   OH250893   6.798   3.836  10.813 -0.4258  0.9114  0.5660
 9801TIP3    H150894   6.855   3.779  10.864  2.9659  2.4210 -1.3573
 9801TIP3    H250895   6.776   3.907  10.874 -0.1601  0.3904  1.2862
 9802TIP3   OH250896   1.736   3.575   4.800 -0.5244  0.3177  0.1251
 9802TIP3    H150897   1.719   3.502   4.861 -1.8704 -0.2658 -0.9078
 9802TIP3    H250898   1.807   3.624   4.841  1.8211 -2.7030 -0.1187
 9803TIP3   OH250899   2.685   4.244   2.875  0.5899  0.7143  0.3598
 9803TIP3    H150900   2.737   4.324   2.877  2.1075 -0.2244 -0.8073
 9803TIP3    H250901   2.673   4.225   2.782  0.1413 -0.3530  0.6255
 9804TIP3   OH250902   6.198   2.161  16.415 -0.1746 -0.2342 -0.5577
 9804TIP3    H150903   6.188   2.092  16.480  1.5356 -0.2830 -0.3483
 9804TIP3    H250904   6.121   2.151  16.358 -1.0619 -0.9290  0.7356
 9805TIP3   OH250905   6.710   4.236   5.267 -0.2216 -0.4275  0.2003
 9805TIP3    H150906   6.766   4.293   5.214 -0.4668  0.3968  0.8191
 9805TIP3    H250907   6.724   4.148   5.231  2.2009 -0.3859  0.9109
 9806TIP3   OH250908   5.555   1.355   5.411 -0.7079  0.5028 -0.1961
 9806TIP3    H150909   5.627   1.296   5.389  0.8368  1.5460  1.8561
 9806TIP3    H250910   5.568   1.431   5.356 -1.4952 -0.1797 -1.3471
 9807TIP3   OH250911   4.102   4.639   1.830 -0.4433  0.2628 -0.0672
 9807TIP3    H150912   4.112   4.547   1.806 -0.1167 -0.1366  1.4814
 9807TIP3    H250913   4.153   4.687   1.764 -1.6040 -0.5634 -1.5778
 9808TIP3   OH250914   2.005   0.934  12.456 -0.7411 -0.1675  0.3603
 9808TIP3    H150915   2.034   0.848  12.485 -0.1856  0.6273  2.2388
 9808TIP3    H250916   1.933   0.957  12.515  0.9067  1.8093  1.6749
 9809TIP3   OH250917   1.762   5.444   5.385 -0.1523 -0.1549  0.1153
 9809TIP3    H150918   1.672   5.471   5.403  0.3810  2.0535 -0.3963
 9809TIP3    H250919   1.815   5.500   5.440  1.0090  0.0155 -1.1562
 9810TIP3   OH250920   3.304   0.646  11.418  0.2180  0.3977 -0.3117
 9810TIP3    H150921   3.258   0.631  11.336  0.1141 -0.5832 -0.0791
 9810TIP3    H250922   3.272   0.577  11.477 -1.5546  2.5482  1.3245
 9811TIP3   OH250923   3.474   5.048   0.046  0.0383 -0.1636 -0.4918
 9811TIP3    H150924   3.399   5.105   0.059  0.1961  0.5056 -2.4174
 9811TIP3    H250925   3.492   5.052  -0.048  2.0602 -0.8308 -0.1617
 9812TIP3   OH250926   2.800   1.165  17.164 -0.3566  0.2236  0.3087
 9812TIP3    H150927   2.775   1.241  17.216  0.0683 -0.2129  1.1459
 9812TIP3    H250928   2.766   1.185  17.076  0.5664  1.7939  0.2950
 9813TIP3   OH250929   4.643   4.108  11.379  0.2478 -0.3774 -0.4719
 9813TIP3    H150930   4.613   4.086  11.468 -0.4996  0.0168 -0.6249
 9813TIP3    H250931   4.654   4.024  11.336 -0.5076 -0.5307 -0.3704
 9814TIP3   OH250932   1.152   5.612   3.870 -0.1675 -0.8976  0.0345
 9814TIP3    H150933   1.167   5.518   3.882 -0.9138 -0.9710  0.4714
 9814TIP3    H250934   1.239   5.650   3.859  0.3175 -1.3344  2.1458
 9815TIP3   OH250935   1.407   4.009   5.196  0.2550 -0.3736  0.4956
 9815TIP3    H150936   1.358   3.933   5.226  1.6178 -0.6030  2.2143
 9815TIP3    H250937   1.395   4.075   5.265 -0.3471  0.7368 -0.6426
 9816TIP3   OH250938   2.296   4.402  15.587  0.6460  0.0434 -0.1974
 9816TIP3    H150939   2.315   4.409  15.681 -0.3201 -0.7355  0.0691
 9816TIP3    H250940   2.347   4.472  15.547 -0.2228  1.4731  1.1105
 9817TIP3   OH250941   5.779   3.778   3.085  0.2815  0.1470 -0.6398
 9817TIP3    H150942   5.759   3.743   3.171 -4.0041  0.9557 -1.2153
 9817TIP3    H250943   5.774   3.703   3.026 -1.6373  0.4206 -0.8436
 9818TIP3   OH250944   3.649   0.676  16.727 -0.2328  0.1019  0.2251
 9818TIP3    H150945   3.574   0.638  16.681  1.7467 -0.9567 -2.2844
 9818TIP3    H250946   3.685   0.740  16.666  1.1960  0.2659  1.2081
 9819TIP3   OH250947   4.904   0.207   0.815 -0.2923 -0.4260  0.1753
 9819TIP3    H150948   4.855   0.288   0.821  0.7872  0.2393  0.1587
 9819TIP3    H250949   4.994   0.235   0.799  0.1063 -1.6196  0.3076
 9820TIP3   OH250950   1.668   0.480   0.592 -0.0239 -0.0575 -0.1426
 9820TIP3    H150951   1.603   0.433   0.540  0.9642 -3.7614  1.7879
 9820TIP3    H250952   1.619   0.515   0.667 -0.3732 -0.0351 -0.3847
 9821TIP3   OH250953   6.766   4.713  16.947  0.4089 -0.2215 -0.4368
 9821TIP3    H150954   6.746   4.619  16.947  0.7683 -0.3003 -0.3524
 9821TIP3    H250955   6.862   4.716  16.949  0.4535  0.1324 -2.1988
 9822TIP3   OH250956   1.446   1.295  12.241 -0.4790 -0.1168 -0.5222
 9822TIP3    H150957   1.489   1.343  12.312  1.7588  0.3336 -2.1318
 9822TIP3    H250958   1.473   1.204  12.253 -0.7791 -0.1802 -0.3190
 9823TIP3   OH250959   0.415   1.868   1.694  0.2218 -0.3358  0.1387
 9823TIP3    H150960   0.494   1.921   1.698 -0.2488  0.4585 -0.8409
 9823TIP3    H250961   0.420   1.811   1.771  1.9797 -0.6372 -0.1838
 9824TIP3   OH250962   1.842   2.777  11.997  0.4642 -0.0976 -0.6188
 9824TIP3    H150963   1.789   2.728  12.060  1.2914  0.0054  0.1837
 9824TIP3    H250964   1.882   2.710  11.942  1.7179 -0.3702  0.5757
 9825TIP3   OH250965   3.135   0.946  16.959  0.1981 -0.0505 -0.7816
 9825TIP3    H150966   3.230   0.957  16.956  0.2118  0.2333  0.3751
 9825TIP3    H250967   3.105   1.019  17.012 -0.3815 -1.7475  1.2696
 9826TIP3   OH250968   5.238   6.462   0.492  0.2154 -0.0812 -0.1027
 9826TIP3    H150969   5.157   6.503   0.462  0.7740  0.6102 -0.6795
 9826TIP3    H250970   5.308   6.508   0.446  0.9883 -0.2009  0.9054
 9827TIP3   OH250971   1.341   5.408   1.853 -0.1310  0.1820 -0.1642
 9827TIP3    H150972   1.274   5.367   1.799 -1.6603  2.6851 -0.2639
 9827TIP3    H250973   1.335   5.363   1.937 -0.9920 -0.5228 -0.5985
 9828TIP3   OH250974   3.866   1.810   1.099 -0.7026 -0.3542  0.3433
 9828TIP3    H150975   3.781   1.853   1.110 -0.7702 -0.3115 -0.3594
 9828TIP3    H250976   3.882   1.811   1.005 -0.5739 -1.5988  0.3385
 9829TIP3   OH250977   0.149   0.818  12.288 -0.0340 -0.4749 -0.1638
 9829TIP3    H150978   0.245   0.822  12.290 -0.0501 -0.2414  0.2417
 9829TIP3    H250979   0.121   0.898  12.332 -0.4161 -0.6255 -0.1344
 9830TIP3   OH250980   5.245   1.725  15.321 -0.6166  0.5116 -0.3116
 9830TIP3    H150981   5.258   1.774  15.240  0.0070  2.0116  0.6522
 9830TIP3    H250982   5.171   1.668  15.303 -2.5707  3.1185 -0.9458
 9831TIP3   OH250983   4.307   1.479  10.635 -0.1055 -0.0699 -0.7846
 9831TIP3    H150984   4.341   1.517  10.555 -1.7424  0.4923 -1.2413
 9831TIP3    H250985   4.282   1.555  10.689 -3.7840 -0.4130 -1.8670
 9832TIP3   OH250986   1.353   1.435   1.417 -0.3500  0.4573  0.6428
 9832TIP3    H150987   1.307   1.394   1.490  2.2061  0.1509  2.1337
 9832TIP3    H250988   1.440   1.454   1.451  0.6535  1.0094 -2.1069
 9833TIP3   OH250989   0.486   5.258   1.169  0.6374  0.2280 -0.8854
 9833TIP3    H150990   0.443   5.342   1.151  1.5214  0.6540 -1.0564
 9833TIP3    H250991   0.453   5.198   1.102  0.4591  0.5999 -1.1307
 9834TIP3   OH250992   2.017   0.782   6.818  0.5014  0.2389 -0.0798
 9834TIP3    H150993   2.007   0.688   6.837 -0.8065  0.5426  0.7775
 9834TIP3    H250994   1.938   0.806   6.771  0.1345  1.2442  1.0311
 9835TIP3   OH250995   0.129   6.247   3.053  0.0132  0.2628  0.1796
 9835TIP3    H150996   0.072   6.170   3.051  1.3471 -0.7349  0.2936
 9835TIP3    H250997   0.076   6.314   3.097 -0.9473 -0.7521  0.6039
 9836TIP3   OH250998   0.743   2.479  12.540  0.0297 -0.5625 -0.3556
 9836TIP3    H150999   0.833   2.509  12.528 -0.7855  2.0366 -0.3551
 9836TIP3    H251000   0.729   2.416  12.470  1.8788 -1.0846 -0.2837
 9837TIP3   OH251001   5.021   3.947   5.939  0.5967 -0.7949 -0.1085
 9837TIP3    H151002   4.968   4.013   5.984 -0.7811 -1.6765 -0.3776
 9837TIP3    H251003   5.020   3.974   5.847 -1.0300 -1.8259 -0.4288
 9838TIP3   OH251004   2.521   4.133  15.236  0.0306  0.4938  0.5566
 9838TIP3    H151005   2.429   4.122  15.258 -0.6608  0.7781 -1.9315
 9838TIP3    H251006   2.535   4.073  15.163  1.8281  0.4207  0.9531
 9839TIP3   OH251007   3.163   6.487   2.776  0.3796  0.0033  0.4755
 9839TIP3    H151008   3.220   6.534   2.715 -1.8318 -0.2215 -1.8393
 9839TIP3    H251009   3.115   6.556   2.822  0.0100  0.1004 -0.0582
 9840TIP3   OH251010   1.954   1.129  13.568  0.4966  0.1965 -0.5679
 9840TIP3    H151011   1.889   1.063  13.543 -0.2718  0.1389  1.4811
 9840TIP3    H251012   2.023   1.080  13.613  2.0353  0.2501 -2.8153
 9841TIP3   OH251013   4.929   4.623  16.365 -0.8409 -0.5333 -0.6839
 9841TIP3    H151014   4.981   4.550  16.400 -1.1173 -0.5469 -0.2900
 9841TIP3    H251015   4.991   4.696  16.359 -0.3303 -1.0542 -1.9839
 9842TIP3   OH251016   6.557   1.636  16.151 -0.2365  0.1028  0.0525
 9842TIP3    H151017   6.598   1.680  16.226  0.1032  0.1751 -0.1728
 9842TIP3    H251018   6.596   1.679  16.074  0.0929 -0.5881 -0.1707
 9843TIP3   OH251019   4.696   6.608  11.470  0.0855 -0.4557 -0.1659
 9843TIP3    H151020   4.634   6.653  11.527  0.2310  0.3522 -0.6346
 9843TIP3    H251021   4.703   6.664  11.393  1.5399 -0.4255 -0.0332
 9844TIP3   OH251022   5.689   4.897   3.216  0.3193  0.2176 -0.1700
 9844TIP3    H151023   5.661   4.944   3.295 -0.5094  0.5297 -0.6410
 9844TIP3    H251024   5.624   4.920   3.150  1.7084  0.9440 -1.3062
 9845TIP3   OH251025   2.014   4.792  14.676 -0.4212  0.3039 -0.3469
 9845TIP3    H151026   1.933   4.812  14.629 -0.8509  1.5016  0.8857
 9845TIP3    H251027   2.070   4.868  14.662 -0.0424  0.0911 -0.0082
 9846TIP3   OH251028   1.509   1.226   5.438  0.1433 -0.1843  0.6009
 9846TIP3    H151029   1.542   1.299   5.386 -3.3506  1.3701  0.3660
 9846TIP3    H251030   1.477   1.266   5.519 -0.5860 -1.6358  1.0590
 9847TIP3   OH251031   0.524   4.304   5.748  0.6009  0.4143 -0.0932
 9847TIP3    H151032   0.578   4.365   5.699  1.5688  0.1546  0.6441
 9847TIP3    H251033   0.523   4.339   5.837  2.6132 -1.5677  0.7512
 9848TIP3   OH251034   0.216   0.524   4.477 -0.3869 -0.5472 -0.0305
 9848TIP3    H151035   0.266   0.538   4.558 -0.1412  0.4944 -0.3511
 9848TIP3    H251036   0.268   0.568   4.410 -0.4419 -1.6597 -0.8089
 9849TIP3   OH251037   0.593   2.982  16.685 -0.1185  0.4598 -0.3706
 9849TIP3    H151038   0.672   2.931  16.670  1.0705  1.6843  1.4507
 9849TIP3    H251039   0.620   3.073  16.671 -0.6359  1.0656  2.1453
 9850TIP3   OH251040   0.495   3.077  16.084  0.3954 -0.1270  0.1837
 9850TIP3    H151041   0.517   3.041  16.170  0.1359  1.0035  0.7386
 9850TIP3    H251042   0.526   3.168  16.087 -1.0999  0.4185 -0.3055
 9851TIP3   OH251043   1.201   0.024   3.117  0.2040 -0.0666 -0.0590
 9851TIP3    H151044   1.141  -0.023   3.176 -0.4990 -0.0576 -0.7607
 9851TIP3    H251045   1.260   0.070   3.176  0.2758 -1.0326  0.6472
 9852TIP3   OH251046   0.009   1.070  12.989  0.0928  0.1914  0.1391
 9852TIP3    H151047   0.079   1.131  12.965  1.7064 -0.6606  2.5843
 9852TIP3    H251048  -0.060   1.126  13.024  2.4092  0.5863  4.3922
 9853TIP3   OH251049   5.946   2.160  12.303 -0.3606  0.1680  0.0813
 9853TIP3    H151050   5.933   2.240  12.252 -2.0321  0.3162  0.7026
 9853TIP3    H251051   5.863   2.113  12.295  1.0338 -2.1322 -1.3283
 9854TIP3   OH251052   4.493   2.651   4.892 -0.2000 -0.7805  0.4910
 9854TIP3    H151053   4.556   2.581   4.874 -1.0642 -0.8483 -2.4651
 9854TIP3    H251054   4.543   2.717   4.940  1.3636 -2.1119  0.7247
 9855TIP3   OH251055   4.770   5.024   1.410 -0.2167 -0.2858 -0.1846
 9855TIP3    H151056   4.724   4.958   1.461  0.1850 -0.5916 -0.2170
 9855TIP3    H251057   4.863   5.004   1.423 -0.0962  0.2583 -0.2074
 9856TIP3   OH251058   2.604   3.608   1.109 -0.0234 -0.2174  0.6509
 9856TIP3    H151059   2.632   3.543   1.044 -1.3030 -0.8594  0.7258
 9856TIP3    H251060   2.509   3.609   1.102  0.0356  2.5018 -0.1574
 9857TIP3   OH251061   6.676   2.665  13.822  0.0321  0.5741  0.2145
 9857TIP3    H151062   6.659   2.582  13.868 -0.6901 -0.1783 -1.3647
 9857TIP3    H251063   6.676   2.731  13.891 -1.0559 -0.5337  1.3053
 9858TIP3   OH251064   3.546   5.631   2.515  0.0336  0.3199 -0.0958
 9858TIP3    H151065   3.640   5.646   2.506  0.0687 -0.4935 -1.1555
 9858TIP3    H251066   3.507   5.687   2.448 -0.2706  0.9499  0.5975
 9859TIP3   OH251067   1.932   5.798   3.023 -0.0232 -0.7969 -0.0596
 9859TIP3    H151068   1.839   5.787   3.043  0.2977 -1.5347  1.0324
 9859TIP3    H251069   1.934   5.812   2.928 -1.0123 -3.8053 -0.5798
 9860TIP3   OH251070   5.752   6.249   5.729  0.0521  0.4439  0.4386
 9860TIP3    H151071   5.834   6.272   5.684  0.1694  1.5151  1.1983
 9860TIP3    H251072   5.781   6.203   5.808 -0.1115 -0.1325  0.1621
 9861TIP3   OH251073   6.396   1.768  12.902  0.6063  0.1755  0.2042
 9861TIP3    H151074   6.426   1.803  12.986  0.3570 -0.4590  0.5624
 9861TIP3    H251075   6.310   1.730  12.921  0.3486  0.4217 -0.4352
 9862TIP3   OH251076   4.236   3.511   0.565  0.0151  0.3111  0.2987
 9862TIP3    H151077   4.309   3.472   0.516 -0.7068 -0.3526 -0.2656
 9862TIP3    H251078   4.251   3.483   0.655 -1.0363 -2.1335 -0.2622
 9863TIP3   OH251079   5.135   6.509  16.820 -0.2623 -0.0870 -0.4981
 9863TIP3    H151080   5.215   6.462  16.797 -1.1754 -2.1385  0.3279
 9863TIP3    H251081   5.082   6.506  16.740  0.5164  1.4296 -1.1038
 9864TIP3   OH251082   1.315   6.168  11.465  0.4566  0.2121 -0.3072
 9864TIP3    H151083   1.352   6.250  11.497 -0.7606  0.3192  0.8623
 9864TIP3    H251084   1.303   6.181  11.371  1.9331  0.7214 -0.4342
 9865TIP3   OH251085   0.879   0.128   3.781 -0.3699 -0.1093 -0.2523
 9865TIP3    H151086   0.794   0.088   3.761 -0.6156  1.0137 -1.5222
 9865TIP3    H251087   0.877   0.213   3.738 -0.2443  1.7569  3.3335
 9866TIP3   OH251088   2.545   3.234   2.131  0.7723 -0.1060  0.1998
 9866TIP3    H151089   2.466   3.206   2.176  1.6773  0.9942  2.5013
 9866TIP3    H251090   2.617   3.200   2.184  1.8883 -0.7511 -1.6458
 9867TIP3   OH251091   0.906   1.922  12.332 -0.1448 -0.6559  0.0570
 9867TIP3    H151092   0.812   1.923  12.318  0.4137 -0.9982 -4.2233
 9867TIP3    H251093   0.927   2.013  12.356 -1.7389 -1.0364  3.2526
 9868TIP3   OH251094   0.530   4.585  10.933 -0.4153  0.5213 -0.3529
 9868TIP3    H151095   0.526   4.534  10.852 -0.6033  0.6996 -0.4573
 9868TIP3    H251096   0.608   4.552  10.979 -0.5382  0.1406 -0.4160
 9869TIP3   OH251097   5.979   5.476   0.591 -0.0515  0.6156 -0.0236
 9869TIP3    H151098   6.016   5.390   0.609  2.0096  1.6521  0.8464
 9869TIP3    H251099   5.996   5.526   0.671 -0.1046  2.2091 -1.0013
 9870TIP3   OH251100   3.618   3.378   0.744  0.3893  0.1829  0.1311
 9870TIP3    H151101   3.560   3.343   0.812 -1.9313  1.9061 -0.9022
 9870TIP3    H251102   3.581   3.346   0.662  1.2237  0.8502 -0.5150
 9871TIP3   OH251103   4.673   1.998   3.844 -0.0245  0.2110 -0.2564
 9871TIP3    H151104   4.751   1.954   3.876  0.3961 -0.7935 -2.5796
 9871TIP3    H251105   4.643   2.051   3.918  1.2278 -1.5766  1.5668
 9872TIP3   OH251106   0.368   1.466   6.520  0.5845  0.3971 -0.4089
 9872TIP3    H151107   0.402   1.523   6.588  0.5885 -0.8884  0.6697
 9872TIP3    H251108   0.381   1.377   6.552  0.8388 -0.2472 -2.1957
 9873TIP3   OH251109   6.502   2.878   5.714 -0.0035  0.1643 -0.1077
 9873TIP3    H151110   6.499   2.782   5.715 -0.7273  0.1616 -1.0051
 9873TIP3    H251111   6.517   2.900   5.622 -0.0589  0.9112  0.0615
 9874TIP3   OH251112   2.481   4.951   5.447  0.1128  0.1652 -0.8392
 9874TIP3    H151113   2.536   5.012   5.495  1.4281 -1.0712 -0.7682
 9874TIP3    H251114   2.453   4.887   5.512  1.9678 -1.5619 -1.7097
 9875TIP3   OH251115   0.378   2.960   0.863 -0.1608 -0.3568 -0.4637
 9875TIP3    H151116   0.291   2.922   0.850  0.8132 -1.4304 -4.3633
 9875TIP3    H251117   0.384   3.032   0.799  0.9611  1.2774  1.4043
 9876TIP3   OH251118   1.336   0.571  11.029 -0.1538 -0.2732 -0.1666
 9876TIP3    H151119   1.431   0.579  11.033 -0.0791  0.2982 -2.5068
 9876TIP3    H251120   1.319   0.477  11.040  0.9040 -0.8033 -2.6505
 9877TIP3   OH251121   4.334   3.928   2.371  0.3662 -0.3799  0.1211
 9877TIP3    H151122   4.393   3.853   2.363 -0.9312 -1.4497  0.4395
 9877TIP3    H251123   4.336   3.970   2.284  1.1588 -0.7309 -0.0275
 9878TIP3   OH251124   1.487   2.622   1.060 -0.5558 -0.1405  0.1706
 9878TIP3    H151125   1.544   2.553   1.025 -2.1997 -0.5446 -1.8394
 9878TIP3    H251126   1.496   2.694   0.998 -1.7440  0.0031  0.1477
 9879TIP3   OH251127   5.850   2.492   6.397  0.0022  0.3875 -0.3143
 9879TIP3    H151128   5.877   2.479   6.306 -1.0804 -0.0353 -0.5855
 9879TIP3    H251129   5.931   2.487   6.447  0.6431  0.8686 -1.2803
 9880TIP3   OH251130   4.246   1.635  15.157 -0.5717  0.1436  0.7646
 9880TIP3    H151131   4.227   1.630  15.063  1.6904 -0.0692  0.2863
 9880TIP3    H251132   4.191   1.707  15.189 -3.0489 -1.2147 -0.2496
 9881TIP3   OH251133   5.598   3.359  13.317  0.3524  0.8469 -0.2270
 9881TIP3    H151134   5.544   3.372  13.394  0.2404 -0.9878  0.0220
 9881TIP3    H251135   5.608   3.264  13.310  0.9695  1.0254 -2.0444
 9882TIP3   OH251136   4.834   4.581  11.569  0.3388 -0.2434  0.0743
 9882TIP3    H151137   4.904   4.579  11.634  0.1004 -1.1343  0.3083
 9882TIP3    H251138   4.788   4.498  11.581  0.6005 -0.6349 -1.5638
 9883TIP3   OH251139   2.685   5.270   0.230  0.5402 -0.7660 -0.3495
 9883TIP3    H151140   2.593   5.292   0.244  0.0887 -1.7044 -1.7217
 9883TIP3    H251141   2.729   5.354   0.222 -0.1882 -0.3092  0.3478
 9884TIP3   OH251142   2.222   3.703   1.769  0.1159 -0.1223 -0.1331
 9884TIP3    H151143   2.159   3.730   1.702 -0.4251 -2.9107 -0.7902
 9884TIP3    H251144   2.192   3.747   1.849 -0.8027  1.0884 -1.1223
 9885TIP3   OH251145   5.710   4.696   4.325 -0.2907 -0.5381 -0.2249
 9885TIP3    H151146   5.795   4.738   4.310 -1.4851  1.5406 -1.5013
 9885TIP3    H251147   5.689   4.653   4.243 -1.0787  0.1398 -0.3933
 9886TIP3   OH251148   3.300   0.564   0.240 -0.0612  0.5069 -0.6651
 9886TIP3    H151149   3.288   0.486   0.185  0.7180  0.9496 -1.4719
 9886TIP3    H251150   3.376   0.544   0.294 -0.5661  0.2458 -0.0442
 9887TIP3   OH251151   2.013   3.731  14.446  0.1315  0.4494 -0.3667
 9887TIP3    H151152   2.035   3.815  14.487  1.4121 -0.0913  0.0463
 9887TIP3    H251153   1.991   3.674  14.519 -0.5539  0.3593 -0.6402
 9888TIP3   OH251154   3.560   4.108   5.112 -1.0207  0.0443 -0.6984
 9888TIP3    H151155   3.484   4.078   5.061 -1.7491  1.2582 -0.3285
 9888TIP3    H251156   3.527   4.181   5.164 -0.1197 -0.8051  1.0774
 9889TIP3   OH251157   3.063   1.297  15.105 -0.1102 -0.0140  0.1807
 9889TIP3    H151158   3.051   1.210  15.143  0.3636 -0.5246 -0.8154
 9889TIP3    H251159   3.011   1.355  15.161 -1.7209 -1.1680 -0.0785
 9890TIP3   OH251160   0.668   5.826  13.601  0.1171 -0.1277 -0.1303
 9890TIP3    H151161   0.601   5.838  13.669  0.0482 -0.5927 -0.1093
 9890TIP3    H251162   0.625   5.852  13.520  0.4404  1.1504  0.1030
 9891TIP3   OH251163   5.676   1.368   2.813 -0.0338  0.4532 -0.2681
 9891TIP3    H151164   5.759   1.340   2.774  0.7694  0.4938  1.3704
 9891TIP3    H251165   5.619   1.385   2.738  1.5975  0.9214 -1.4407
 9892TIP3   OH251166   6.592   4.001   1.448 -0.1733 -0.0881  0.0775
 9892TIP3    H151167   6.516   3.951   1.478  0.2830  0.3531  2.1094
 9892TIP3    H251168   6.664   3.937   1.449 -0.5330 -0.5726 -2.1059
 9893TIP3   OH251169   1.778   5.355   1.662 -0.2543 -0.1245 -0.1060
 9893TIP3    H151170   1.832   5.292   1.615 -0.5008 -0.2216 -0.2573
 9893TIP3    H251171   1.688   5.324   1.649 -0.3475  0.0503  0.1266
 9894TIP3   OH251172   0.477   1.152  14.519  0.1398  0.0611  0.2918
 9894TIP3    H151173   0.526   1.125  14.441  0.4434  1.6418 -0.0792
 9894TIP3    H251174   0.457   1.245  14.504 -1.5442 -0.1380  1.1878
 9895TIP3   OH251175   5.752   0.747  15.669  0.1886 -0.6757 -0.0282
 9895TIP3    H151176   5.838   0.779  15.699 -0.3028 -2.2469  3.3617
 9895TIP3    H251177   5.761   0.652  15.671 -0.9643 -0.8276 -1.8077
 9896TIP3   OH251178   5.123   0.651   2.241  0.1909 -0.3279  0.2527
 9896TIP3    H151179   5.184   0.577   2.227  1.3730  0.5158  0.8504
 9896TIP3    H251180   5.148   0.687   2.326  0.1417  1.2595 -0.3902
 9897TIP3   OH251181   4.730   0.531   0.300 -0.9707 -0.2738  0.1436
 9897TIP3    H151182   4.797   0.463   0.316 -0.2778  0.8941  2.3987
 9897TIP3    H251183   4.647   0.483   0.300 -0.2513 -1.5717 -1.4701
 9898TIP3   OH251184   4.510   5.062   5.596  0.0823  0.3207  0.1102
 9898TIP3    H151185   4.592   5.012   5.597  0.3749  0.7936  1.2836
 9898TIP3    H251186   4.487   5.071   5.688 -0.2293  1.9017 -0.1080
 9899TIP3   OH251187   6.058   3.804  16.856  0.1001  0.1656 -0.2710
 9899TIP3    H151188   6.098   3.883  16.819 -1.6723  0.8984 -0.6921
 9899TIP3    H251189   6.035   3.828  16.945  1.3849 -0.5335  0.2524
 9900TIP3   OH251190   0.638   3.685  12.697  0.0109  0.1355 -0.5178
 9900TIP3    H151191   0.649   3.602  12.650 -0.3413  1.2466 -2.6362
 9900TIP3    H251192   0.603   3.660  12.782 -0.1581 -1.8934 -1.1522
 9901TIP3   OH251193   3.822   1.756   0.585  0.5290  0.4325 -0.0990
 9901TIP3    H151194   3.802   1.844   0.554 -1.0306  0.0396 -0.2196
 9901TIP3    H251195   3.825   1.764   0.680 -0.4344  0.4373 -0.0721
 9902TIP3   OH251196   1.669   4.878   3.861  1.0624 -0.2845  0.3098
 9902TIP3    H151197   1.710   4.950   3.910  0.4929  1.4929 -1.7540
 9902TIP3    H251198   1.580   4.908   3.845  0.5392 -1.8548  0.1946
 9903TIP3   OH251199   0.818   6.762  15.153 -0.1982 -0.1184 -0.1264
 9903TIP3    H151200   0.796   6.820  15.226 -0.0512  0.0529 -0.2168
 9903TIP3    H251201   0.739   6.709  15.140  0.0302 -0.6434  0.6223
 9904TIP3   OH251202   2.203   1.816  14.657 -0.2168 -0.4605 -0.0546
 9904TIP3    H151203   2.127   1.864  14.626 -0.4789 -0.7218  0.1796
 9904TIP3    H251204   2.269   1.828  14.589 -0.7282 -0.8725 -0.6228
 9905TIP3   OH251205   6.115   5.007   1.709 -0.4179  0.0753  0.1456
 9905TIP3    H151206   6.105   4.943   1.639 -0.4070  1.1158 -0.8093
 9905TIP3    H251207   6.101   4.956   1.789  1.3168 -1.4900 -0.4944
 9906TIP3   OH251208   5.232   2.754  16.235  0.1027 -0.2838 -0.2600
 9906TIP3    H151209   5.189   2.669  16.219  0.5038 -0.4792 -0.3118
 9906TIP3    H251210   5.191   2.813  16.172 -0.4783 -0.3379  0.0559
 9907TIP3   OH251211   2.376   4.620  16.884 -0.0518 -1.0120  0.3121
 9907TIP3    H151212   2.294   4.668  16.892  0.0068 -0.5950 -1.2799
 9907TIP3    H251213   2.357   4.549  16.822  0.8617 -0.6708 -0.3810
 9908TIP3   OH251214   6.608   6.154   0.146 -0.5705  0.3533  0.0778
 9908TIP3    H151215   6.601   6.059   0.143 -1.2771  0.4235 -0.5214
 9908TIP3    H251216   6.523   6.183   0.181 -0.7006  0.8077 -0.5991
 9909TIP3   OH251217   1.264   0.130  11.560  0.2177  0.2310  0.0328
 9909TIP3    H151218   1.309   0.074  11.496  2.3443 -0.9420  2.4549
 9909TIP3    H251219   1.186   0.081  11.584  0.0493  0.1111 -0.7360
 9910TIP3   OH251220   5.633   6.507  11.014  0.3281  0.0321 -0.1070
 9910TIP3    H151221   5.564   6.450  11.048 -0.5943  1.3121  0.2040
 9910TIP3    H251222   5.614   6.515  10.920  0.9048 -0.7890 -0.2938
 9911TIP3   OH251223   2.342   1.772   1.851 -0.3270 -0.0509  0.1313
 9911TIP3    H151224   2.270   1.724   1.810 -0.6391  1.4874 -1.1887
 9911TIP3    H251225   2.300   1.834   1.910 -0.2238  2.2424 -2.1426
 9912TIP3   OH251226   2.177   1.598   0.324 -0.0362  0.0051  0.3300
 9912TIP3    H151227   2.164   1.641   0.409 -1.7995  0.6535 -0.2302
 9912TIP3    H251228   2.113   1.527   0.323 -0.5685  0.4766 -0.7455
 9913TIP3   OH251229   6.616   0.191   4.883 -0.6219 -0.0710  0.3449
 9913TIP3    H151230   6.542   0.239   4.845 -1.0440 -1.0719 -0.1168
 9913TIP3    H251231   6.645   0.133   4.812  0.1832 -0.1618  0.7458
 9914TIP3   OH251232   0.677   4.694   3.464 -0.1970 -0.2420  0.6058
 9914TIP3    H151233   0.677   4.679   3.559 -0.7678 -2.8426  0.2183
 9914TIP3    H251234   0.762   4.661   3.435 -0.3887 -0.2691  0.0721
 9915TIP3   OH251235   4.662   3.700  16.286  0.4339 -0.6885 -0.5183
 9915TIP3    H151236   4.624   3.757  16.220 -1.0047  1.2253  1.8997
 9915TIP3    H251237   4.722   3.756  16.334  0.7368 -1.8117  0.4322
 9916TIP3   OH251238   2.268   6.553   4.692  0.4693  0.4952  0.0037
 9916TIP3    H151239   2.195   6.490   4.694  2.6797 -2.1581 -0.2484
 9916TIP3    H251240   2.273   6.580   4.600 -1.4384  2.2461  0.3825
 9917TIP3   OH251241   5.540   5.240  12.766  0.0292  0.2420  0.6319
 9917TIP3    H151242   5.522   5.240  12.672  0.9470  1.0813  0.4501
 9917TIP3    H251243   5.579   5.326  12.783  0.8702 -0.3178  1.5894
 9918TIP3   OH251244   0.258   4.228   1.542  0.2236  0.4307  0.0286
 9918TIP3    H151245   0.177   4.262   1.503  0.0871 -1.6084 -1.5479
 9918TIP3    H251246   0.325   4.292   1.518 -0.4280  0.7523 -0.9368
 9919TIP3   OH251247   6.173   1.332   4.667 -0.0902 -0.2706  0.7141
 9919TIP3    H151248   6.187   1.250   4.620 -0.6379  0.8999 -1.5294
 9919TIP3    H251249   6.081   1.328   4.695 -0.2995 -0.1389  0.0468
 9920TIP3   OH251250   4.432   2.058  15.194 -0.2025 -0.2582  0.1772
 9920TIP3    H151251   4.453   2.010  15.274 -0.8638 -0.5996  0.1506
 9920TIP3    H251252   4.515   2.097  15.167  0.2060 -0.8600  0.5505
 9921TIP3   OH251253   4.365   3.493   2.955  0.0286 -0.2705  0.1204
 9921TIP3    H151254   4.315   3.546   3.017  2.3707 -0.0227  1.8516
 9921TIP3    H251255   4.340   3.526   2.869  1.5090  3.7698  1.1449
 9922TIP3   OH251256   5.623   2.925  16.564  0.1411  0.0062  0.2653
 9922TIP3    H151257   5.702   2.906  16.512  0.4385  2.6630 -0.3463
 9922TIP3    H251258   5.552   2.883  16.516  1.0156 -1.3523  0.1374
 9923TIP3   OH251259   1.668   2.031  14.153  0.0930  0.1649  0.6108
 9923TIP3    H151260   1.655   1.943  14.117  0.8200  0.3599 -0.1582
 9923TIP3    H251261   1.762   2.037  14.166 -0.1526  0.1381  2.5051
 9924TIP3   OH251262   0.694   4.617   2.201  0.1791 -0.5088 -0.3704
 9924TIP3    H151263   0.683   4.624   2.295  0.4515 -0.6305 -0.3283
 9924TIP3    H251264   0.647   4.536   2.177 -0.2810 -0.2344 -0.4070
 9925TIP3   OH251265   5.151   3.119  16.452 -0.1488  0.5121  0.0072
 9925TIP3    H151266   5.114   3.186  16.511 -0.0183  0.8919 -0.3418
 9925TIP3    H251267   5.080   3.098  16.392  0.2499  1.3707 -0.7758
 9926TIP3   OH251268   4.718   5.328   5.043  0.4167  0.0326 -0.3144
 9926TIP3    H151269   4.629   5.305   5.017 -0.5506  0.8029  2.1932
 9926TIP3    H251270   4.707   5.398   5.107  2.7369 -1.0145  1.2917
 9927TIP3   OH251271   0.840   5.126  13.114  0.2662  0.0913  0.1008
 9927TIP3    H151272   0.824   5.205  13.165  1.5816 -0.0655  0.7580
 9927TIP3    H251273   0.909   5.150  13.052  0.3925 -0.4369  0.0330
 9928TIP3   OH251274   3.509   6.525   2.811  0.4334 -0.8735 -0.8309
 9928TIP3    H151275   3.473   6.542   2.725  1.2245  0.2532 -0.9428
 9928TIP3    H251276   3.584   6.584   2.819 -1.5914  1.4916  1.9359
 9929TIP3   OH251277   1.882   6.717   5.556 -0.3726  0.1867 -0.1847
 9929TIP3    H151278   1.955   6.655   5.550 -1.0800 -0.7592  0.5689
 9929TIP3    H251279   1.889   6.771   5.478  0.5233 -0.5724 -0.6404
 9930TIP3   OH251280   0.496   4.104  14.516  0.1947 -0.0186 -0.1204
 9930TIP3    H151281   0.506   4.012  14.491  1.1213 -0.2810  1.1572
 9930TIP3    H251282   0.561   4.150  14.463 -0.5866 -0.0217 -1.1036
 9931TIP3   OH251283   3.442   2.890   0.102  0.1920  0.2775  0.0021
 9931TIP3    H151284   3.450   2.984   0.120 -0.9588  0.3565  0.1499
 9931TIP3    H251285   3.485   2.847   0.175 -0.1894  0.6773  0.4612
 9932TIP3   OH251286   6.796   3.640   1.026 -0.0565 -0.7526 -0.3774
 9932TIP3    H151287   6.880   3.666   1.065 -0.1474 -0.6819 -0.2284
 9932TIP3    H251288   6.738   3.714   1.043  0.2812 -0.1340 -1.8658
 9933TIP3   OH251289   5.318   0.994  16.990 -0.2682  0.2558 -0.0742
 9933TIP3    H151290   5.385   0.925  16.992 -0.3229  0.1448 -1.5459
 9933TIP3    H251291   5.238   0.950  16.963 -0.4184  0.7814 -0.5198
 9934TIP3   OH251292   1.788   0.216   4.805  0.3444  0.0095 -0.0124
 9934TIP3    H151293   1.702   0.182   4.828  0.2040 -0.0871 -0.6621
 9934TIP3    H251294   1.771   0.298   4.760  0.4647 -1.0168 -1.9893
 9935TIP3   OH251295   1.074   1.026  16.482 -0.6504 -0.1450 -0.2291
 9935TIP3    H151296   1.019   1.102  16.462  0.0009  0.1843 -0.7724
 9935TIP3    H251297   1.037   0.991  16.563 -0.8885  0.8134  0.0836
 9936TIP3   OH251298   3.818   4.756   0.315  0.6504 -0.1482 -0.0904
 9936TIP3    H151299   3.799   4.732   0.405 -0.7977  1.5233  0.0786
 9936TIP3    H251300   3.775   4.840   0.303 -0.0163 -0.8078 -2.6371
 9937TIP3   OH251301   3.849   2.177  13.270  0.0258  0.1918  0.4759
 9937TIP3    H151302   3.850   2.083  13.254  2.5936  0.1350  0.7008
 9937TIP3    H251303   3.844   2.216  13.183  1.2595 -0.1639  0.2362
 9938TIP3   OH251304   0.823   5.143  13.867 -0.2208 -0.5818 -0.2850
 9938TIP3    H151305   0.848   5.138  13.775  0.4352 -0.7546 -0.1008
 9938TIP3    H251306   0.853   5.061  13.905 -0.1622 -0.3592  0.1619
 9939TIP3   OH251307   0.994   1.347   4.159  0.1098  0.0613  0.1119
 9939TIP3    H151308   1.012   1.375   4.248 -0.1229  0.7499 -0.0535
 9939TIP3    H251309   1.061   1.282   4.140 -0.1372 -0.4487  0.9548
 9940TIP3   OH251310   0.218   1.264  12.815  0.3737 -0.3121 -0.0115
 9940TIP3    H151311   0.242   1.297  12.728 -1.2964  0.7552 -0.0811
 9940TIP3    H251312   0.285   1.300  12.873  0.5825  0.2959 -0.6226
 9941TIP3   OH251313   2.412   6.108   4.363 -0.0690 -0.1531 -0.3432
 9941TIP3    H151314   2.505   6.128   4.374  0.4373 -2.3369 -0.5839
 9941TIP3    H251315   2.383   6.169   4.295  1.0100  1.0340  0.2364
 9942TIP3   OH251316   1.931   3.772   4.882  0.4499 -0.4609  0.2970
 9942TIP3    H151317   1.988   3.836   4.840 -0.2257 -1.2323 -1.8421
 9942TIP3    H251318   1.883   3.823   4.948  2.2563  0.5500  0.8532
 9943TIP3   OH251319   4.210   2.685  13.403 -0.3879 -0.3201 -0.0266
 9943TIP3    H151320   4.139   2.638  13.446 -1.0296 -0.5404 -1.2981
 9943TIP3    H251321   4.278   2.619  13.391 -1.1884 -0.8742 -1.5814
 9944TIP3   OH251322   0.438   3.533   3.780 -0.5461  0.4756 -0.3497
 9944TIP3    H151323   0.349   3.566   3.788 -0.7358  0.5194 -2.2162
 9944TIP3    H251324   0.485   3.603   3.734  0.4652  0.4869  0.6917
 9945TIP3   OH251325   1.581   0.487   5.008  0.4850 -0.3884  0.8002
 9945TIP3    H151326   1.506   0.435   5.037  2.5445 -2.8748  1.7749
 9945TIP3    H251327   1.620   0.519   5.089  1.5335 -0.5959  0.3726
 9946TIP3   OH251328   6.813   4.018  13.647  0.4302  0.4940  0.6873
 9946TIP3    H151329   6.732   3.976  13.618  0.9260  0.7861 -1.1958
 9946TIP3    H251330   6.784   4.097  13.693 -0.3417  1.1476 -0.8873
 9947TIP3   OH251331   5.563   4.881  11.345  0.2379 -0.3378 -0.2317
 9947TIP3    H151332   5.617   4.915  11.417 -1.7137  0.9922  0.6453
 9947TIP3    H251333   5.617   4.814  11.304  1.9313 -0.1404  1.6158
 9948TIP3   OH251334   2.542   0.375   0.594  0.5101  0.3407 -0.6803
 9948TIP3    H151335   2.491   0.309   0.641  1.5234 -0.4105 -0.6368
 9948TIP3    H251336   2.562   0.441   0.661  1.1695 -0.2747 -0.2668
 9949TIP3   OH251337   3.524   4.470  16.149 -0.1143  0.0464  0.2460
 9949TIP3    H151338   3.541   4.517  16.230  1.1549 -0.3066  0.1917
 9949TIP3    H251339   3.466   4.398  16.176 -0.1288  0.2386  0.7411
 9950TIP3   OH251340   5.313   3.660   1.382 -0.0330  0.6064  0.0952
 9950TIP3    H151341   5.275   3.720   1.318 -1.1284  0.2467  0.3888
 9950TIP3    H251342   5.314   3.575   1.338  0.6651  0.6571  0.0057
 9951TIP3   OH251343   4.262   5.569   3.156  0.1608 -0.3863  0.1600
 9951TIP3    H151344   4.261   5.525   3.241  1.5451 -1.3018 -0.2659
 9951TIP3    H251345   4.312   5.649   3.170 -2.9675  1.4786  1.1051
 9952TIP3   OH251346   0.122   5.536  15.461 -0.2311 -0.4730  0.0967
 9952TIP3    H151347   0.161   5.621  15.481 -1.2643  0.0812 -0.2135
 9952TIP3    H251348   0.129   5.486  15.543 -0.9354  0.4204  0.7099
 9953TIP3   OH251349   3.071   1.640   2.015 -0.1668  0.3677 -0.0339
 9953TIP3    H151350   3.003   1.647   1.948 -1.1067  0.5833  0.9348
 9953TIP3    H251351   3.041   1.569   2.072  0.1072  0.8980  0.7708
 9954TIP3   OH251352   4.934   2.937   1.223 -0.2968  0.0738 -0.2572
 9954TIP3    H151353   4.905   2.988   1.299  1.1688  1.2707 -0.4599
 9954TIP3    H251354   5.029   2.929   1.235  0.1287  1.3033 -2.5469
 9955TIP3   OH251355   4.107   2.384  13.690  0.1787 -0.1701  0.9153
 9955TIP3    H151356   4.063   2.457  13.734  0.2350 -0.8910  2.1920
 9955TIP3    H251357   4.169   2.351  13.755  1.2042 -0.4107 -0.1803
 9956TIP3   OH251358   2.024   4.613  15.074  0.3171  0.0049 -0.5429
 9956TIP3    H151359   2.032   4.520  15.096 -1.8091 -0.3224 -0.9689
 9956TIP3    H251360   2.072   4.622  14.992 -0.8978 -1.1057 -1.3991
 9957TIP3   OH251361   1.741   0.918   3.451  1.0100  0.0766  0.3505
 9957TIP3    H151362   1.691   0.843   3.419  2.4546 -0.5749 -0.4233
 9957TIP3    H251363   1.674   0.981   3.478 -0.2606 -0.3805 -1.5643
 9958TIP3   OH251364   4.255   2.445   0.898 -0.4004 -0.1295 -0.6443
 9958TIP3    H151365   4.273   2.534   0.929 -0.3374 -0.1643 -0.5799
 9958TIP3    H251366   4.274   2.447   0.805  0.7903 -0.3957 -0.4155
 9959TIP3   OH251367   1.710   3.178   0.168  0.1591  0.0073  0.2743
 9959TIP3    H151368   1.779   3.235   0.203  1.0350 -1.6350  1.3005
 9959TIP3    H251369   1.650   3.165   0.242  0.6750 -1.4444  0.4646
 9960TIP3   OH251370   4.306   2.919   5.055  0.1335 -0.1252  0.2092
 9960TIP3    H151371   4.318   2.984   5.124 -1.4746  0.3732  0.0430
 9960TIP3    H251372   4.264   2.845   5.099  0.2198 -0.2883  0.0150
 9961TIP3   OH251373   5.605   1.498  17.179 -0.0892 -0.2474  0.6198
 9961TIP3    H151374   5.695   1.514  17.151  0.2255 -1.5756  0.8277
 9961TIP3    H251375   5.613   1.442  17.256 -1.0647  0.4581  1.2412
 9962TIP3   OH251376   0.346   3.193   2.010  0.6514  0.0957 -0.2739
 9962TIP3    H151377   0.309   3.202   1.923 -0.8586 -0.5227  0.2838
 9962TIP3    H251378   0.278   3.226   2.069  1.8412  0.9674  0.6428
 9963TIP3   OH251379   2.651   5.222   5.642 -0.2926 -0.0324  0.3184
 9963TIP3    H151380   2.742   5.252   5.645 -0.7662  1.3896  0.6947
 9963TIP3    H251381   2.651   5.141   5.692  1.2587 -1.3910 -1.7656
 9964TIP3   OH251382   0.074   4.070   0.751 -0.0258  0.0139  0.3838
 9964TIP3    H151383   0.086   3.979   0.776  0.9764 -0.1538 -0.6588
 9964TIP3    H251384   0.066   4.068   0.655 -0.8360  0.9310  0.4213
 9965TIP3   OH251385   2.774   5.793   1.774  0.1676 -0.2241 -0.4273
 9965TIP3    H151386   2.697   5.772   1.721 -1.2025 -0.6905  1.6979
 9965TIP3    H251387   2.805   5.708   1.806 -0.1482  0.1987  1.0374
 9966TIP3   OH251388   5.678   2.604   0.326  0.7926 -0.3090  0.2258
 9966TIP3    H151389   5.760   2.648   0.346  1.4538 -1.0342 -0.8635
 9966TIP3    H251390   5.651   2.565   0.409  1.3953  0.1724  0.6542
 9967TIP3   OH251391   5.270   6.224   4.407 -0.4797 -0.4126 -0.4229
 9967TIP3    H151392   5.293   6.310   4.374 -1.1932 -0.1566 -0.2731
 9967TIP3    H251393   5.353   6.180   4.421 -0.0085  1.1975  2.0454
 9968TIP3   OH251394   1.565   3.069   2.160 -0.4304  0.1894  0.2926
 9968TIP3    H151395   1.534   3.028   2.079  0.6688  0.6086 -0.3474
 9968TIP3    H251396   1.502   3.141   2.175 -1.0008 -0.2775  0.1589
 9969TIP3   OH251397   3.964   0.078  17.148 -0.3241 -0.1805  0.7057
 9969TIP3    H151398   3.880   0.088  17.191  0.4426  2.3059  1.6883
 9969TIP3    H251399   3.951   0.113  17.060 -1.2657 -3.1867 -0.4352
 9970TIP3   OH251400   6.264   0.249  17.073 -0.6279 -0.3001  0.2233
 9970TIP3    H151401   6.343   0.255  17.019  0.2637 -0.6121  1.4659
 9970TIP3    H251402   6.297   0.241  17.163 -2.0644 -0.9689  0.7078
 9971TIP3   OH251403   4.846   5.052  12.044  0.1233  0.0612  0.5561
 9971TIP3    H151404   4.863   4.959  12.060  2.1600 -0.0261 -1.7406
 9971TIP3    H251405   4.751   5.059  12.039  0.0033 -2.3100 -1.3699
 9972TIP3   OH251406   4.558   4.244   2.364 -0.2754 -0.2196  0.4390
 9972TIP3    H151407   4.524   4.288   2.286 -0.0146 -0.1581  0.3604
 9972TIP3    H251408   4.585   4.157   2.333  0.1516 -0.0704  0.3910
 9973TIP3   OH251409   1.938   0.423  15.593  0.5504  0.1078 -0.5134
 9973TIP3    H151410   1.918   0.372  15.514 -1.4945  0.5658 -0.3282
 9973TIP3    H251411   1.859   0.476  15.608  2.3648  2.8385 -0.3010
 9974TIP3   OH251412   3.817   3.464  13.933 -0.5991  0.4708  0.0777
 9974TIP3    H151413   3.803   3.531  13.866  0.2344  0.3760 -0.1932
 9974TIP3    H251414   3.845   3.513  14.010 -0.6628  0.4955  0.0852
 9975TIP3   OH251415   6.483   5.730  13.755 -0.5249 -0.3240 -0.1293
 9975TIP3    H151416   6.442   5.677  13.686 -0.7434  0.2156 -0.4163
 9975TIP3    H251417   6.468   5.680  13.835 -0.8984 -0.6083 -0.3697
 9976TIP3   OH251418   2.255   4.165  16.637  0.1046  0.1337  0.5298
 9976TIP3    H151419   2.226   4.076  16.654 -1.0250  0.7263  1.8256
 9976TIP3    H251420   2.273   4.202  16.724  1.3947  0.8911 -0.0476
 9977TIP3   OH251421   1.087   1.859  16.282  0.7163 -0.3641 -0.4515
 9977TIP3    H151422   1.031   1.918  16.231  0.1887  0.9769  1.5934
 9977TIP3    H251423   1.154   1.917  16.319  3.2500 -1.8885 -2.5374
 9978TIP3   OH251424   2.239   5.258  15.423  0.4864 -0.1387  0.2451
 9978TIP3    H151425   2.236   5.262  15.327 -2.5059 -0.2413  0.3008
 9978TIP3    H251426   2.201   5.341  15.451  3.5210  0.9401  1.4059
 9979TIP3   OH251427   1.321   0.741   3.949  0.1589  0.1259  0.0092
 9979TIP3    H151428   1.311   0.677   4.020  2.4061 -2.1786 -1.6813
 9979TIP3    H251429   1.331   0.689   3.870  3.0393  2.5144 -1.3105
 9980TIP3   OH251430   2.093   1.290  13.901 -0.1927  0.0218 -0.2439
 9980TIP3    H151431   2.172   1.238  13.885  0.8861  1.3110  0.8450
 9980TIP3    H251432   2.024   1.225  13.914  0.9583 -1.1271  0.2045
 9981TIP3   OH251433   2.034   2.779   6.621 -0.0205  0.3042 -0.3112
 9981TIP3    H151434   2.056   2.872   6.623 -3.1926  1.1836 -2.1021
 9981TIP3    H251435   1.968   2.768   6.690  0.7360 -0.7507  0.2635
 9982TIP3   OH251436   5.972   2.989  11.768  0.0192  0.5376  0.2920
 9982TIP3    H151437   5.931   3.016  11.685 -1.1664 -0.1180  0.6511
 9982TIP3    H251438   5.973   2.893  11.764 -1.7161  0.4403  1.8288
 9983TIP3   OH251439   3.450   5.294   1.759 -0.1459  0.1844  0.1632
 9983TIP3    H151440   3.494   5.251   1.832  0.1348  0.1056 -0.0512
 9983TIP3    H251441   3.413   5.222   1.707  0.7208  0.1702 -0.4482
 9984TIP3   OH251442   2.970   3.653  12.041 -0.0548  0.4070 -0.5266
 9984TIP3    H151443   2.950   3.602  11.963  2.6633 -0.8099 -0.5078
 9984TIP3    H251444   3.009   3.733  12.008  1.1904 -0.1524 -0.4395
 9985TIP3   OH251445   1.045   2.348  13.165 -0.2661  0.7557  0.3119
 9985TIP3    H151446   1.077   2.291  13.095 -0.8647  1.8675 -0.8937
 9985TIP3    H251447   1.113   2.344  13.232  1.4754  1.5485 -1.3579
 9986TIP3   OH251448   3.629   5.122  13.232 -0.1688  0.6597  0.8539
 9986TIP3    H151449   3.589   5.200  13.196 -0.5174 -0.5717 -1.4939
 9986TIP3    H251450   3.718   5.149  13.257 -0.1792  1.7075 -0.2386
 9987TIP3   OH251451   6.092   6.541  16.927 -0.3285 -0.5486  0.2488
 9987TIP3    H151452   6.124   6.562  17.014 -1.1480  0.3895  0.3342
 9987TIP3    H251453   6.024   6.475  16.942 -1.0413  0.2115  0.3993
 9988TIP3   OH251454   4.308   2.388  11.437 -0.2645  0.5482 -0.4930
 9988TIP3    H151455   4.233   2.403  11.378 -2.2461 -2.6062  1.0879
 9988TIP3    H251456   4.277   2.322  11.499  2.7566  1.6334  2.3178
 9989TIP3   OH251457   4.945   2.294   4.500 -0.3796 -0.0572  0.0038
 9989TIP3    H151458   4.955   2.349   4.578 -2.4428  2.7777 -1.5866
 9989TIP3    H251459   4.877   2.231   4.523  0.3756 -0.4789  1.1072
 9990TIP3   OH251460   1.387   1.483  11.772  0.0750 -0.0787  0.2197
 9990TIP3    H151461   1.323   1.547  11.744 -4.1169 -3.1694  2.2178
 9990TIP3    H251462   1.412   1.510  11.860 -0.6328 -0.3709  0.5150
 9991TIP3   OH251463   4.660   1.478   5.454  0.0271  0.4643  0.3958
 9991TIP3    H151464   4.692   1.391   5.432 -1.8500 -0.4478  1.1710
 9991TIP3    H251465   4.734   1.522   5.496  0.3150 -1.5428  2.0532
 9992TIP3   OH251466   4.794   0.284  13.076 -0.3662 -0.3046  0.2998
 9992TIP3    H151467   4.870   0.302  13.020 -2.0512  1.9771 -1.3861
 9992TIP3    H251468   4.818   0.320  13.162  0.1387  1.2307 -0.4628
 9993TIP3   OH251469   3.580   3.819   5.071  0.0866 -0.1642 -0.3807
 9993TIP3    H151470   3.634   3.820   4.992 -0.3869 -0.7603 -0.7192
 9993TIP3    H251471   3.599   3.902   5.114  0.1564  0.2793 -1.2523
 9994TIP3   OH251472   6.076   3.835  13.495  0.8122 -0.1506 -0.1589
 9994TIP3    H151473   6.083   3.914  13.442  1.0171 -0.7470 -1.0356
 9994TIP3    H251474   6.166   3.804  13.504  0.9290  0.6435  1.6285
 9995TIP3   OH251475   4.796   4.212  15.802  0.4266 -0.0106  0.3195
 9995TIP3    H151476   4.815   4.304  15.784  0.0725 -0.0310 -0.1288
 9995TIP3    H251477   4.712   4.213  15.847  0.7635 -0.0577  0.9669
 9996TIP3   OH251478   4.642   5.122   2.069 -0.5338 -0.0891  0.3898
 9996TIP3    H151479   4.616   5.119   1.977 -0.8728  0.4273  0.4658
 9996TIP3    H251480   4.568   5.163   2.113 -1.0647 -1.8171  1.1396
 9997TIP3   OH251481   6.616   0.797   2.206 -0.2996 -0.2622  0.1977
 9997TIP3    H151482   6.677   0.870   2.211 -0.5212 -0.0203 -0.5292
 9997TIP3    H251483   6.599   0.787   2.112 -2.3209  0.4494  0.4718
 9998TIP3   OH251484   4.216   5.396   4.649 -0.2031 -0.3092 -0.5821
 9998TIP3    H151485   4.237   5.328   4.713 -1.7986 -0.3693 -0.1033
 9998TIP3    H251486   4.160   5.457   4.697  0.1909  0.6963 -1.3706
 9999TIP3   OH251487   6.765   5.117  16.704  0.0229 -0.2486  0.4515
 9999TIP3    H151488   6.796   5.075  16.784 -1.4774  0.0461  1.2134
 9999TIP3    H251489   6.802   5.065  16.633  1.3839 -0.5020  1.3286
10000TIP3   OH251490   0.753   5.540  13.458 -0.3412 -0.3370 -0.2889
10000TIP3    H151491   0.745   5.622  13.507 -0.7507 -0.9414  0.6593
10000TIP3    H251492   0.844   5.513  13.473 -0.1288  0.0713 -0.8159
10001TIP3   OH251493   3.795   6.732  14.031 -0.5461  0.4441  0.2446
10001TIP3    H151494   3.704   6.761  14.033 -0.4707  0.6109  2.6875
10001TIP3    H251495   3.815   6.708  14.122  0.7483 -3.0181 -0.8712
10002TIP3   OH251496   3.677   2.293  16.446 -0.1890  0.4467 -0.1418
10002TIP3    H151497   3.722   2.341  16.375  0.5670 -0.8485 -0.5528
10002TIP3    H251498   3.657   2.208  16.408 -1.1068  0.2576  0.7450
10003TIP3   OH251499   3.526   1.277   2.474 -0.6997  0.1947  0.1917
10003TIP3    H151500   3.535   1.369   2.501  3.5405 -0.1919  0.4657
10003TIP3    H251501   3.558   1.277   2.383  2.9059 -1.4992  1.3528
10004TIP3   OH251502   2.093   3.122  15.365 -0.9318  0.1227  0.2530
10004TIP3    H151503   2.004   3.092  15.383 -1.1901  0.4192 -0.4826
10004TIP3    H251504   2.130   3.141  15.451 -1.9584  1.0636  0.4957
10005TIP3   OH251505   2.645   2.229  13.475 -0.2605 -0.2846 -0.1698
10005TIP3    H151506   2.678   2.218  13.385 -1.2428  2.3305 -0.8964
10005TIP3    H251507   2.706   2.290  13.515 -0.8285 -0.0854  0.3888
10006TIP3   OH251508   6.555   5.158  11.324  0.0102 -0.3035 -0.6509
10006TIP3    H151509   6.626   5.206  11.366  0.7991 -1.4636 -0.6211
10006TIP3    H251510   6.476   5.206  11.348  0.9212  1.9769 -2.0992
10007TIP3   OH251511   3.253   0.637   1.637  0.3888  0.3685 -0.0113
10007TIP3    H151512   3.283   0.554   1.673  0.7629 -0.0454 -1.2239
10007TIP3    H251513   3.331   0.692   1.635  0.3701  0.3917 -0.1573
10008TIP3   OH251514   0.248   2.777  16.608  0.4067 -0.0484  0.5796
10008TIP3    H151515   0.271   2.797  16.699  0.7228  2.0262  0.0878
10008TIP3    H251516   0.301   2.839  16.557 -0.9882 -0.0812 -0.9255
10009TIP3   OH251517   6.708   1.099  11.574 -0.0276  0.2798 -0.0087
10009TIP3    H151518   6.751   1.183  11.561  1.9555 -0.7871 -0.6244
10009TIP3    H251519   6.779   1.039  11.599 -1.5297 -1.0233  1.2621
10010TIP3   OH251520   0.398   4.167   4.204  0.8692 -0.1373  0.4908
10010TIP3    H151521   0.470   4.208   4.155  0.5532  0.8089  0.8005
10010TIP3    H251522   0.323   4.172   4.145  1.0153 -0.9912  0.2257
10011TIP3   OH251523   6.125   3.216  17.250 -0.2720  0.6166 -0.2012
10011TIP3    H151524   6.192   3.150  17.267 -0.7708  0.5760  1.7293
10011TIP3    H251525   6.122   3.268  17.330 -2.0807  1.0229 -0.5146
10012TIP3   OH251526   5.969   0.904   5.203 -0.5502  0.3979 -0.1676
10012TIP3    H151527   5.979   0.938   5.292  0.1885 -2.2692  0.7949
10012TIP3    H251528   5.901   0.960   5.165 -1.2583  1.2596  2.2366
10013TIP3   OH251529   0.859   1.185   2.273  0.7098  0.1007 -0.1134
10013TIP3    H151530   0.798   1.186   2.346 -0.0316 -1.6758 -0.6682
10013TIP3    H251531   0.858   1.274   2.238  1.4177  1.0846  2.2925
10014TIP3   OH251532   5.830   1.994   4.522 -0.3655 -0.0081  0.6643
10014TIP3    H151533   5.843   2.037   4.438 -0.9485 -2.2015 -0.5884
10014TIP3    H251534   5.749   1.944   4.511  0.5022 -1.7617  1.9087
10015TIP3   OH251535   4.357   4.530   5.657  0.2732 -0.4736  0.4745
10015TIP3    H151536   4.366   4.435   5.648 -1.7001 -0.5536 -1.1095
10015TIP3    H251537   4.271   4.542   5.697  0.8406  0.6438  1.3969
10016TIP3   OH251538   2.514   6.003  12.818 -0.0865 -0.2705 -0.5548
10016TIP3    H151539   2.517   6.098  12.818 -1.5769 -0.1979  1.0701
10016TIP3    H251540   2.438   5.981  12.871  0.9346 -2.3830  0.1119
10017TIP3   OH251541   2.752   0.850  13.128 -0.2555 -0.3660  0.4427
10017TIP3    H151542   2.827   0.800  13.097  0.8041  1.1839  0.4206
10017TIP3    H251543   2.679   0.822  13.072  0.7916 -0.3427 -0.9530
10018TIP3   OH251544   6.639   3.139  17.139  0.1733 -0.0586 -0.6344
10018TIP3    H151545   6.734   3.146  17.129  0.2665 -0.7028 -0.2661
10018TIP3    H251546   6.605   3.144  17.049  0.4886  0.9863 -0.6981
10019TIP3   OH251547   0.813   6.413   6.605 -0.2232 -0.0858  0.0164
10019TIP3    H151548   0.765   6.444   6.681 -0.4112 -0.6295  0.1213
10019TIP3    H251549   0.831   6.492   6.553 -0.0252  0.2920  0.6603
10020TIP3   OH251550   5.491   4.923   5.026  0.0066  0.5139 -0.4180
10020TIP3    H151551   5.423   4.931   4.959 -1.7019 -0.9636  1.0716
10020TIP3    H251552   5.486   5.004   5.076 -0.6542  0.4150 -0.3221
10021TIP3   OH251553   6.797   5.077  11.507 -0.3302 -0.1409  0.0378
10021TIP3    H151554   6.861   5.116  11.566  0.0197  0.4355 -0.7224
10021TIP3    H251555   6.823   5.106  11.420 -0.8106 -1.0385 -0.4149
10022TIP3   OH251556   3.826   5.734   2.077 -0.2330  0.2082  0.4968
10022TIP3    H151557   3.869   5.688   2.004 -3.6847 -0.4753 -1.2233
10022TIP3    H251558   3.863   5.822   2.074  1.6122 -0.5487 -0.3828
10023TIP3   OH251559   0.482   2.489  12.667 -0.5219 -0.1215 -0.1913
10023TIP3    H151560   0.547   2.487  12.598 -1.5466  1.9510 -1.2471
10023TIP3    H251561   0.533   2.491  12.748  0.6828 -0.3494 -0.9303
10024TIP3   OH251562   2.320   5.512   0.666  0.2131  0.4023 -0.2903
10024TIP3    H151563   2.346   5.589   0.716 -0.2839  0.3201  0.0999
10024TIP3    H251564   2.381   5.443   0.693  0.9770  0.7870 -1.0164
10025TIP3   OH251565   3.676   6.232  14.552 -0.6488  0.1548 -0.0342
10025TIP3    H151566   3.741   6.164  14.568 -1.0813 -0.5984 -1.3652
10025TIP3    H251567   3.592   6.192  14.575 -0.5960  1.4310  2.5748
10026TIP3   OH251568   2.785   4.335  11.677  0.3672 -0.0137 -0.2837
10026TIP3    H151569   2.843   4.401  11.640  1.0594  0.7124  2.0122
10026TIP3    H251570   2.799   4.258  11.622  1.8852  0.8106 -1.0820
10027TIP3   OH251571   0.429   6.557   4.209 -0.2986 -0.2128 -0.6874
10027TIP3    H151572   0.396   6.566   4.298  1.0860  2.2777 -0.3827
10027TIP3    H251573   0.389   6.477   4.176 -0.2787 -1.5529  2.4170
10028TIP3   OH251574   0.821   1.588   2.667 -0.5128 -0.3065 -0.2500
10028TIP3    H151575   0.808   1.678   2.636  0.4033 -0.8270 -2.1937
10028TIP3    H251576   0.915   1.582   2.686 -0.0948 -1.5494 -2.5004
10029TIP3   OH251577   5.069   2.264  13.923  0.0109  0.4317  0.5301
10029TIP3    H151578   5.015   2.201  13.875 -1.2875  0.3580  2.0442
10029TIP3    H251579   5.073   2.341  13.866 -2.4945  0.7951  0.7766
10030TIP3   OH251580   4.839   4.894  16.110  0.7794  0.2631 -0.1869
10030TIP3    H151581   4.814   4.968  16.166  0.7216 -0.1514  0.3442
10030TIP3    H251582   4.925   4.917  16.077  1.2840  0.0339  0.9356
10031TIP3   OH251583   6.271   0.358  15.568  0.0691 -0.3341 -0.1272
10031TIP3    H151584   6.254   0.264  15.554  0.5728 -0.1588 -2.0651
10031TIP3    H251585   6.258   0.398  15.482  2.4291  0.9848  0.0740
10032TIP3   OH251586   5.696   4.030   5.172 -0.5783  0.3955 -0.2818
10032TIP3    H151587   5.657   3.943   5.173  0.4605 -0.0860 -0.2170
10032TIP3    H251588   5.637   4.084   5.225 -1.2817 -0.2444 -0.4096
10033TIP3   OH251589   3.807   2.901  14.211 -0.4255  0.2821 -0.3837
10033TIP3    H151590   3.719   2.914  14.248  0.3680  3.4572  0.5064
10033TIP3    H251591   3.816   2.971  14.146  0.4519 -1.7022 -2.4514
10034TIP3   OH251592   3.138   2.498   2.602  0.2348  0.1322 -0.4131
10034TIP3    H151593   3.107   2.585   2.626 -1.6535  0.0009 -2.1777
10034TIP3    H251594   3.057   2.448   2.586  1.2937 -1.8122  0.1481
10035TIP3   OH251595   6.106   5.459  14.403 -0.1798  0.4634  0.2420
10035TIP3    H151596   6.049   5.535  14.392 -0.5542  0.1124 -0.3176
10035TIP3    H251597   6.108   5.419  14.316  1.9007  1.1561 -0.0466
10036TIP3   OH251598   5.248   1.106   1.891 -0.2252 -0.0144  0.4892
10036TIP3    H151599   5.305   1.043   1.934 -0.8389 -0.6700  0.3700
10036TIP3    H251600   5.214   1.160   1.962 -0.5649 -0.5441  0.7417
10037TIP3   OH251601   2.997   3.243  16.954  0.7787 -0.4739  0.3117
10037TIP3    H151602   2.996   3.315  17.018 -2.4878 -2.1664  2.2996
10037TIP3    H251603   3.019   3.166  17.005  2.5455 -1.2132 -1.4924
10038TIP3   OH251604   4.254   0.387   3.121 -0.4216  0.0584 -0.0942
10038TIP3    H151605   4.178   0.418   3.169  0.0346  0.3939  0.4170
10038TIP3    H251606   4.243   0.423   3.033 -2.3477 -2.3100 -0.8774
10039TIP3   OH251607   1.182   2.957  12.227  0.0305  0.1498  0.0948
10039TIP3    H151608   1.202   2.951  12.133 -1.7624  0.5289 -0.3353
10039TIP3    H251609   1.265   2.982  12.268  0.8247  0.0174 -1.3928
10040TIP3   OH251610   4.243   6.657   2.332 -0.1407 -0.0675 -0.4809
10040TIP3    H151611   4.147   6.666   2.332 -0.0768  0.8091  1.5356
10040TIP3    H251612   4.269   6.682   2.421  1.8324 -1.8422 -0.5525
10041TIP3   OH251613   1.271   6.041  12.321 -0.5131 -0.0043  0.6667
10041TIP3    H151614   1.360   6.059  12.350 -0.1279 -1.1956  0.2725
10041TIP3    H251615   1.223   6.122  12.337  0.7573  0.8070  0.4337
10042TIP3   OH251616   3.737   3.311   0.198  0.0803  0.2600  0.5152
10042TIP3    H151617   3.683   3.305   0.277 -0.5773 -0.9703 -0.0175
10042TIP3    H251618   3.710   3.393   0.157 -1.2879 -0.2531  0.3487
10043TIP3   OH251619   5.413   0.277  15.681 -0.2417 -0.1119 -0.1846
10043TIP3    H151620   5.407   0.183  15.662  0.9698 -0.2268 -0.0506
10043TIP3    H251621   5.466   0.312  15.610 -0.7935  0.5042 -0.2985
10044TIP3   OH251622   2.415   4.480  12.092  0.0837  0.3046 -0.0714
10044TIP3    H151623   2.474   4.555  12.083  0.2122  0.5610  2.5086
10044TIP3    H251624   2.342   4.500  12.033 -0.8184  3.4434  2.0220
10045TIP3   OH251625   4.069   0.169  11.175  0.5113 -0.2461  0.1208
10045TIP3    H151626   3.986   0.151  11.219  0.7629  0.3196  0.8429
10045TIP3    H251627   4.074   0.105  11.104 -0.3308 -0.5686  0.3559
10046TIP3   OH251628   2.322   3.513  12.818  0.0927  0.2449  0.5844
10046TIP3    H151629   2.244   3.563  12.796 -0.5107 -0.8776  0.0874
10046TIP3    H251630   2.378   3.574  12.865 -1.2859  0.9373  1.3586
10047TIP3   OH251631   5.465   6.626  14.698 -0.3031  0.2416  0.0948
10047TIP3    H151632   5.484   6.546  14.746 -0.7225  0.0097 -0.1249
10047TIP3    H251633   5.476   6.602  14.606 -1.7547  0.0643 -0.0503
10048TIP3   OH251634   4.033   5.455  16.359  0.4700 -0.7652  0.1688
10048TIP3    H151635   3.972   5.520  16.393 -0.5040 -2.0460  0.9442
10048TIP3    H251636   4.042   5.391  16.429  1.5811 -1.3568 -0.4925
10049TIP3   OH251637   4.332   1.831  12.914 -0.3743 -0.6862 -0.0695
10049TIP3    H151638   4.391   1.786  12.853 -0.7421  0.0337 -0.9749
10049TIP3    H251639   4.266   1.872  12.858 -0.4940  0.3179  0.7874
10050TIP3   OH251640   3.502   0.138  16.545 -0.0659 -0.3461 -0.5214
10050TIP3    H151641   3.594   0.145  16.568  0.1295 -1.4236 -0.9238
10050TIP3    H251642   3.463   0.221  16.572  1.2494  0.5761 -1.4114
10051TIP3   OH251643   6.300   3.791  15.471  0.0146  0.7360 -0.0928
10051TIP3    H151644   6.292   3.723  15.403  0.0052 -0.8106  1.4245
10051TIP3    H251645   6.212   3.826  15.481 -0.2132  0.1670 -0.0816
10052TIP3   OH251646   3.263   0.577   4.591  0.0786 -0.0318 -0.4845
10052TIP3    H151647   3.198   0.557   4.523  1.4934 -2.0636 -1.2796
10052TIP3    H251648   3.342   0.602   4.542  0.8243 -0.5936  0.4117
10053TIP3   OH251649   5.666   4.430  14.105 -0.4197 -0.1891  0.8471
10053TIP3    H151650   5.679   4.509  14.158  0.4128  0.7823 -0.7724
10053TIP3    H251651   5.578   4.438  14.070 -1.2188 -1.1538  2.5751
10054TIP3   OH251652   6.583   6.184   6.553 -0.8926 -0.0350 -0.1806
10054TIP3    H151653   6.496   6.208   6.521  0.2498  0.9454 -2.6895
10054TIP3    H251654   6.618   6.266   6.589 -0.0707  0.1715 -1.4355
10055TIP3   OH251655   4.693   0.932  15.306  0.3488 -0.5959 -0.2900
10055TIP3    H151656   4.696   0.876  15.383  2.2187  0.7544  0.6647
10055TIP3    H251657   4.767   0.904  15.253  0.5295  0.1247 -0.4182
10056TIP3   OH251658   0.353   6.164  16.318  0.4732 -0.7070  0.0701
10056TIP3    H151659   0.294   6.175  16.244 -0.1072 -0.4275  0.5714
10056TIP3    H251660   0.306   6.107  16.378  0.4558  0.0001  0.7361
10057TIP3   OH251661   5.297   4.225  12.418 -0.3625  0.1069 -0.2483
10057TIP3    H151662   5.329   4.144  12.457 -0.2245 -0.1817 -0.9467
10057TIP3    H251663   5.202   4.212  12.410 -0.6801  0.9562  1.8107
10058TIP3   OH251664   3.544   5.411   0.486  0.6050 -1.0594  0.2616
10058TIP3    H151665   3.569   5.444   0.400  0.4295  0.6877  0.8673
10058TIP3    H251666   3.530   5.317   0.473  2.2099 -1.1071 -1.2391
10059TIP3   OH251667   3.800   0.055   4.534 -0.1150 -0.0934 -0.1042
10059TIP3    H151668   3.875   0.047   4.476  1.1832  0.7586  1.4287
10059TIP3    H251669   3.787   0.149   4.545 -0.0879 -0.2488  1.3172
10060TIP3   OH251670   1.941   5.263   4.129 -0.0236 -0.1930 -0.0917
10060TIP3    H151671   2.024   5.221   4.155  0.7954  1.6692  0.4026
10060TIP3    H251672   1.918   5.317   4.205 -2.0149 -1.1353 -0.0009
10061TIP3   OH251673   3.632   2.923   3.862 -0.1445 -0.1068 -0.2633
10061TIP3    H151674   3.594   3.010   3.875  0.0479 -0.2343  1.2166
10061TIP3    H251675   3.626   2.908   3.768 -0.6916  1.2768 -0.4563
10062TIP3   OH251676   4.130   4.635   5.778  0.2148 -0.1219  0.3479
10062TIP3    H151677   4.099   4.706   5.721  0.8971  0.3826  0.5941
10062TIP3    H251678   4.051   4.584   5.798  0.2311 -1.3487 -2.4794
10063TIP3   OH251679   3.840   4.687   5.608 -0.0637  0.3942  0.2409
10063TIP3    H151680   3.879   4.775   5.609 -0.5570  0.6234  1.7202
10063TIP3    H251681   3.782   4.687   5.684 -1.2844 -0.6818 -0.6892
10064TIP3   OH251682   5.739   6.472  11.341 -0.4068  0.1382 -0.2512
10064TIP3    H151683   5.680   6.529  11.390  0.8529  1.5804 -0.3611
10064TIP3    H251684   5.686   6.395  11.320 -1.3424  0.0504  2.2586
10065TIP3   OH251685   3.023   6.034   4.337  0.1605 -0.2677 -0.6023
10065TIP3    H151686   3.108   6.011   4.375 -1.1205 -1.4776  1.6469
10065TIP3    H251687   3.004   6.121   4.373  0.4078 -0.0421 -1.0203
10066TIP3   OH251688   5.381   1.863  11.876  0.1222 -0.2852 -0.2806
10066TIP3    H151689   5.318   1.893  11.810  1.8328  0.1235 -1.7618
10066TIP3    H251690   5.360   1.770  11.889 -0.0531 -0.4264 -1.5740
10067TIP3   OH251691   1.527   6.159   0.964  0.2752 -0.4950  0.7197
10067TIP3    H151692   1.553   6.109   0.886 -0.6416 -1.3478  0.9563
10067TIP3    H251693   1.597   6.141   1.027  2.0998  1.8394 -0.5621
10068TIP3   OH251694   6.581   5.674   5.717 -0.7921  0.2210  0.1419
10068TIP3    H151695   6.565   5.650   5.808  0.5641 -0.4872  0.2127
10068TIP3    H251696   6.644   5.608   5.686 -2.2771 -0.3784 -1.7100
10069TIP3   OH251697   2.759   0.684  16.878 -0.3061 -0.2716  0.5112
10069TIP3    H151698   2.719   0.682  16.965 -2.0007 -1.6067 -0.2706
10069TIP3    H251699   2.774   0.592  16.856  1.7044  0.1245  0.0763
10070TIP3   OH251700   2.204   5.028  11.747 -0.3029 -0.3313  0.0503
10070TIP3    H151701   2.195   5.092  11.676 -0.8686  0.2610  0.6482
10070TIP3    H251702   2.223   5.081  11.824  0.1559 -0.9625  0.3688
10071TIP3   OH251703   4.187   4.832  15.491 -0.4661  0.2034 -0.0274
10071TIP3    H151704   4.099   4.794  15.488  0.0879 -1.2730  1.5871
10071TIP3    H251705   4.229   4.802  15.411 -1.3173  0.6417 -0.6461
10072TIP3   OH251706   4.234   1.142  14.517  0.1329 -0.2173  0.1638
10072TIP3    H151707   4.264   1.081  14.584 -1.1069 -2.4812 -1.2834
10072TIP3    H251708   4.145   1.112  14.496 -0.3695  1.8862 -0.8301
10073TIP3   OH251709   4.356   4.572  11.689 -0.6038  0.2883  0.2603
10073TIP3    H151710   4.261   4.573  11.702 -0.3964 -0.0785  2.0316
10073TIP3    H251711   4.375   4.652  11.640 -1.8872  0.0832 -0.5850
10074TIP3   OH251712   2.419   2.008   2.254  0.1080  0.8800  0.5653
10074TIP3    H151713   2.349   1.942   2.246  0.4687  0.5147  0.3972
10074TIP3    H251714   2.420   2.031   2.347 -0.5184  1.1983  0.4998
10075TIP3   OH251715   3.894   5.493   2.298  0.3738  0.4550  1.1148
10075TIP3    H151716   3.875   5.585   2.283  0.4420  0.7577  2.7907
10075TIP3    H251717   3.958   5.470   2.231  0.3052  1.6163  0.6553
10076TIP3   OH251718   2.360   4.257  16.885  0.7232  0.4184  0.0207
10076TIP3    H151719   2.348   4.186  16.949  0.0177  0.2141 -0.3328
10076TIP3    H251720   2.289   4.318  16.904  1.2652  0.9782  0.2461
10077TIP3   OH251721   6.480   5.554  16.688 -0.1799  0.5356  0.4471
10077TIP3    H151722   6.515   5.494  16.754  0.6384 -0.3869 -0.7862
10077TIP3    H251723   6.558   5.597  16.652 -0.4446 -0.2349 -1.1004
10078TIP3   OH251724   4.776   4.555  14.808  0.4467 -0.2238  0.7168
10078TIP3    H151725   4.817   4.638  14.784  1.4858 -0.3861  1.8989
10078TIP3    H251726   4.754   4.565  14.901 -0.4497 -0.8617  0.5912
10079TIP3   OH251727   2.107   4.150  15.963 -0.0015 -0.4965  0.6918
10079TIP3    H151728   2.099   4.245  15.970  0.3844 -0.3710 -0.4274
10079TIP3    H251729   2.056   4.116  16.037  0.8416  0.5951  1.8023
10080TIP3   OH251730   1.970   4.176   3.057 -0.2513  0.6447 -0.1643
10080TIP3    H151731   2.001   4.230   3.130  0.9793 -0.2546 -0.0148
10080TIP3    H251732   2.029   4.101   3.056 -1.6329 -0.4642 -0.6795
10081TIP3   OH251733   2.303   5.758  12.713  1.3355  0.7923  0.2152
10081TIP3    H151734   2.344   5.692  12.769 -1.1073 -0.0812  1.0240
10081TIP3    H251735   2.232   5.712  12.669  2.4994  1.7629 -2.7777
10082TIP3   OH251736   3.334   2.572  15.276 -0.0338 -0.0885  0.3041
10082TIP3    H151737   3.321   2.483  15.243 -0.8545  0.0399  0.2899
10082TIP3    H251738   3.323   2.564  15.371  1.7594 -0.3490  0.5164
10083TIP3   OH251739   0.060   3.562  12.412 -0.0088  0.2876 -0.5977
10083TIP3    H151740   0.002   3.638  12.404  0.2908  0.4798 -0.9296
10083TIP3    H251741   0.014   3.503  12.472  0.5471  1.4852  1.0371
10084TIP3   OH251742   0.814   2.208  13.722 -0.4154  0.7050 -0.3621
10084TIP3    H151743   0.750   2.167  13.664 -0.7333  0.4207  0.1903
10084TIP3    H251744   0.800   2.166  13.807  1.1747 -0.0926 -0.4686
10085TIP3   OH251745   2.646   2.297   0.674 -1.0526 -0.8302 -0.4080
10085TIP3    H151746   2.637   2.284   0.579 -0.8638 -0.7500 -0.4363
10085TIP3    H251747   2.612   2.385   0.690 -1.0318 -0.8221 -0.4081
10086TIP3   OH251748   2.424   4.534   6.395 -0.2667 -0.4535 -0.6498
10086TIP3    H151749   2.362   4.576   6.336 -0.2396  0.8827  0.2471
10086TIP3    H251750   2.370   4.504   6.469 -0.3621 -2.4578 -1.5004
10087TIP3   OH251751   5.594   0.610   0.383  0.4679  0.3563  0.3184
10087TIP3    H151752   5.554   0.524   0.373  1.4151 -0.0629  0.0495
10087TIP3    H251753   5.607   0.641   0.294  0.8492  0.4312  0.3984
10088TIP3   OH251754   5.603   0.655  17.128  0.9266 -0.3107  0.6111
10088TIP3    H151755   5.514   0.626  17.150  1.1703 -1.9984 -0.5708
10088TIP3    H251756   5.590   0.737  17.081 -0.0182 -0.6026  0.3493
10089TIP3   OH251757   0.342   4.079   3.817  0.8259  0.1159  0.0788
10089TIP3    H151758   0.416   4.089   3.757  1.0708  1.5748  0.5890
10089TIP3    H251759   0.345   4.158   3.871 -0.6391 -0.1843  0.6208
10090TIP3   OH251760   0.510   0.282   1.251 -0.1177  1.0442 -0.2726
10090TIP3    H151761   0.578   0.270   1.184 -1.0494  2.4989 -1.5261
10090TIP3    H251762   0.464   0.362   1.224 -0.9961  1.2384  1.7082
10091TIP3   OH251763   3.729   1.119  16.561 -0.3337  0.0613 -0.3966
10091TIP3    H151764   3.681   1.148  16.483 -2.2237 -0.0326  0.7136
10091TIP3    H251765   3.748   1.026  16.544 -0.0863  0.2321 -1.0649
10092TIP3   OH251766   5.115   3.602  11.538  0.0674 -0.2930 -0.0247
10092TIP3    H151767   5.149   3.612  11.626  0.0122  1.2132 -0.1680
10092TIP3    H251768   5.069   3.684  11.521  0.8068 -0.2291 -1.7756
10093TIP3   OH251769   1.471   1.206  15.661 -0.4699 -0.0499 -0.1176
10093TIP3    H151770   1.391   1.194  15.609 -0.5408  0.6214 -0.1787
10093TIP3    H251771   1.542   1.203  15.597 -0.6916  2.7847 -0.5782
10094TIP3   OH251772   1.742   2.332  11.474  0.5042  0.3000 -0.2633
10094TIP3    H151773   1.659   2.378  11.482 -0.5690 -1.9160  2.0426
10094TIP3    H251774   1.769   2.345  11.383 -1.0132  3.2508 -0.3540
10095TIP3   OH251775   2.218   6.382   5.360  0.3600  0.0676 -0.4737
10095TIP3    H151776   2.276   6.455   5.385 -2.2335  2.1214 -0.1884
10095TIP3    H251777   2.240   6.312   5.421  0.5972  1.8266  1.5293
10096TIP3   OH251778   5.384   0.586  14.185  0.4123  0.0841  0.4228
10096TIP3    H151779   5.455   0.563  14.124 -1.5615 -0.9791 -1.5643
10096TIP3    H251780   5.326   0.510  14.182 -2.3781  2.1789 -0.3953
10097TIP3   OH251781   0.471   3.907  15.544 -0.0588 -0.6169 -0.0733
10097TIP3    H151782   0.481   3.992  15.586  0.2036 -1.0210  0.7055
10097TIP3    H251783   0.423   3.925  15.464  0.5053  0.3440 -0.2024
10098TIP3   OH251784   6.743   5.774   2.520 -0.4091  0.0371  0.4238
10098TIP3    H151785   6.699   5.701   2.564  1.0670 -0.8853  0.4035
10098TIP3    H251786   6.724   5.761   2.428 -1.0146  0.2861  0.5070
10099TIP3   OH251787   1.649   0.759   4.855  0.3446 -0.2949  0.2096
10099TIP3    H151788   1.721   0.741   4.794  1.4066  1.9117  0.7921
10099TIP3    H251789   1.672   0.711   4.934  0.3648 -0.8917 -0.1523
10100TIP3   OH251790   4.476   0.683   2.892 -0.2702 -0.2047  0.0954
10100TIP3    H151791   4.540   0.643   2.950  0.4661 -1.4506 -1.5292
10100TIP3    H251792   4.402   0.622   2.890 -0.4069 -0.0379 -0.0650
10101TIP3   OH251793   6.344   3.661  16.953  0.3081  0.0240  0.0769
10101TIP3    H151794   6.413   3.674  16.888 -0.3287  0.5622 -0.4834
10101TIP3    H251795   6.268   3.707  16.918 -0.3778 -0.6768  0.6370
10102TIP3   OH251796   5.305   0.624  11.798 -0.2153  0.2909  0.0222
10102TIP3    H151797   5.307   0.533  11.769  1.7024  0.2401  0.2546
10102TIP3    H251798   5.356   0.625  11.879  0.7048  1.7636 -0.5581
10103TIP3   OH251799   0.555   0.794  14.405  0.5438  0.4108 -0.3712
10103TIP3    H151800   0.462   0.791  14.427  0.6687  0.0602  0.1241
10103TIP3    H251801   0.561   0.755  14.318  0.3292 -0.3280 -0.0583
10104TIP3   OH251802   5.132   5.216   4.659  0.0980 -0.1426  0.3427
10104TIP3    H151803   5.171   5.301   4.680 -1.8895  1.0268 -0.6397
10104TIP3    H251804   5.165   5.195   4.572  0.2286 -0.1704  0.3986
10105TIP3   OH251805   0.649   2.273   5.509 -0.2914 -0.2007  0.4215
10105TIP3    H151806   0.688   2.358   5.526 -0.0976 -0.1263 -0.3970
10105TIP3    H251807   0.600   2.284   5.428 -2.4760 -0.1459  1.6942
10106TIP3   OH251808   0.963   1.667   1.471  0.0672  0.1390  1.0514
10106TIP3    H151809   0.893   1.701   1.527 -0.6844 -0.7796  0.6909
10106TIP3    H251810   0.917   1.617   1.403  1.0657 -0.3032  0.6910
10107TIP3   OH251811   1.022   3.776   4.354  0.0808 -0.3766  0.6477
10107TIP3    H151812   0.965   3.717   4.402 -2.3762  1.1515 -0.2892
10107TIP3    H251813   0.980   3.787   4.269  1.8388  0.7142 -0.1149
10108TIP3   OH251814   6.553   6.270   5.187 -0.2625 -0.0227 -0.2279
10108TIP3    H151815   6.475   6.219   5.209  0.2686 -0.4578  0.6635
10108TIP3    H251816   6.547   6.348   5.243  1.3929 -1.4103  1.9512
10109TIP3   OH251817   2.412   2.771  13.411  0.1399 -0.2452 -0.1739
10109TIP3    H151818   2.439   2.712  13.482  0.7782 -0.8844 -0.9399
10109TIP3    H251819   2.374   2.713  13.345 -0.7407  0.3826 -0.2193
10110TIP3   OH251820   6.604   4.806  15.209  0.8943 -0.7906  0.4963
10110TIP3    H151821   6.648   4.748  15.271  0.9670 -0.0473  1.1596
10110TIP3    H251822   6.652   4.889  15.217  1.2480 -0.8502 -0.9609
10111TIP3   OH251823   3.042   2.718  12.163  1.0816 -0.3336 -0.8662
10111TIP3    H151824   2.974   2.737  12.098 -1.1298 -0.7856  1.2286
10111TIP3    H251825   3.020   2.631  12.196  0.7903  0.8192  2.1055
10112TIP3   OH251826   3.356   5.972  16.191  1.0667 -0.3290 -0.3258
10112TIP3    H151827   3.402   5.888  16.200  1.7029  0.0318 -0.1169
10112TIP3    H251828   3.302   5.978  16.270  1.1905 -0.4489 -0.2301
10113TIP3   OH251829   6.211   4.047   2.359  0.1436 -0.2036  0.1875
10113TIP3    H151830   6.126   4.086   2.339 -0.2323 -0.8781  0.4461
10113TIP3    H251831   6.254   4.036   2.274 -0.2908 -0.4514  0.0019
10114TIP3   OH251832   3.513   6.166   5.432  0.5566 -0.0249  0.4642
10114TIP3    H151833   3.486   6.078   5.460 -1.6145  0.6362  0.5499
10114TIP3    H251834   3.481   6.173   5.342  1.2844  0.4521  0.2384
10115TIP3   OH251835   5.931   0.151   2.831 -0.0461 -0.2963  0.2471
10115TIP3    H151836   5.872   0.100   2.775  0.4185 -0.2142 -0.3146
10115TIP3    H251837   5.908   0.124   2.920  1.2977 -2.6958 -0.1071
10116TIP3   OH251838   6.046   1.931  10.889 -0.1355  0.0012  0.6730
10116TIP3    H151839   6.053   1.888  10.803 -0.2394 -0.3222  0.8250
10116TIP3    H251840   6.120   1.991  10.891 -0.4277  0.3849  0.1486
10117TIP3   OH251841   2.862   1.694   6.440  0.3540 -0.0148 -0.0077
10117TIP3    H151842   2.828   1.755   6.507  0.7390  0.9168 -0.6495
10117TIP3    H251843   2.884   1.750   6.366 -0.2830 -1.0754 -1.0069
10118TIP3   OH251844   3.871   2.283  11.536  0.1686 -0.6232  0.3932
10118TIP3    H151845   3.791   2.230  11.529 -0.7556  0.7271  0.5408
10118TIP3    H251846   3.861   2.351  11.469  1.8552 -1.2620 -0.5454
10119TIP3   OH251847   4.149   5.169  12.378 -0.4192 -0.2623  0.5006
10119TIP3    H151848   4.109   5.250  12.345 -1.5295 -1.3219 -0.8380
10119TIP3    H251849   4.241   5.191  12.391 -0.4968  0.9331 -0.8612
10120TIP3   OH251850   4.410   0.220  13.828 -0.7937  0.3070  0.9356
10120TIP3    H151851   4.460   0.141  13.846 -0.0291  0.4578 -0.4381
10120TIP3    H251852   4.474   0.291  13.837 -1.3164  0.7121  1.4966
10121TIP3   OH251853   5.851   0.733  15.350  0.3082  0.1557 -0.0456
10121TIP3    H151854   5.893   0.658  15.391  0.7584  0.3161 -0.2060
10121TIP3    H251855   5.776   0.753  15.406  0.8061  0.2527  0.5870
10122TIP3   OH251856   2.421   1.846  13.805  0.4362 -0.1958  0.2304
10122TIP3    H151857   2.402   1.753  13.820  0.4535 -0.1644  0.4417
10122TIP3    H251858   2.357   1.872  13.739  0.0648 -0.2188  0.5758
10123TIP3   OH251859   1.576   2.247   4.322 -0.3366  0.2596 -0.3529
10123TIP3    H151860   1.522   2.286   4.253 -0.7997  1.3653  0.6301
10123TIP3    H251861   1.642   2.313   4.342  0.2099 -0.3242 -0.1806
10124TIP3   OH251862   0.333   2.821  14.386 -0.0548 -0.1743  0.2542
10124TIP3    H151863   0.269   2.891  14.392 -0.3358 -0.3126 -0.8910
10124TIP3    H251864   0.282   2.744  14.360  0.0428 -1.1305  2.8001
10125TIP3   OH251865   4.888   0.542   2.906  0.5156  0.2075 -0.5407
10125TIP3    H151866   4.803   0.512   2.937  0.6031 -0.0722 -0.5722
10125TIP3    H251867   4.866   0.606   2.837  0.3294 -0.5587 -1.2088
10126TIP3   OH251868   5.444   2.133  17.051  0.0458 -0.2718 -1.1305
10126TIP3    H151869   5.383   2.206  17.056 -0.8490 -0.8588 -3.0375
10126TIP3    H251870   5.482   2.127  17.139 -2.5984  0.1519  0.0855
10127TIP3   OH251871   0.465   3.477   5.485  0.1392  0.0911 -0.0190
10127TIP3    H151872   0.538   3.528   5.450  0.1722  1.2503  1.6604
10127TIP3    H251873   0.400   3.543   5.510 -0.5935 -0.8094  0.4837
10128TIP3   OH251874   0.906   3.215   3.133 -0.5631  0.6497  0.2050
10128TIP3    H151875   0.967   3.143   3.144  0.1661  1.2534  0.1555
10128TIP3    H251876   0.840   3.182   3.071  0.4345  0.4455 -0.7685
10129TIP3   OH251877   1.103   2.329  15.055 -0.0361 -0.4150 -0.0423
10129TIP3    H151878   1.065   2.395  15.114  0.3828 -0.6610  0.5128
10129TIP3    H251879   1.144   2.266  15.114  3.3689  1.1030 -0.6612
10130TIP3   OH251880   2.905   1.478   3.627  0.1854  0.0776 -0.1359
10130TIP3    H151881   2.850   1.423   3.571 -0.4324  2.3901 -1.8560
10130TIP3    H251882   2.874   1.567   3.611  2.0598  1.0749  1.5960
10131TIP3   OH251883   4.881   0.382   3.408  0.7317  0.2225  0.0280
10131TIP3    H151884   4.963   0.422   3.437  0.3259  0.2135  1.2539
10131TIP3    H251885   4.851   0.331   3.484  0.3437 -0.9780 -0.9131
10132TIP3   OH251886   0.815   2.006  11.418 -0.5097  0.1712 -0.1712
10132TIP3    H151887   0.902   1.975  11.394 -0.0278  1.1894  0.2625
10132TIP3    H251888   0.760   1.927  11.416  0.6975 -0.7113  0.8716
10133TIP3   OH251889   3.628   2.324  16.751  0.0005  0.4465  0.1423
10133TIP3    H151890   3.539   2.295  16.769 -0.5354  1.5287 -0.6451
10133TIP3    H251891   3.641   2.304  16.658  1.0643 -0.9017  0.5588
10134TIP3   OH251892   6.512   3.783  10.575  0.6728 -0.3042  0.7293
10134TIP3    H151893   6.605   3.763  10.570  0.5812 -0.2088 -2.0450
10134TIP3    H251894   6.470   3.717  10.520 -0.5880  1.4095 -0.4317
10135TIP3   OH251895   3.934   3.846   4.606 -0.1940  0.7140  0.0132
10135TIP3    H151896   3.903   3.933   4.630 -1.7053  0.2204 -0.1426
10135TIP3    H251897   3.997   3.861   4.536 -0.9088  1.6360 -0.4375
10136TIP3   OH251898   1.770   5.283  12.562  0.0736 -0.6031 -0.1258
10136TIP3    H151899   1.724   5.338  12.498 -0.2737 -0.9038 -0.1324
10136TIP3    H251900   1.710   5.211  12.580 -0.2086 -0.0318  1.2368
10137TIP3   OH251901   3.235   2.786  15.824  0.2565 -0.0471  0.1803
10137TIP3    H151902   3.265   2.746  15.742  1.2494  1.8211 -0.3825
10137TIP3    H251903   3.144   2.808  15.808  0.2761 -0.2362 -0.2066
10138TIP3   OH251904   3.427   0.399  15.806 -0.4987 -0.0150  0.2502
10138TIP3    H151905   3.409   0.316  15.763 -3.5585  0.7648 -0.0838
10138TIP3    H251906   3.473   0.375  15.886 -0.4344 -1.9520 -0.3379
10139TIP3   OH251907   6.464   5.752   5.955 -0.2010 -0.1673 -0.1091
10139TIP3    H151908   6.527   5.820   5.930 -0.0527 -0.3691 -0.2831
10139TIP3    H251909   6.478   5.741   6.049 -0.9955  0.8358  0.1401
10140TIP3   OH251910   6.573   1.251   5.258  0.0575  0.7608  0.2460
10140TIP3    H151911   6.492   1.225   5.302 -0.6018 -0.5527 -1.7178
10140TIP3    H251912   6.633   1.177   5.272 -0.3973  0.0109 -1.6685
10141TIP3   OH251913   4.963   1.713   1.445  0.6132 -0.4034  0.5315
10141TIP3    H151914   4.897   1.696   1.512 -0.9042  1.4156 -0.4531
10141TIP3    H251915   5.024   1.774   1.486  0.0122  0.2515  0.4525
10142TIP3   OH251916   3.208   3.883   4.335 -0.2748 -0.6181 -0.4297
10142TIP3    H151917   3.135   3.905   4.392 -1.2303  0.5962 -2.0687
10142TIP3    H251918   3.276   3.850   4.394 -1.6884 -0.6087  1.2418
10143TIP3   OH251919   6.311   0.458   6.779  0.0941 -0.2945  0.6636
10143TIP3    H151920   6.308   0.532   6.718 -0.0104 -1.4910 -0.7977
10143TIP3    H251921   6.221   0.425   6.781 -0.0517  0.1608  2.0054
10144TIP3   OH251922   5.365   1.880  17.021  0.3201 -0.6093  0.1578
10144TIP3    H151923   5.383   1.862  17.113 -2.9801  0.4666  1.0768
10144TIP3    H251924   5.387   1.973  17.010 -0.9083 -0.3035  0.2887
10145TIP3   OH251925   3.952   3.347  11.229  0.8188  0.4232  0.1271
10145TIP3    H151926   4.042   3.331  11.201  0.0953 -1.8937 -1.0002
10145TIP3    H251927   3.941   3.442  11.222  2.9549  0.6539 -0.3613
10146TIP3   OH251928   1.968   4.220   4.136 -0.4953  0.0577 -0.4588
10146TIP3    H151929   2.034   4.157   4.164  0.2125  1.4998  1.1840
10146TIP3    H251930   1.888   4.196   4.182 -0.5439 -0.3546 -0.7582
10147TIP3   OH251931   2.795   1.282  14.540 -0.7587 -0.0827 -0.0718
10147TIP3    H151932   2.793   1.236  14.456 -1.1174 -1.2262  0.5455
10147TIP3    H251933   2.837   1.365  14.521  0.5803 -0.9724 -1.0778
10148TIP3   OH251934   1.174   3.572   6.767  0.7929  0.2503 -0.6666
10148TIP3    H151935   1.153   3.661   6.796  0.1149 -0.4088  0.9316
10148TIP3    H251936   1.124   3.560   6.687 -0.2891  0.7735 -0.0688
10149TIP3   OH251937   5.645   1.542   3.957  0.1276 -0.0079  0.0566
10149TIP3    H151938   5.733   1.510   3.939  0.2776 -0.0031  0.7736
10149TIP3    H251939   5.604   1.474   4.010 -0.7550 -0.6173 -1.3656
10150TIP3   OH251940   1.120   1.797   5.105 -0.2314 -0.3741 -0.0452
10150TIP3    H151941   1.048   1.800   5.168  0.4772 -0.2106  0.7643
10150TIP3    H251942   1.126   1.886   5.071  0.8084  0.0722  1.2808
10151TIP3   OH251943   4.270   4.178  12.289  0.3614 -0.1037 -0.1405
10151TIP3    H151944   4.255   4.200  12.380 -0.6339 -1.2460 -0.0143
10151TIP3    H251945   4.358   4.210  12.271 -0.0088  1.4722  0.7780
10152TIP3   OH251946   3.339   5.763   1.633 -0.0806 -0.2168  0.4469
10152TIP3    H151947   3.387   5.720   1.562  2.1737  0.1616  1.6850
10152TIP3    H251948   3.257   5.715   1.639  1.3594 -2.8065  0.1839
10153TIP3   OH251949   0.209   0.180   0.198 -0.4515  0.5914  0.1152
10153TIP3    H151950   0.201   0.097   0.244  0.1908  0.3119 -0.2760
10153TIP3    H251951   0.176   0.245   0.261 -3.0643 -0.1934 -0.3957
10154TIP3   OH251952   3.292   2.042   4.838 -0.2895  0.1143 -0.4890
10154TIP3    H151953   3.244   1.984   4.896 -0.6975  1.9633  1.0648
10154TIP3    H251954   3.366   2.073   4.891 -0.5600  1.6655 -0.9984
10155TIP3   OH251955   4.031   5.810   3.545  1.2202 -0.1334  0.8281
10155TIP3    H151956   4.118   5.780   3.520  1.2184  0.3610  0.2154
10155TIP3    H251957   4.034   5.905   3.535 -0.6020 -0.3992 -3.1348
10156TIP3   OH251958   2.945   6.456   2.158 -0.2713 -0.1262 -0.0757
10156TIP3    H151959   2.975   6.372   2.193 -1.1508 -0.2380  0.4089
10156TIP3    H251960   3.023   6.493   2.116  0.6503 -0.2726  1.4504
10157TIP3   OH251961   6.194   6.345  15.403  0.5820  0.3864  0.2113
10157TIP3    H151962   6.256   6.374  15.471  1.0423  1.3247 -0.5970
10157TIP3    H251963   6.234   6.371  15.321  0.4325 -1.5388 -0.4976
10158TIP3   OH251964   4.967   0.770   4.363 -0.1527 -0.2732  0.7112
10158TIP3    H151965   4.909   0.822   4.307 -0.5206 -0.1956  1.1619
10158TIP3    H251966   4.959   0.810   4.450  2.1364  1.0217  0.3785
10159TIP3   OH251967   3.037   2.628   4.444  0.3811 -0.4924  0.2364
10159TIP3    H151968   3.034   2.686   4.369  2.6054 -1.2930 -0.5262
10159TIP3    H251969   2.958   2.575   4.437  0.3434 -0.2574 -1.3148
10160TIP3   OH251970   0.808   4.741  10.882  0.1922 -0.5720 -0.2239
10160TIP3    H151971   0.789   4.686  10.959  1.1813  0.4775  0.7899
10160TIP3    H251972   0.893   4.709  10.850 -0.2017 -0.9839 -0.8655
10161TIP3   OH251973   2.784   1.375  11.959  0.1118 -0.5101  0.3988
10161TIP3    H151974   2.789   1.455  12.012 -1.2712 -2.3060  3.3285
10161TIP3    H251975   2.862   1.378  11.904  0.9692  2.0223  1.6712
10162TIP3   OH251976   6.182   6.614   4.855  0.4591  0.2063 -0.3897
10162TIP3    H151977   6.123   6.548   4.890  1.4315  0.0494  1.0223
10162TIP3    H251978   6.260   6.608   4.911  1.3786  1.1171 -1.5515
10163TIP3   OH251979   4.780   3.781   1.266 -0.6892 -0.0874  0.3310
10163TIP3    H151980   4.867   3.801   1.300  0.5338 -0.0348 -2.7039
10163TIP3    H251981   4.722   3.794   1.341  1.6635  1.7992  1.9189
10164TIP3   OH251982   4.720   5.335  14.308 -0.3236 -0.0850  0.5779
10164TIP3    H151983   4.773   5.340  14.228 -0.4079 -1.8229  0.3959
10164TIP3    H251984   4.783   5.310  14.376 -0.3553  0.8499  0.9559
10165TIP3   OH251985   2.491   2.633  15.056  0.1948 -0.4905  0.2035
10165TIP3    H151986   2.571   2.581  15.048  1.0264  0.4086  2.2967
10165TIP3    H251987   2.437   2.607  14.982  3.1434  0.1217 -2.2300
10166TIP3   OH251988   3.029   4.326   1.520  0.2196 -0.0853 -0.2438
10166TIP3    H151989   2.947   4.362   1.554 -0.7203  0.9791 -3.4395
10166TIP3    H251990   3.018   4.231   1.525 -1.1401  0.0489 -0.4515
10167TIP3   OH251991   3.444   1.443   0.578  0.2106  0.0662  0.4810
10167TIP3    H151992   3.489   1.515   0.623  0.5043 -0.8070  1.6016
10167TIP3    H251993   3.357   1.478   0.558  1.0256  1.4392 -0.8535
10168TIP3   OH251994   2.448   1.562  16.191 -0.0245 -0.4899  0.4223
10168TIP3    H151995   2.537   1.525  16.190  0.6303  1.0169  1.3763
10168TIP3    H251996   2.445   1.620  16.115 -0.2115 -0.5812  0.3613
10169TIP3   OH251997   0.981   1.433   3.794  0.1210 -0.1060  0.3930
10169TIP3    H151998   0.985   1.515   3.844  3.2769 -0.6555  1.1270
10169TIP3    H251999   0.975   1.461   3.703  1.0866  0.9839  0.6461
10170TIP3   OH252000   4.498   2.439   4.599 -0.1502  0.1109  0.3169
10170TIP3    H152001   4.494   2.534   4.595 -1.0657  0.0898  0.6410
10170TIP3    H252002   4.519   2.413   4.509  1.6225  0.6710  0.5433
10171TIP3   OH252003   1.326   0.674   5.098  0.4288 -0.5921 -0.0364
10171TIP3    H152004   1.336   0.594   5.046  0.7942 -0.1103 -0.7080
10171TIP3    H252005   1.247   0.658   5.150  0.0693 -1.0918 -0.7203
10172TIP3   OH252006   4.156   6.697  16.374 -0.2153 -0.5201  0.3290
10172TIP3    H152007   4.141   6.742  16.292  0.2195  1.9945  1.5909
10172TIP3    H252008   4.251   6.686  16.379 -0.2510 -0.7937  0.4386
10173TIP3   OH252009   4.445   3.970  14.729 -0.4124  0.3539  0.2326
10173TIP3    H152010   4.486   4.027  14.664 -1.0519  1.8981  1.1497
10173TIP3    H252011   4.401   3.902  14.678 -0.8667  1.5151 -0.9451
10174TIP3   OH252012   5.301   1.803   4.396 -0.6113 -0.0982 -0.0204
10174TIP3    H152013   5.298   1.878   4.337  0.4759  0.0365  0.0788
10174TIP3    H252014   5.329   1.730   4.340 -1.0487 -0.2971  0.0165
10175TIP3   OH252015   5.983   2.050  12.925  0.1187 -0.0719 -0.2573
10175TIP3    H152016   5.902   2.099  12.939  0.1687  0.1974 -0.8767
10175TIP3    H252017   5.956   1.974  12.874  0.5403  1.0041 -2.1234
10176TIP3   OH252018   5.461   1.532   3.623  1.1211 -0.2423 -0.8300
10176TIP3    H152019   5.542   1.482   3.619  0.7826 -0.7176 -2.0901
10176TIP3    H252020   5.480   1.613   3.574  1.2673  0.2739  0.0808
10177TIP3   OH252021   0.943   6.260   4.227 -0.6534  0.0301  0.0033
10177TIP3    H152022   0.933   6.339   4.174 -0.2943  0.6605  0.8740
10177TIP3    H252023   0.926   6.288   4.317 -0.5567 -0.8869  0.3137
10178TIP3   OH252024   1.359   6.088  11.907 -0.3686  0.0793  0.2539
10178TIP3    H152025   1.290   6.147  11.875 -1.0372 -0.4352  0.7545
10178TIP3    H252026   1.402   6.137  11.977  1.2424  1.3027 -1.5325
10179TIP3   OH252027   6.245   3.189   6.052 -0.0032 -0.2324 -0.0092
10179TIP3    H152028   6.309   3.245   6.008  0.9103 -0.1573  1.4059
10179TIP3    H252029   6.268   3.100   6.024  1.1290 -0.2628  0.9958
10180TIP3   OH252030   1.044   0.025  14.120 -0.0463  0.1018  1.0119
10180TIP3    H152031   1.029   0.002  14.028  0.6698  2.0927  0.3822
10180TIP3    H252032   0.984   0.098  14.137  1.4015  1.2137  1.4663
10181TIP3   OH252033   0.899   2.425  17.040 -0.2681 -0.3383 -0.0943
10181TIP3    H152034   0.880   2.499  17.097 -0.7144 -1.5909  1.4060
10181TIP3    H252035   0.983   2.392  17.070 -0.3070 -0.7556 -0.4320
10182TIP3   OH252036   5.159   5.582  12.296 -0.5420 -0.3813 -0.2662
10182TIP3    H152037   5.074   5.616  12.269 -0.2264  2.0404  1.5889
10182TIP3    H252038   5.218   5.657  12.290  1.4265 -1.9579 -1.2432
10183TIP3   OH252039   0.215   4.157  11.312 -0.1652  0.6761  0.3151
10183TIP3    H152040   0.162   4.213  11.254 -1.6497 -0.7127  0.2993
10183TIP3    H252041   0.199   4.068  11.281  1.1351  0.1164  1.1868
10184TIP3   OH252042   5.162   2.692   2.479 -0.2625  0.6215  0.1407
10184TIP3    H152043   5.120   2.676   2.394 -0.6307 -0.9117  0.5915
10184TIP3    H252044   5.254   2.707   2.458 -0.4424  0.7722 -0.5687
10185TIP3   OH252045   3.499   4.195   1.721 -0.1494 -0.0978 -0.4428
10185TIP3    H152046   3.549   4.265   1.764  0.4062 -1.2615  0.8142
10185TIP3    H252047   3.523   4.116   1.768 -1.6886 -0.9719 -1.1076
10186TIP3   OH252048   0.100   2.897  15.543  0.4761 -0.0726 -0.5805
10186TIP3    H152049   0.054   2.850  15.613  1.6654  0.6030  0.6730
10186TIP3    H252050   0.037   2.963  15.514 -0.2306 -0.7200 -0.5361
10187TIP3   OH252051   0.125   1.414   4.359 -0.5729 -0.2175 -0.1590
10187TIP3    H152052   0.185   1.477   4.397 -2.0833  0.6747  0.8021
10187TIP3    H252053   0.127   1.432   4.265  0.1835  0.2114 -0.0599
10188TIP3   OH252054   0.011   4.685  14.489 -0.1945 -0.3002  0.5330
10188TIP3    H152055   0.045   4.647  14.409  1.0007  1.0512  0.3734
10188TIP3    H252056  -0.042   4.616  14.528 -0.8389 -0.9407 -1.4443
10189TIP3   OH252057   5.650   2.569  11.239  0.5546 -0.2820  0.5186
10189TIP3    H152058   5.675   2.640  11.298 -1.1230  0.5038  0.3334
10189TIP3    H252059   5.604   2.506  11.295 -2.2063  1.0851 -0.1119
10190TIP3   OH252060   2.575   2.239  15.843  0.4718  0.1463  0.1674
10190TIP3    H152061   2.615   2.206  15.763  1.8806  0.8824  0.5600
10190TIP3    H252062   2.612   2.186  15.913 -1.5242 -1.1789  0.2712
10191TIP3   OH252063   2.108   3.090   5.176 -0.1260  0.2877  0.2758
10191TIP3    H152064   2.177   3.122   5.234 -0.5164  1.1662  0.2732
10191TIP3    H252065   2.143   3.101   5.088 -0.3976  1.0492  0.2611
10192TIP3   OH252066   1.155   5.733  14.047 -0.3232  0.6288 -0.1371
10192TIP3    H152067   1.104   5.711  13.969 -1.9580  0.6969  0.8987
10192TIP3    H252068   1.160   5.829  14.045  1.9899  0.5230 -1.6098
10193TIP3   OH252069   0.171   1.047  12.615  0.3123  0.0100  0.1666
10193TIP3    H152070   0.187   1.114  12.683 -1.0694 -0.5031  1.0221
10193TIP3    H252071   0.167   1.097  12.533  0.2740  0.8644  0.6776
10194TIP3   OH252072   0.089   5.595   5.091 -0.1966  0.9249 -0.1938
10194TIP3    H152073   0.104   5.553   5.006  0.2875  0.3504  0.1641
10194TIP3    H252074   0.078   5.522   5.152 -0.9098  1.3375  0.1741
10195TIP3   OH252075   2.868   4.259   5.159 -0.2108  0.1072  0.0081
10195TIP3    H152076   2.922   4.202   5.214 -1.2358  0.2576  1.2001
10195TIP3    H252077   2.925   4.332   5.137  0.1233  0.1872  1.1275
10196TIP3   OH252078   5.804   3.170   2.953  0.3134 -0.3603 -0.3657
10196TIP3    H152079   5.867   3.098   2.947  0.2664 -0.3599 -0.9036
10196TIP3    H252080   5.807   3.211   2.867 -0.4782 -0.4020 -0.4131
10197TIP3   OH252081   6.123   6.556  15.065  0.2411 -0.9620  0.0137
10197TIP3    H152082   6.053   6.605  15.110  0.2095 -0.3827 -0.6547
10197TIP3    H252083   6.077   6.506  14.998  0.4347 -0.7696 -0.2649
10198TIP3   OH252084   0.816   1.280  17.254 -0.3433  0.1336  0.4214
10198TIP3    H152085   0.888   1.301  17.313  1.6118 -0.6720 -1.5995
10198TIP3    H252086   0.848   1.304  17.167 -1.7405 -2.1051 -0.7622
10199TIP3   OH252087   3.308   2.542   4.901  0.0341  0.3386  0.2194
10199TIP3    H152088   3.261   2.598   4.962  0.8368  1.0301  0.2133
10199TIP3    H252089   3.281   2.574   4.814 -1.6911 -1.1304  0.1777
10200TIP3   OH252090   2.122   1.238  14.640  0.6145  0.1732 -0.2198
10200TIP3    H152091   2.079   1.189  14.710  0.7312 -1.2352 -1.1302
10200TIP3    H252092   2.203   1.270  14.680  1.2721 -1.6522 -0.0643
10201TIP3   OH252093   5.468   0.127   4.066 -0.3704 -0.8214  0.3259
10201TIP3    H152094   5.461   0.058   4.131 -0.4550 -1.1552 -0.0347
10201TIP3    H252095   5.470   0.081   3.982  0.9718 -0.4648  0.1510
10202TIP3   OH252096   2.761   3.111  16.041 -0.6860 -0.1424  0.9330
10202TIP3    H152097   2.714   3.159  16.109 -2.5348 -1.0879  0.3700
10202TIP3    H252098   2.692   3.062  15.995  0.3951  1.1578 -2.1918
10203TIP3   OH252099   1.362   5.386   2.928  0.1175  0.3895 -0.2417
10203TIP3    H152100   1.430   5.404   2.994 -0.8677 -0.0986  0.9287
10203TIP3    H252101   1.397   5.312   2.878  0.4175  0.0910  0.4002
10204TIP3   OH252102   3.912   0.178  15.588 -0.4705  0.3194  0.0808
10204TIP3    H152103   3.876   0.233  15.657  1.2036  1.0173  0.4022
10204TIP3    H252104   3.967   0.114  15.634  1.6298  1.5440 -0.6721
10205TIP3   OH252105   5.239   0.736  12.231  0.0295  0.1207 -0.1275
10205TIP3    H152106   5.311   0.734  12.167 -1.1113 -3.6453 -1.4257
10205TIP3    H252107   5.164   0.700  12.184 -1.4960 -0.4102  2.5964
10206TIP3   OH252108   4.393   2.685   2.366  0.0014  0.2015 -0.2497
10206TIP3    H152109   4.317   2.734   2.333  0.6382  0.5582 -1.2160
10206TIP3    H252110   4.420   2.632   2.291  1.0627  0.5085 -0.0828
10207TIP3   OH252111   3.242   4.414   5.366  0.4951  0.4216  0.0253
10207TIP3    H152112   3.336   4.402   5.383 -0.0088  0.2401  2.8517
10207TIP3    H252113   3.216   4.487   5.422 -1.1044  0.3736 -0.6195
10208TIP3   OH252114   2.645   6.099   0.247 -0.0522 -0.0147  0.3372
10208TIP3    H152115   2.707   6.132   0.311  1.4793 -0.7098 -0.7388
10208TIP3    H252116   2.631   6.172   0.187 -0.3390  0.1779  0.6437
10209TIP3   OH252117   1.789   2.001   0.214  0.3000 -0.2265  0.1352
10209TIP3    H152118   1.723   2.011   0.282  0.4301 -0.4013  0.2869
10209TIP3    H252119   1.827   1.914   0.230  0.9890  0.1246  0.4277
10210TIP3   OH252120   3.870   0.070   5.418  0.0272  0.0732 -0.2810
10210TIP3    H152121   3.867   0.002   5.352 -1.3087 -0.5066  0.3599
10210TIP3    H252122   3.870   0.152   5.368  2.1931 -0.3574 -1.0681
10211TIP3   OH252123   3.542   5.842  12.627  0.5798 -1.2798  0.2405
10211TIP3    H152124   3.478   5.772  12.639  0.1487 -0.7562  1.0867
10211TIP3    H252125   3.552   5.880  12.714  1.9164 -1.2426  0.0810
10212TIP3   OH252126   1.655   1.974  15.065 -0.2832  0.1146 -0.3079
10212TIP3    H152127   1.560   1.963  15.053 -0.1121 -0.3255 -1.2643
10212TIP3    H252128   1.663   2.015  15.151 -1.2322 -2.0847  0.8729
10213TIP3   OH252129   5.686   4.150   3.892 -0.1074 -0.3057 -0.3205
10213TIP3    H152130   5.773   4.112   3.908 -0.7733 -1.7900 -0.1156
10213TIP3    H252131   5.704   4.235   3.853  1.4424 -0.7262 -0.5681
10214TIP3   OH252132   3.676   2.806   5.020  0.0047  0.4968  0.0019
10214TIP3    H152133   3.718   2.754   5.088 -0.4066 -0.6417 -0.6037
10214TIP3    H252134   3.631   2.876   5.067 -0.4681 -0.4158  0.9206
10215TIP3   OH252135   5.094   4.864  14.889 -0.0861 -0.8511  0.7259
10215TIP3    H152136   5.179   4.908  14.888  0.0234 -0.9928  2.4184
10215TIP3    H252137   5.114   4.772  14.875 -0.1821 -0.5930 -1.2565
10216TIP3   OH252138   1.976   6.556   1.179  0.0459  0.2468  0.4711
10216TIP3    H152139   1.965   6.488   1.113  2.4205 -0.0243  0.2887
10216TIP3    H252140   1.984   6.637   1.128 -0.5884  0.3623  0.5590
10217TIP3   OH252141   2.017   5.539   3.283  0.7829  0.4966 -0.1437
10217TIP3    H152142   2.067   5.537   3.364 -1.4601  1.9598  1.3659
10217TIP3    H252143   2.080   5.518   3.215  3.4622  2.4632  1.6276
10218TIP3   OH252144   5.940   5.477  12.498  0.6388  0.2691  0.3437
10218TIP3    H152145   5.904   5.533  12.428  0.3189  0.4666  0.6618
10218TIP3    H252146   5.999   5.417  12.453 -0.5563 -0.4513 -0.2709
10219TIP3   OH252147   3.810   0.155  11.076 -0.2976  0.6538 -0.0757
10219TIP3    H152148   3.721   0.119  11.081 -0.2202  0.5516  0.7075
10219TIP3    H252149   3.843   0.127  10.991 -0.8116  0.2135 -0.1333
10220TIP3   OH252150   0.533   3.186   4.463 -0.1289 -0.4392  0.1765
10220TIP3    H152151   0.471   3.232   4.520  1.7808 -0.9566  2.7332
10220TIP3    H252152   0.554   3.250   4.395 -0.3632  1.1837  1.5983
10221TIP3   OH252153   2.677   1.499  14.074 -0.0477  0.0736  0.4497
10221TIP3    H152154   2.668   1.541  13.989 -0.9436 -1.3018 -0.1531
10221TIP3    H252155   2.634   1.558  14.135 -1.6274 -0.1288 -0.4493
10222TIP3   OH252156   2.126   3.274   1.693 -0.1762 -0.1992 -0.2477
10222TIP3    H152157   2.177   3.338   1.643 -1.1409 -0.1501 -1.1902
10222TIP3    H252158   2.144   3.296   1.785  0.3413  0.7395 -0.5620
10223TIP3   OH252159   6.334   0.507   1.694 -0.0325  0.3008 -0.3995
10223TIP3    H152160   6.283   0.460   1.628 -0.7715 -0.0055  0.3844
10223TIP3    H252161   6.407   0.448   1.714 -1.8362 -1.2940  1.7747
10224TIP3   OH252162   1.664   2.151  12.371 -0.4344 -0.0647  0.4590
10224TIP3    H152163   1.745   2.127  12.326 -0.3866  0.3984  0.2962
10224TIP3    H252164   1.617   2.205  12.308  0.4438  2.1122  1.6186
10225TIP3   OH252165   0.906   1.451  15.604 -0.1630  0.0173  0.1007
10225TIP3    H152166   0.820   1.455  15.561  0.1991 -0.0504 -0.6384
10225TIP3    H252167   0.894   1.388  15.675 -0.7917  0.1840  0.1436
10226TIP3   OH252168   1.199   4.279  12.154 -0.1596  0.2752  0.0558
10226TIP3    H152169   1.220   4.365  12.191 -1.8553  1.2406 -1.1558
10226TIP3    H252170   1.104   4.272  12.161 -0.2489 -0.6299 -1.7107
10227TIP3   OH252171   6.434   0.212  16.612 -0.0559 -0.1158  0.3178
10227TIP3    H152172   6.362   0.150  16.606  0.6175 -0.9175  0.4667
10227TIP3    H252173   6.401   0.291  16.570 -1.7635  0.2206  2.2014
10228TIP3   OH252174   3.547   6.741   0.069 -0.0982  0.0552  0.2381
10228TIP3    H152175   3.469   6.739   0.013  1.0217 -1.2930 -1.3322
10228TIP3    H252176   3.512   6.739   0.158 -1.8674  0.1407 -0.4148
10229TIP3   OH252177   2.433   2.232   2.092 -0.3203 -0.4360 -0.3890
10229TIP3    H152178   2.427   2.139   2.115 -0.3329 -0.1942  0.5727
10229TIP3    H252179   2.360   2.246   2.032  1.2033 -1.6555 -2.6215
10230TIP3   OH252180   4.031   4.234   3.486 -0.3156 -0.5386 -0.1755
10230TIP3    H152181   3.995   4.286   3.557 -0.5830 -0.1132 -0.6187
10230TIP3    H252182   3.961   4.173   3.463 -0.8134  0.3945 -1.1436
10231TIP3   OH252183   4.567   2.149   3.663 -0.4643 -0.2165  0.6968
10231TIP3    H152184   4.479   2.146   3.701 -0.6802 -0.6792  0.1716
10231TIP3    H252185   4.618   2.090   3.718 -0.4419  0.1604  1.0888
10232TIP3   OH252186   6.680   3.136  13.040 -0.3398 -0.5460 -0.0985
10232TIP3    H152187   6.585   3.129  13.026 -0.2645  0.2749 -1.0940
10232TIP3    H252188   6.691   3.120  13.134 -1.4336 -0.9365 -0.0241
10233TIP3   OH252189   4.483   0.724   1.483  0.2350 -0.2131  0.4558
10233TIP3    H152190   4.469   0.797   1.544  0.3991  0.3431 -0.1549
10233TIP3    H252191   4.429   0.746   1.407  0.2984 -0.7233  0.2625
10234TIP3   OH252192   2.862   2.154   2.094 -0.5218 -0.2488 -0.9219
10234TIP3    H152193   2.781   2.201   2.112  1.0178  2.1130  0.1122
10234TIP3    H252194   2.885   2.114   2.178  0.8637  1.5329 -0.4112
10235TIP3   OH252195   6.038   3.210  12.326 -0.4844  0.5736 -0.8577
10235TIP3    H152196   6.126   3.175  12.310 -1.0530 -2.8776  2.7736
10235TIP3    H252197   6.051   3.281  12.389 -0.0824  1.9275 -2.4307
10236TIP3   OH252198   6.083   6.543  14.423  0.1707 -0.1372  0.1898
10236TIP3    H152199   6.015   6.543  14.356 -0.0398  1.3909  0.3764
10236TIP3    H252200   6.164   6.561  14.376  0.1175  0.2500  0.2372
10237TIP3   OH252201   0.362   4.220  13.646 -0.2332  0.2869  0.1208
10237TIP3    H152202   0.452   4.235  13.617  0.0170  1.0950  1.2574
10237TIP3    H252203   0.324   4.165  13.578  1.1027 -0.0193 -0.4066
10238TIP3   OH252204   3.120   5.025  14.757  1.4911 -0.0056  0.2079
10238TIP3    H152205   3.126   4.996  14.848 -0.1184 -2.8100 -0.5035
10238TIP3    H252206   3.210   5.025  14.726  1.9436 -0.0860  1.4828
10239TIP3   OH252207   0.705   1.131   1.582 -0.6960 -0.0659  0.5793
10239TIP3    H152208   0.695   1.050   1.531 -1.0259  0.9773 -1.0465
10239TIP3    H252209   0.721   1.101   1.671 -1.5872 -1.9331  0.1392
10240TIP3   OH252210   1.627   4.463   1.478 -0.4793 -0.2268 -0.0158
10240TIP3    H152211   1.620   4.398   1.548 -1.9777 -0.0539  0.0301
10240TIP3    H252212   1.636   4.547   1.523 -1.7871 -0.0794 -0.0063
10241TIP3   OH252213   2.017   4.504   0.895  0.1493 -0.1960  0.5401
10241TIP3    H152214   2.112   4.501   0.900  0.1609 -1.1430 -0.0185
10241TIP3    H252215   1.994   4.431   0.837 -0.8352  0.7736 -0.3071
10242TIP3   OH252216   0.890   2.514   1.172  0.0242 -1.0791  0.1177
10242TIP3    H152217   0.938   2.450   1.120  0.5086 -0.7606  0.1690
10242TIP3    H252218   0.932   2.598   1.151 -1.5871 -0.5549 -1.1251
10243TIP3   OH252219   3.475   6.557   4.754  0.3395  0.4810 -0.1176
10243TIP3    H152220   3.561   6.598   4.768 -0.6033  2.1417  0.9888
10243TIP3    H252221   3.422   6.625   4.713 -0.3692 -0.6326 -1.0795
10244TIP3   OH252222   2.792   5.853  13.909  0.3113  0.1654 -0.3108
10244TIP3    H152223   2.869   5.799  13.923  0.0822 -0.4842 -1.4880
10244TIP3    H252224   2.793   5.873  13.815 -2.3411 -2.0326 -0.8905
10245TIP3   OH252225   3.921   5.695   6.172 -0.0167  0.0527 -0.6719
10245TIP3    H152226   3.834   5.731   6.153  0.0350  0.3646 -0.3326
10245TIP3    H252227   3.954   5.665   6.088 -1.3848 -2.1840 -0.4584
10246TIP3   OH252228   1.814   4.979  14.717 -0.2894  0.5965 -0.1129
10246TIP3    H152229   1.886   5.042  14.708  0.5403 -0.3933 -0.5305
10246TIP3    H252230   1.736   5.028  14.692  0.3701  1.4056 -0.6083
10247TIP3   OH252231   4.957   4.353  13.875  0.1991 -0.0418  0.9473
10247TIP3    H152232   4.909   4.372  13.956  1.8535  1.9758  1.5072
10247TIP3    H252233   4.903   4.392  13.806 -0.0441  0.3564  1.3574
10248TIP3   OH252234   4.170   6.159  16.575 -0.6476 -0.1236 -0.6441
10248TIP3    H152235   4.193   6.119  16.659 -2.6119  0.4389  0.1833
10248TIP3    H252236   4.081   6.128  16.557 -0.9859  1.3156 -1.5442
10249TIP3   OH252237   2.290   3.020  15.200 -0.3502 -0.5354 -0.0182
10249TIP3    H152238   2.327   3.090  15.146  0.6129 -0.2289  1.0222
10249TIP3    H252239   2.242   3.067  15.269  0.3540 -0.9044  0.7232
10250TIP3   OH252240   4.389   6.435   3.876 -0.5811 -0.5909 -0.0993
10250TIP3    H152241   4.315   6.412   3.820  1.4278 -0.2433 -2.9959
10250TIP3    H252242   4.405   6.355   3.928 -2.3831 -0.9606 -0.0841
10251TIP3   OH252243   2.669   1.681  14.629  0.1975 -0.6142 -0.4843
10251TIP3    H152244   2.582   1.662  14.664 -0.1950  1.5422 -0.1979
10251TIP3    H252245   2.726   1.688  14.706  0.2530 -0.2916 -0.5505
10252TIP3   OH252246   6.456   3.431   2.277 -0.0507 -0.0315 -0.5889
10252TIP3    H152247   6.433   3.493   2.208  0.4784 -1.3361 -1.9782
10252TIP3    H252248   6.375   3.416   2.325 -0.4103  0.9290 -0.8882
10253TIP3   OH252249   3.146   1.996   0.446  0.0770  0.4878  0.2660
10253TIP3    H152250   3.206   1.933   0.488 -0.4916  0.0373  0.4115
10253TIP3    H252251   3.063   1.949   0.441  0.1718  0.4786 -1.5261
10254TIP3   OH252252   6.297   0.096  13.270 -0.5849  0.4277 -0.2294
10254TIP3    H152253   6.285   0.087  13.365  0.3895  0.6289 -0.0788
10254TIP3    H252254   6.293   0.190  13.254 -2.4711  0.2829 -0.6337
10255TIP3   OH252255   2.220   5.373   5.029  0.3548  0.4832 -0.7165
10255TIP3    H152256   2.301   5.340   5.068  0.0328  2.1800  1.5093
10255TIP3    H252257   2.152   5.312   5.059  0.6172 -0.2880 -1.6530
10256TIP3   OH252258   3.964   2.486  13.275  0.7016 -0.4584  0.3743
10256TIP3    H152259   3.920   2.428  13.337  2.9967 -0.9974  1.5946
10256TIP3    H252260   4.039   2.435  13.244  0.6895  0.5328 -1.3528
10257TIP3   OH252261   2.626   0.880   5.048  0.0967  0.2228 -0.2336
10257TIP3    H152262   2.641   0.857   5.139 -1.3350  0.8525  0.1806
10257TIP3    H252263   2.712   0.907   5.015  0.5605  0.2749  1.0079
10258TIP3   OH252264   3.802   2.090  17.065  0.2920 -0.7657 -0.7655
10258TIP3    H152265   3.757   2.169  17.097  0.7611 -0.4110 -0.9771
10258TIP3    H252266   3.851   2.120  16.988  0.2693 -1.3183 -0.9976
10259TIP3   OH252267   2.178   5.514  13.249  0.2014 -0.3869  0.4096
10259TIP3    H152268   2.130   5.486  13.327  0.7017 -1.6432  0.2757
10259TIP3    H252269   2.123   5.582  13.210 -0.4368 -0.3132  1.4175
10260TIP3   OH252270   0.199   5.577   5.594 -0.0343 -0.2795  0.3794
10260TIP3    H152271   0.233   5.659   5.558  0.6164 -0.8445 -0.3050
10260TIP3    H252272   0.166   5.601   5.681  0.5187  0.6259  0.3442
10261TIP3   OH252273   5.634   1.391   4.976  0.0149 -0.0379 -0.0320
10261TIP3    H152274   5.606   1.482   4.987 -0.4118 -0.3701  1.8299
10261TIP3    H252275   5.679   1.370   5.058  0.3681 -1.4133 -0.5741
10262TIP3   OH252276   2.493   3.573  14.863  0.0130 -0.1385 -0.1582
10262TIP3    H152277   2.422   3.628  14.832 -1.0550 -0.2823  1.9560
10262TIP3    H252278   2.560   3.634  14.895  0.0296 -0.0359 -0.3862
10263TIP3   OH252279   5.388   1.719  12.212  0.0564  0.0566 -0.2644
10263TIP3    H152280   5.303   1.718  12.167  1.1037 -0.2149 -2.2954
10263TIP3    H252281   5.436   1.646  12.173  0.9959 -0.1862  1.3355
10264TIP3   OH252282   5.392   3.765  12.031 -0.7106 -0.3145  0.0584
10264TIP3    H152283   5.416   3.679  12.066  0.7975  0.3337  0.6488
10264TIP3    H252284   5.322   3.747  11.968 -1.1781 -1.8510  0.9983
10265TIP3   OH252285   1.049   1.276   5.570 -0.2068  0.1545 -0.3576
10265TIP3    H152286   1.131   1.305   5.609 -0.5327  0.6268 -0.0232
10265TIP3    H252287   1.067   1.186   5.541 -0.0899 -0.3548  1.2407
10266TIP3   OH252288   6.055   1.581   4.965  0.1089 -0.0491  0.4004
10266TIP3    H152289   6.063   1.665   4.920 -3.8975  0.9134  1.2473
10266TIP3    H252290   6.038   1.518   4.895 -2.3010  0.7986  0.1855
10267TIP3   OH252291   0.173   1.208   3.603  0.0935  0.2481 -0.1685
10267TIP3    H152292   0.196   1.286   3.654  0.2412  0.5107 -0.6384
10267TIP3    H252293   0.148   1.242   3.517  0.7460 -0.2786 -0.5639
10268TIP3   OH252294   3.793   5.714   0.433  0.1228  0.3426 -0.4969
10268TIP3    H152295   3.748   5.697   0.515  0.4941  0.4049 -0.2787
10268TIP3    H252296   3.873   5.661   0.438 -1.0570 -1.6186 -1.8936
10269TIP3   OH252297   2.324   6.463  13.835  0.4417  0.5859 -0.4615
10269TIP3    H152298   2.361   6.408  13.766 -0.3418  1.0117 -1.2377
10269TIP3    H252299   2.375   6.442  13.913  1.6209  0.3968 -1.2672
10270TIP3   OH252300   1.822   2.304  15.782  0.6288 -0.4500 -0.4290
10270TIP3    H152301   1.807   2.398  15.787  2.9393  0.1959 -3.5654
10270TIP3    H252302   1.886   2.286  15.850  1.4835  0.6147 -0.9261
10271TIP3   OH252303   0.545   0.158   4.216  0.0440  0.1322 -0.5122
10271TIP3    H152304   0.600   0.111   4.279  0.9496  1.4429 -0.2976
10271TIP3    H252305   0.514   0.091   4.156 -0.9507 -1.1743  1.4070
10272TIP3   OH252306   4.704   6.502  15.981  0.4411  0.0537  0.1898
10272TIP3    H152307   4.704   6.437  16.051  0.8925 -0.5984 -0.4089
10272TIP3    H252308   4.679   6.453  15.902  2.9597  0.1330 -0.6826
10273TIP3   OH252309   0.942   3.233   2.765  0.3794 -0.0456 -0.5193
10273TIP3    H152310   0.947   3.138   2.754  3.2932 -0.0975  0.7292
10273TIP3    H252311   0.916   3.267   2.679  1.1201 -1.8506 -1.4697
10274TIP3   OH252312   3.918   2.630  16.793  0.1155 -0.3291  0.3742
10274TIP3    H152313   3.897   2.702  16.734  0.4871 -0.8654 -0.4185
10274TIP3    H252314   3.836   2.611  16.838 -0.6797 -1.2495 -1.4304
10275TIP3   OH252315   6.756   1.228   4.250 -0.1435  0.5038  0.4616
10275TIP3    H152316   6.756   1.315   4.211 -0.5536  0.4017  0.2383
10275TIP3    H252317   6.728   1.242   4.341  2.5291  0.9856  1.2703
10276TIP3   OH252318   5.093   5.973   3.539  0.1457  0.0084  0.6077
10276TIP3    H152319   5.075   5.924   3.459 -1.8271  0.0391  0.9907
10276TIP3    H252320   5.160   6.037   3.514 -0.5124  0.0650 -1.0440
10277TIP3   OH252321   6.045   1.448  17.040  0.2236  0.1086 -0.1035
10277TIP3    H152322   6.080   1.451  17.129 -0.0464 -0.6169  0.0309
10277TIP3    H252323   6.115   1.406  16.989  0.3839  0.5382 -0.2347
10278TIP3   OH252324   4.769   0.822   2.962 -0.0531  0.1173  0.2239
10278TIP3    H152325   4.755   0.912   2.933 -1.0481 -0.2658 -0.5192
10278TIP3    H252326   4.796   0.775   2.882 -0.7325 -0.4978  0.3566
10279TIP3   OH252327   6.498   5.872   2.175  0.1770  0.2493 -0.2213
10279TIP3    H152328   6.480   5.778   2.180 -0.9552  0.5200  0.9316
10279TIP3    H252329   6.589   5.881   2.203 -0.2001 -0.3416  1.2393
10280TIP3   OH252330   5.963   2.363  14.201  0.6848 -0.1054  0.3367
10280TIP3    H152331   5.987   2.435  14.141 -1.7385 -0.0959 -0.6947
10280TIP3    H252332   5.956   2.405  14.286  4.0168 -0.0809  0.6880
10281TIP3   OH252333   4.976   3.148  14.545  0.0426  0.2257  0.2837
10281TIP3    H152334   5.056   3.196  14.524 -0.3247 -0.0017 -1.7894
10281TIP3    H252335   5.005   3.062  14.572  0.5931  0.8566  1.7392
10282TIP3   OH252336   2.712   5.382   2.771  0.6679 -0.2142  0.1980
10282TIP3    H152337   2.658   5.405   2.846 -1.4618  1.2270 -1.7243
10282TIP3    H252338   2.762   5.305   2.800 -1.3726 -0.7343  2.4684
10283TIP3   OH252339   5.805   3.560   4.581 -0.1450  0.9843  0.5043
10283TIP3    H152340   5.731   3.501   4.567  0.9698 -0.6235  1.2474
10283TIP3    H252341   5.826   3.592   4.493 -1.4787  1.1744  0.2354
10284TIP3   OH252342   6.063   0.617  12.783  0.1993  0.4350 -0.2877
10284TIP3    H152343   6.043   0.539  12.834 -1.5012  0.9956 -0.0647
10284TIP3    H252344   6.051   0.591  12.692 -0.5896  0.5053 -0.2006
10285TIP3   OH252345   2.154   3.216  17.181 -0.2585  0.1704  0.4590
10285TIP3    H152346   2.201   3.219  17.264  0.3681  1.1998  0.0821
10285TIP3    H252347   2.181   3.134  17.140  0.2409  0.1644  0.8034
10286TIP3   OH252348   0.430   3.461   1.823 -0.2506 -0.3414  0.2590
10286TIP3    H152349   0.411   3.538   1.769  0.8064 -0.1332  0.1743
10286TIP3    H252350   0.503   3.488   1.879  1.0536 -1.7054 -0.7199
10287TIP3   OH252351   1.017   5.300   0.397  0.3314  0.2692  0.3014
10287TIP3    H152352   1.059   5.336   0.476  0.5958  2.4998 -0.8257
10287TIP3    H252353   0.923   5.307   0.415  0.3911 -0.8621  1.1219
10288TIP3   OH252354   3.342   5.821   0.498  0.0076  0.3059 -0.6572
10288TIP3    H152355   3.290   5.776   0.564  1.1701 -0.1932 -0.0569
10288TIP3    H252356   3.393   5.886   0.548  1.8518 -0.9438 -0.8582
10289TIP3   OH252357   4.635   3.036   3.430  0.0531 -0.2009  0.3663
10289TIP3    H152358   4.691   2.958   3.425  0.3209 -0.1610  2.5320
10289TIP3    H252359   4.651   3.072   3.517  0.6765  2.8471 -0.9387
10290TIP3   OH252360   5.599   2.012  13.181  0.8153  0.3024 -0.3890
10290TIP3    H152361   5.651   1.943  13.139  1.0366  0.2077  0.0436
10290TIP3    H252362   5.636   2.094  13.147  0.3647  0.2069 -1.1263
10291TIP3   OH252363   1.682   2.610   4.213  0.6776 -0.5266 -0.2678
10291TIP3    H152364   1.710   2.664   4.138 -2.9387  0.5218 -0.9450
10291TIP3    H252365   1.731   2.528   4.202  1.2214  0.0867 -3.0279
10292TIP3   OH252366   6.467   0.104   6.967 -0.2979 -0.4533  0.4450
10292TIP3    H152367   6.537   0.040   6.985  0.8733  0.7202  0.1127
10292TIP3    H252368   6.408   0.058   6.908  1.2365 -0.7828 -0.8536
10293TIP3   OH252369   0.775   1.711   1.943 -0.3509 -0.0606 -0.5162
10293TIP3    H152370   0.837   1.712   2.016  0.6002  1.5320 -1.3303
10293TIP3    H252371   0.695   1.750   1.979  0.4562  1.7081 -0.5914
10294TIP3   OH252372   5.571   2.912  11.864 -0.4077 -0.3000  0.0610
10294TIP3    H152373   5.565   2.941  11.955  1.3476  1.3366 -0.3188
10294TIP3    H252374   5.516   2.974  11.816  1.4929  1.0295 -0.4447
10295TIP3   OH252375   3.249   1.910  13.072  1.0055  0.0433 -0.2720
10295TIP3    H152376   3.310   1.847  13.032  1.7802  0.9480 -0.5237
10295TIP3    H252377   3.255   1.893  13.166 -0.1112 -1.4499 -0.4448
10296TIP3   OH252378   1.204   1.128   4.134  0.6466  0.0833  0.8244
10296TIP3    H152379   1.155   1.046   4.128 -0.6068  0.7932  0.9791
10296TIP3    H252380   1.237   1.143   4.045  2.2375 -1.3804  1.1468
10297TIP3   OH252381   5.131   6.452  17.098 -0.2187 -0.5504 -0.2833
10297TIP3    H152382   5.120   6.483  17.008 -0.4390 -1.2692 -0.5098
10297TIP3    H252383   5.225   6.441  17.108 -0.1592 -0.0422 -0.2816
10298TIP3   OH252384   2.603   0.746  15.428  0.0546 -0.4352  0.7562
10298TIP3    H152385   2.568   0.762  15.341  0.7009  0.1186  0.5885
10298TIP3    H252386   2.698   0.736  15.414  0.2273  0.1259  1.4435
10299TIP3   OH252387   0.843   4.622   5.456  0.3417 -0.2802 -0.0365
10299TIP3    H152388   0.825   4.615   5.363  0.9367  1.5203 -0.3155
10299TIP3    H252389   0.921   4.569   5.470  1.0574  0.5471 -0.8397
10300TIP3   OH252390   6.284   1.720   5.655 -0.2232  0.2478  0.3017
10300TIP3    H152391   6.323   1.781   5.718 -0.6550  0.4405  0.3863
10300TIP3    H252392   6.191   1.720   5.676 -0.2354 -0.3871  0.2469
10301TIP3   OH252393   6.481   0.700  11.992  0.2529 -0.1252  0.5247
10301TIP3    H152394   6.430   0.737  11.919  0.7913 -0.6361 -0.1112
10301TIP3    H252395   6.415   0.667  12.053 -0.2200  1.0380  0.6651
10302TIP3   OH252396   6.001   4.860   5.688  0.3830  0.0756  0.7397
10302TIP3    H152397   6.015   4.927   5.754  0.1809 -0.9074  1.7886
10302TIP3    H252398   6.089   4.828   5.667  0.4312  0.2603  0.6598
10303TIP3   OH252399   6.060   3.023   1.733 -0.0384  0.2496  0.9346
10303TIP3    H152400   6.019   3.087   1.791 -0.2279 -1.5421  2.8380
10303TIP3    H252401   6.133   2.987   1.784 -0.2754 -1.4388  0.1256
10304TIP3   OH252402   1.969   1.278   0.210  0.3681  0.1574 -0.2490
10304TIP3    H152403   1.900   1.341   0.187 -0.2755 -0.8977 -1.2833
10304TIP3    H252404   1.983   1.291   0.304 -0.6448  0.9717 -0.1982
10305TIP3   OH252405   3.496   6.310   4.917 -0.1928 -0.2815  0.0941
10305TIP3    H152406   3.470   6.341   5.003 -2.3517 -0.0072 -0.6274
10305TIP3    H252407   3.473   6.381   4.857  0.7646 -0.6903 -0.7871
10306TIP3   OH252408   6.011   1.762   5.688 -0.0167  0.1682  0.1915
10306TIP3    H152409   5.946   1.831   5.703 -0.5660 -0.4252  0.5713
10306TIP3    H252410   5.960   1.688   5.656  0.3933 -0.4701  0.9883
10307TIP3   OH252411   6.590   1.176   3.301 -0.3573 -0.1649  0.3393
10307TIP3    H152412   6.670   1.132   3.329 -0.7366 -0.3373  1.1644
10307TIP3    H252413   6.602   1.190   3.207  0.7218 -0.0135  0.4923
10308TIP3   OH252414   3.232   6.743   2.546  0.4014  0.6012  0.3954
10308TIP3    H152415   3.204   6.776   2.460 -0.9814 -1.4193  0.0361
10308TIP3    H252416   3.300   6.805   2.574  0.6854  1.4571 -2.0178
10309TIP3   OH252417   0.638   1.395  10.832 -0.3217 -0.5465 -0.0595
10309TIP3    H152418   0.718   1.345  10.814 -0.5829 -1.3685  1.0789
10309TIP3    H252419   0.573   1.329  10.856 -0.5347  0.3711  1.9367
10310TIP3   OH252420   4.056   4.641  11.079  0.5764  0.4304 -0.5660
10310TIP3    H152421   4.129   4.650  11.017  0.6671 -0.2027 -0.5550
10310TIP3    H252422   4.057   4.549  11.104 -0.2053  0.4288 -0.5253
10311TIP3   OH252423   0.070   0.649  15.845  0.5096 -0.2323  0.5594
10311TIP3    H152424   0.044   0.701  15.769  0.9826 -0.7492  0.0395
10311TIP3    H252425   0.165   0.645  15.839  0.5280 -0.4825  1.0434
10312TIP3   OH252426   3.778   1.140   4.095  0.4494  0.4028  0.1891
10312TIP3    H152427   3.781   1.074   4.025 -0.7685  0.3611  0.1695
10312TIP3    H252428   3.813   1.094   4.172 -1.3019 -0.5857  0.4169
10313TIP3   OH252429   0.126   2.051  12.769 -0.2552  0.1181 -0.2412
10313TIP3    H152430   0.216   2.064  12.800 -0.0752 -0.5768 -0.4683
10313TIP3    H252431   0.085   2.136  12.780  0.5257  0.5278 -0.4488
10314TIP3   OH252432   1.900   1.278  16.946 -0.0047  0.4389 -0.3800
10314TIP3    H152433   1.975   1.221  16.930 -0.1237 -0.6240  2.5559
10314TIP3    H252434   1.864   1.296  16.859  2.5646 -0.4856 -1.6808
10315TIP3   OH252435   2.118   5.566  12.354 -0.0355 -0.2977 -0.4802
10315TIP3    H152436   2.146   5.612  12.275 -0.1154  0.0897 -0.2836
10315TIP3    H252437   2.197   5.521  12.385  0.5561  1.3603  0.4744
10316TIP3   OH252438   6.635   4.645  11.375 -0.4436 -0.0530  0.3829
10316TIP3    H152439   6.725   4.632  11.347 -0.8416  0.7302 -1.3696
10316TIP3    H252440   6.618   4.738  11.358 -1.7964 -0.3578 -0.0157
10317TIP3   OH252441   4.845   1.776   0.909  0.3565 -0.1007 -1.0040
10317TIP3    H152442   4.814   1.792   0.998  0.4394 -1.0056 -0.8003
10317TIP3    H252443   4.768   1.790   0.854 -0.1167 -1.1442 -0.6215
10318TIP3   OH252444   5.013   5.727  16.310 -0.3512  0.3059 -0.1435
10318TIP3    H152445   5.077   5.732  16.239 -0.4045  1.3696 -0.1265
10318TIP3    H252446   5.022   5.638  16.345  0.8450  0.3218 -0.4000
10319TIP3   OH252447   4.594   2.653  11.719  0.3509 -0.3732  0.3895
10319TIP3    H152448   4.517   2.617  11.674  1.2220 -2.6921  0.7002
10319TIP3    H252449   4.563   2.672  11.808 -0.5907  1.4638 -0.2896
10320TIP3   OH252450   4.557   6.248   0.995 -0.0332  0.1531  0.2428
10320TIP3    H152451   4.645   6.274   0.969  0.0414  0.0671  0.4128
10320TIP3    H252452   4.528   6.317   1.054  0.4082 -0.4806  1.1976
10321TIP3   OH252453   5.265   4.316   1.787  0.1475 -0.4787 -0.9512
10321TIP3    H152454   5.243   4.231   1.825 -0.0955 -0.5981 -1.3516
10321TIP3    H252455   5.348   4.302   1.743  1.3834  0.1354  1.1107
10322TIP3   OH252456   1.070   0.513   1.208  0.0110 -0.0189  0.4518
10322TIP3    H152457   1.128   0.456   1.158 -1.8100 -0.6908 -0.9703
10322TIP3    H252458   1.044   0.582   1.147 -1.5395 -0.3465  0.7038
10323TIP3   OH252459   6.393   4.721  15.327  0.3100  0.1811  0.3616
10323TIP3    H152460   6.320   4.782  15.316 -0.2225 -0.8949 -2.5649
10323TIP3    H252461   6.463   4.758  15.273  0.3354 -1.2142 -0.5784
10324TIP3   OH252462   1.200   6.779   1.018  0.1316 -0.0332 -0.7033
10324TIP3    H152463   1.135   6.710   1.007  0.0049  0.1219 -0.9395
10324TIP3    H252464   1.182   6.816   1.105  0.5796 -0.6896 -0.3311
10325TIP3   OH252465   0.695   6.584   4.160  0.3972  0.6199 -0.2071
10325TIP3    H152466   0.743   6.528   4.099 -0.5318  0.5886 -0.9265
10325TIP3    H252467   0.608   6.545   4.165  0.0331  1.4420  0.0232
10326TIP3   OH252468   4.177   2.757  11.453 -0.0778  0.2656  0.1875
10326TIP3    H152469   4.129   2.832  11.419 -1.0998  0.3980  1.8435
10326TIP3    H252470   4.115   2.714  11.512  1.5910  0.0286  1.8266
10327TIP3   OH252471   2.566   0.344  12.950 -0.0095  0.1183  0.2957
10327TIP3    H152472   2.652   0.302  12.944 -0.6770 -1.1167 -0.8752
10327TIP3    H252473   2.520   0.294  13.018 -1.2343 -1.9119 -1.9336
10328TIP3   OH252474   2.242   0.128  16.415  0.3096 -0.2857  0.2922
10328TIP3    H152475   2.285   0.051  16.378 -0.7159  0.2923 -2.1779
10328TIP3    H252476   2.313   0.182  16.449  1.4004 -0.2949 -1.8928
10329TIP3   OH252477   1.371   5.589  16.341 -0.2676  0.0807 -0.4949
10329TIP3    H152478   1.294   5.606  16.287 -0.2682 -0.4645 -0.6648
10329TIP3    H252479   1.431   5.661  16.320 -0.3395 -0.0280 -1.0840
10330TIP3   OH252480   2.977   0.761  12.999 -0.0123 -1.0028  0.3897
10330TIP3    H152481   3.072   0.760  12.990  0.0015 -1.8177  0.5441
10330TIP3    H252482   2.946   0.692  12.940 -0.4199 -1.5113  1.1813
10331TIP3   OH252483   3.579   0.572  12.398 -0.3983 -0.1783 -0.6012
10331TIP3    H152484   3.630   0.642  12.355  0.4620 -0.2729  0.2583
10331TIP3    H252485   3.570   0.505  12.330  0.4404 -0.0650 -0.8332
10332TIP3   OH252486   2.949   6.779   1.433 -0.2663  0.3984  0.3514
10332TIP3    H152487   3.034   6.816   1.409  0.8185 -1.0650  1.7373
10332TIP3    H252488   2.941   6.700   1.379 -0.6179  0.4025  0.3969
10333TIP3   OH252489   3.065   4.709   3.692 -0.2741  0.3150  0.1166
10333TIP3    H152490   3.054   4.792   3.739 -0.1913 -0.0662  0.8186
10333TIP3    H252491   3.046   4.642   3.758  2.4731 -0.3008  0.3408
10334TIP3   OH252492   4.237   2.236  15.237  0.3068 -0.5357 -0.1208
10334TIP3    H152493   4.258   2.255  15.328 -0.6676 -1.7178  0.3663
10334TIP3    H252494   4.279   2.152  15.220 -0.7589 -1.0391 -0.3021
10335TIP3   OH252495   5.408   1.471   2.012 -0.2783 -0.1544 -0.1498
10335TIP3    H152496   5.420   1.543   2.074  0.9406 -0.8201  0.3988
10335TIP3    H252497   5.383   1.397   2.067 -0.1920 -0.4981 -0.5723
10336TIP3   OH252498   3.960   5.325   4.122 -0.0123  0.2665 -0.0666
10336TIP3    H152499   3.987   5.380   4.196 -0.2624  1.1243 -0.6111
10336TIP3    H252500   3.982   5.236   4.150 -1.9181  0.3567  1.8588
10337TIP3   OH252501   2.086   5.529   3.009  0.4740 -0.4187  0.2603
10337TIP3    H152502   2.051   5.609   2.968  0.8478  0.7885  2.2369
10337TIP3    H252503   2.082   5.463   2.939 -1.6445  0.8090 -0.8496
10338TIP3   OH252504   6.260   2.890  12.094  0.3487  0.4210  0.2932
10338TIP3    H152505   6.292   2.866  12.181 -0.2301 -2.1432 -0.1745
10338TIP3    H252506   6.178   2.937  12.111  0.7622  0.8417  1.1557
10339TIP3   OH252507   3.339   4.163   3.194 -0.2485  0.1329 -0.1222
10339TIP3    H152508   3.405   4.182   3.127 -0.3403  0.2619 -0.1743
10339TIP3    H252509   3.359   4.073   3.221 -1.6364 -0.7409 -1.9490
10340TIP3   OH252510   5.526   0.950  13.768  0.2381  0.0296 -0.3442
10340TIP3    H152511   5.451   1.002  13.799 -0.5096 -1.8838  1.2147
10340TIP3    H252512   5.602   1.001  13.793 -0.5074  0.8754  0.2484
10341TIP3   OH252513   3.390   1.643   4.009  0.3632 -0.0755 -0.5637
10341TIP3    H152514   3.415   1.571   3.951  0.7644  0.2137 -0.7535
10341TIP3    H252515   3.353   1.600   4.086 -0.7982 -0.4439 -1.3209
10342TIP3   OH252516   0.958   2.917   6.402  0.0210  0.2986  0.1037
10342TIP3    H152517   1.007   2.875   6.332 -2.0446 -0.2104 -1.0787
10342TIP3    H252518   1.025   2.957   6.458  1.6503  1.8857 -2.8602
10343TIP3   OH252519   2.158   1.524   2.359 -0.3112 -0.7383  0.1553
10343TIP3    H152520   2.179   1.533   2.266  0.5393 -2.0815  0.1966
10343TIP3    H252521   2.069   1.488   2.361  0.4143 -2.6199 -0.1979
10344TIP3   OH252522   0.331   4.171   5.623  0.3856 -0.1412  0.3728
10344TIP3    H152523   0.249   4.214   5.643  0.1628  1.3030 -3.2761
10344TIP3    H252524   0.399   4.229   5.658 -0.0467  1.1379 -0.8594
10345TIP3   OH252525   4.217   2.644   4.840  0.2448  0.0670 -0.3054
10345TIP3    H152526   4.307   2.672   4.857 -0.0365  1.0091 -0.3993
10345TIP3    H252527   4.226   2.551   4.817  1.3553  0.5224 -1.7970
10346TIP3   OH252528   6.163   2.657  15.643 -0.4991 -0.5484 -0.1247
10346TIP3    H152529   6.117   2.705  15.711 -0.2848 -0.5210  0.0020
10346TIP3    H252530   6.100   2.592  15.613 -0.4400 -0.8565  0.4154
10347TIP3   OH252531   5.262   4.858   3.676  0.0350  0.2790  0.5180
10347TIP3    H152532   5.205   4.824   3.745 -1.2807  0.8995 -0.2279
10347TIP3    H252533   5.212   4.844   3.595  0.8476  1.0403 -0.1334
10348TIP3   OH252534   4.072   4.177   5.928  0.2856  0.2252  0.2190
10348TIP3    H152535   4.047   4.133   6.009  0.0486 -0.2106 -0.0927
10348TIP3    H252536   4.155   4.220   5.949 -0.5115  1.3488  1.1422
10349TIP3   OH252537   2.956   3.915   2.809 -0.2157  0.1234  0.1002
10349TIP3    H152538   2.862   3.900   2.799 -0.2340 -0.4094  0.9944
10349TIP3    H252539   2.970   4.005   2.779 -0.9008 -0.0261 -0.6717
10350TIP3   OH252540   2.048   6.187   1.444  0.0572  0.5648 -0.8087
10350TIP3    H152541   2.107   6.213   1.373 -1.4599 -1.9164 -3.0441
10350TIP3    H252542   1.992   6.264   1.457  0.3504  1.0446 -2.2759
10351TIP3   OH252543   4.771   2.815   5.708 -0.3611 -0.2751  0.0996
10351TIP3    H152544   4.811   2.799   5.794  1.7467  1.1963 -0.5480
10351TIP3    H252545   4.677   2.815   5.725  0.0299  0.7286  2.5582
10352TIP3   OH252546   4.868   0.671   5.301 -0.0092 -0.0712 -0.1621
10352TIP3    H152547   4.818   0.692   5.221 -0.1971  0.3848  0.0712
10352TIP3    H252548   4.832   0.730   5.367 -0.7089 -1.3046  0.5806
10353TIP3   OH252549   5.732   0.580  13.338 -0.3508 -0.1500 -0.1129
10353TIP3    H152550   5.776   0.663  13.358 -0.3994 -0.3489  0.8552
10353TIP3    H252551   5.694   0.552  13.422 -1.8966 -0.2315 -0.8212
10354TIP3   OH252552   3.651   5.152   4.822 -0.4646  0.2978  0.1807
10354TIP3    H152553   3.711   5.079   4.806  1.0628  0.8329  3.1358
10354TIP3    H252554   3.575   5.113   4.865 -1.2896 -0.0337 -1.5139
10355TIP3   OH252555   6.263   3.782   0.725  0.9470 -0.0729  0.3384
10355TIP3    H152556   6.292   3.703   0.771  1.6932  0.7877  1.3728
10355TIP3    H252557   6.305   3.854   0.772  1.9358  0.8371 -1.8403
10356TIP3   OH252558   2.634   3.975  12.522  0.6148  0.2119  0.2358
10356TIP3    H152559   2.552   3.974  12.572 -0.4615 -0.7364 -1.4920
10356TIP3    H252560   2.615   4.030  12.446  2.0378  1.1393  0.5384
10357TIP3   OH252561   1.135   2.777  11.526  0.0668  0.4151 -0.6001
10357TIP3    H152562   1.073   2.805  11.458  0.1924  2.0572 -0.0707
10357TIP3    H252563   1.217   2.761  11.479 -0.8469 -2.1679 -1.3614
10358TIP3   OH252564   5.683   0.366   1.387 -0.2119 -0.2379 -0.1666
10358TIP3    H152565   5.756   0.395   1.333 -0.0503  0.2531  0.3087
10358TIP3    H252566   5.611   0.425   1.363  0.1630  0.6913  0.9172
10359TIP3   OH252567   6.024   6.495  15.652 -0.0672 -0.2869 -0.3260
10359TIP3    H152568   6.116   6.515  15.640  0.0664 -1.9116 -2.4597
10359TIP3    H252569   6.005   6.519  15.743  2.7207 -1.0315  0.4983
10360TIP3   OH252570   3.131   4.238  15.925 -0.2595 -0.3824 -0.5243
10360TIP3    H152571   3.057   4.268  15.871 -1.0183 -0.1803  0.6139
10360TIP3    H252572   3.113   4.274  16.012 -0.3176 -2.7084  0.4776
10361TIP3   OH252573   3.029   5.777   1.520  0.1089  0.0473  0.0975
10361TIP3    H152574   2.957   5.828   1.556  2.4916  1.7374  2.7520
10361TIP3    H252575   3.021   5.691   1.562 -1.4793 -0.4296 -1.1548
10362TIP3   OH252576   2.232   1.678   3.422 -0.4253 -0.5477 -0.1067
10362TIP3    H152577   2.306   1.715   3.470 -0.9962  0.8284 -0.2492
10362TIP3    H252578   2.270   1.643   3.342  0.1866 -0.5979  0.2047
10363TIP3   OH252579   1.451   0.627   5.609 -0.3072  0.4517  0.0930
10363TIP3    H152580   1.532   0.674   5.587 -0.3043  0.5517  0.3195
10363TIP3    H252581   1.381   0.686   5.580 -0.3135  0.9162  1.0220
10364TIP3   OH252582   4.150   5.132  10.755 -0.1481  0.3009 -0.3029
10364TIP3    H152583   4.148   5.177  10.670  1.4075 -0.4020 -0.7347
10364TIP3    H252584   4.216   5.064  10.744  0.6531  0.7089  1.7338
10365TIP3   OH252585   6.359   3.177   5.538 -0.0680  0.1219 -0.2683
10365TIP3    H152586   6.288   3.228   5.499  0.1488  0.3267 -0.3901
10365TIP3    H252587   6.430   3.180   5.474 -0.5954 -1.6152 -0.9705
10366TIP3   OH252588   0.322   0.802   3.799  0.5485  0.0854  0.1410
10366TIP3    H152589   0.392   0.737   3.801  0.4303 -0.0745 -0.5941
10366TIP3    H252590   0.354   0.870   3.741 -0.1214 -0.2528 -0.6443
10367TIP3   OH252591   0.634   2.816   0.855 -0.1125 -0.1402  0.3298
10367TIP3    H152592   0.704   2.846   0.912  0.3112  0.5159 -0.5262
10367TIP3    H252593   0.559   2.869   0.879  0.0096 -0.0017  0.4067
10368TIP3   OH252594   0.695   1.291  13.628 -0.3610 -0.0504 -0.0680
10368TIP3    H152595   0.695   1.248  13.542 -1.3068  1.7619 -0.9952
10368TIP3    H252596   0.663   1.224  13.688 -3.0222 -0.2985 -1.6740
10369TIP3   OH252597   5.950   2.729  11.494  0.4073 -0.2454  0.1861
10369TIP3    H152598   5.858   2.724  11.466  0.3174  0.0328  0.4267
10369TIP3    H252599   5.980   2.639  11.492  0.4992 -0.1922 -1.1331
10370TIP3   OH252600   1.212   3.634  10.991 -0.2490  0.3502  0.1465
10370TIP3    H152601   1.209   3.729  10.979  0.3787  0.7639  2.9724
10370TIP3    H252602   1.123   3.605  10.973 -0.6025  1.5450 -0.1168
10371TIP3   OH252603   2.801   4.270   0.648  0.2323 -0.5518 -0.2254
10371TIP3    H152604   2.737   4.211   0.609 -0.4821  0.1307 -0.1059
10371TIP3    H252605   2.842   4.314   0.573 -1.1357  0.7557 -0.2113
10372TIP3   OH252606   4.750   6.515   0.739  0.1718  0.0354  0.1613
10372TIP3    H152607   4.795   6.514   0.655 -0.1358  1.7497 -0.0514
10372TIP3    H252608   4.820   6.514   0.804  0.5197  1.5204 -0.1572
10373TIP3   OH252609   3.658   2.248  14.823  0.1917 -0.3306 -0.0701
10373TIP3    H152610   3.684   2.160  14.794  2.0789  0.4728 -0.8833
10373TIP3    H252611   3.740   2.296  14.830 -0.7498  1.1150  1.2716
10374TIP3   OH252612   2.445   2.412   3.430  0.4042  0.1859  0.1713
10374TIP3    H152613   2.431   2.436   3.338 -1.1904 -1.9589 -0.2097
10374TIP3    H252614   2.360   2.428   3.472  0.5281 -0.7518  0.7988
10375TIP3   OH252615   4.405   2.880  12.381 -0.0990 -0.0718 -0.1546
10375TIP3    H152616   4.380   2.957  12.432 -0.5378 -0.4653  0.2213
10375TIP3    H252617   4.344   2.811  12.408 -0.5367 -0.2017 -1.4382
10376TIP3   OH252618   6.528   3.874   1.894  0.6006 -0.3678  0.5873
10376TIP3    H152619   6.517   3.846   1.804  0.6224 -2.6970  1.2895
10376TIP3    H252620   6.439   3.872   1.931  0.9400 -1.9669  1.3356
10377TIP3   OH252621   5.119   1.658  13.094  0.3318  0.1303 -0.1676
10377TIP3    H152622   5.166   1.684  13.173  0.4112  0.8222 -0.4421
10377TIP3    H252623   5.032   1.632  13.125 -0.3474  2.4153 -0.0874
10378TIP3   OH252624   6.729   3.526   6.551  0.3829  0.0191  0.2373
10378TIP3    H152625   6.714   3.455   6.613  1.2260 -0.7709 -0.4525
10378TIP3    H252626   6.772   3.484   6.476 -0.0927  1.0586 -0.6361
10379TIP3   OH252627   3.058   3.601   5.777  0.1011 -0.6796 -0.7030
10379TIP3    H152628   3.076   3.694   5.793  0.7387 -0.3798 -2.9591
10379TIP3    H252629   3.133   3.555   5.815 -0.7322 -0.3784  1.3760
10380TIP3   OH252630   5.590   1.434   0.550 -0.6278 -0.2849 -0.0723
10380TIP3    H152631   5.563   1.342   0.544 -1.8801  0.0536  0.2100
10380TIP3    H252632   5.639   1.449   0.469 -0.6665 -1.1237 -0.2643
10381TIP3   OH252633   0.883   0.758  16.287 -0.5067  0.0820 -0.0313
10381TIP3    H152634   0.975   0.784  16.282 -0.2153 -0.8885  0.2025
10381TIP3    H252635   0.835   0.840  16.284  0.3887  0.6293  0.3536
10382TIP3   OH252636   3.995   5.873  13.434 -0.3114  0.4154  0.2017
10382TIP3    H152637   3.964   5.882  13.344  0.4163  0.4884 -0.0422
10382TIP3    H252638   4.084   5.906  13.432  0.1041 -0.6623  0.7164
10383TIP3   OH252639   4.635   3.238  16.566  0.0594 -0.0081  0.4973
10383TIP3    H152640   4.594   3.298  16.629  0.5018 -0.3590  1.1268
10383TIP3    H252641   4.617   3.277  16.481 -0.4979  0.5054  0.8458
10384TIP3   OH252642   3.339   1.316  15.029 -0.6165  0.0056  0.1323
10384TIP3    H152643   3.246   1.296  15.038 -0.4640 -1.4932 -1.3368
10384TIP3    H252644   3.380   1.231  15.018  1.0130  0.6167  1.3096
10385TIP3   OH252645   5.076   1.032  15.617  0.2588 -0.1026  0.2641
10385TIP3    H152646   5.015   1.067  15.551  0.2718  1.2675  0.9674
10385TIP3    H252647   5.137   0.979  15.566 -0.9846 -0.7715 -0.5616
10386TIP3   OH252648   2.335   3.614  11.456 -0.1480  0.3619  0.3369
10386TIP3    H152649   2.258   3.671  11.466 -0.5875 -0.0378 -0.6454
10386TIP3    H252650   2.301   3.536  11.412  1.1365  0.9471 -1.7800
10387TIP3   OH252651   5.368   4.133   2.303  0.4302 -0.2469 -0.1229
10387TIP3    H152652   5.275   4.158   2.298  0.5283  0.0003 -0.7127
10387TIP3    H252653   5.371   4.045   2.266  0.4191 -0.2801 -0.0453
10388TIP3   OH252654   3.364   5.081   1.619 -0.2736  0.0458 -0.4213
10388TIP3    H152655   3.329   5.140   1.552  0.4678  0.7020 -0.2420
10388TIP3    H252656   3.302   5.008   1.622 -0.5684  0.2402 -1.4884
10389TIP3   OH252657   1.617   1.234   4.395 -0.4089 -0.3492  0.0267
10389TIP3    H152658   1.626   1.180   4.316  0.3132  0.3427 -0.3612
10389TIP3    H252659   1.526   1.265   4.392 -0.8987 -1.6979  0.3601
10390TIP3   OH252660   3.275   6.731  14.865 -0.8850 -0.1075  0.5115
10390TIP3    H152661   3.205   6.715  14.928 -0.0023 -2.1211  1.0342
10390TIP3    H252662   3.260   6.820  14.834 -3.6263 -0.4816  0.6512
10391TIP3   OH252663   3.076   4.392   2.380  0.1732  0.2906  0.0984
10391TIP3    H152664   3.020   4.409   2.305 -0.1437  0.5062  0.3828
10391TIP3    H252665   3.126   4.315   2.356  0.4138  0.6398 -0.5272
10392TIP3   OH252666   1.670   4.606   2.402 -0.1199 -0.1370 -0.3813
10392TIP3    H152667   1.627   4.535   2.449 -0.2934 -0.8888 -1.6708
10392TIP3    H252668   1.600   4.664   2.375 -0.2622 -0.9150 -1.7275
10393TIP3   OH252669   1.195   5.301   5.219 -0.3261  0.0245  0.1604
10393TIP3    H152670   1.151   5.328   5.139  0.1356 -0.4416 -0.2511
10393TIP3    H252671   1.238   5.381   5.252 -2.8282  0.8875  1.4515
10394TIP3   OH252672   0.736   2.421  14.752  0.3527 -0.1445  0.1600
10394TIP3    H152673   0.781   2.336  14.749  2.3506  0.9459 -1.6124
10394TIP3    H252674   0.775   2.466  14.827  0.4247 -0.1861  0.1479
10395TIP3   OH252675   2.462   5.518   4.177 -0.1690 -0.5578 -0.4899
10395TIP3    H152676   2.504   5.594   4.216 -2.8300  0.5777  0.2901
10395TIP3    H252677   2.518   5.444   4.203  1.8717  0.9851 -0.3803
10396TIP3   OH252678   1.847   6.484  15.460 -0.2502 -0.4179 -0.1157
10396TIP3    H152679   1.915   6.482  15.527  0.1327 -1.0903 -0.5210
10396TIP3    H252680   1.818   6.576  15.458 -0.5358 -0.4561  1.2273
10397TIP3   OH252681   6.397   4.151   2.089 -0.5840 -0.1743 -0.5843
10397TIP3    H152682   6.396   4.245   2.110 -0.3644 -0.5602  1.2976
10397TIP3    H252683   6.336   4.142   2.016 -1.2705  1.3254 -0.2202
10398TIP3   OH252684   2.355   4.156   6.050 -0.1543  0.7459  0.3077
10398TIP3    H152685   2.353   4.198   6.137  1.5617  1.5868 -0.0276
10398TIP3    H252686   2.448   4.146   6.031 -0.5203  0.6828 -1.5062
10399TIP3   OH252687   1.692   0.047   2.266  0.0734 -0.2138 -0.4220
10399TIP3    H152688   1.598   0.053   2.252 -0.1084 -1.6038  0.1678
10399TIP3    H252689   1.720  -0.026   2.210  0.4812 -1.0662  0.8783
10400TIP3   OH252690   4.026   2.510   5.154  0.6046  0.2744  0.1451
10400TIP3    H152691   4.000   2.517   5.062  1.4524  1.5249 -0.0206
10400TIP3    H252692   3.969   2.573   5.200 -2.0116 -2.5702  1.0056
10401TIP3   OH252693   5.389   6.307   4.721  0.3293 -0.3430  0.2205
10401TIP3    H152694   5.390   6.400   4.696 -1.8285 -0.8558 -1.9069
10401TIP3    H252695   5.426   6.306   4.810 -3.6659  3.1014  2.1040
10402TIP3   OH252696   0.711   0.740   1.120 -0.3881  0.5258  0.2957
10402TIP3    H152697   0.660   0.820   1.134  0.8576  1.0822  1.7000
10402TIP3    H252698   0.763   0.759   1.042 -2.6871 -0.2594 -1.5095
10403TIP3   OH252699   2.655   5.523   5.563 -0.3929  0.8989  0.4126
10403TIP3    H152700   2.609   5.513   5.647 -1.0519 -1.0044 -0.1374
10403TIP3    H252701   2.601   5.474   5.501  0.6326  1.4453 -0.9219
10404TIP3   OH252702   2.145   0.789   1.529  0.1195  0.4734  0.0242
10404TIP3    H152703   2.096   0.771   1.609 -1.1047 -1.5192 -1.1073
10404TIP3    H252704   2.197   0.710   1.514 -0.1735  0.5384 -1.4704
10405TIP3   OH252705   1.612   0.843   6.482  0.5564 -0.4249 -0.5820
10405TIP3    H152706   1.545   0.907   6.460  0.0699 -0.3882  0.9239
10405TIP3    H252707   1.569   0.758   6.473  0.9407 -0.5059 -1.7071
10406TIP3   OH252708   6.635   5.747  13.258  0.2514 -0.1528 -0.0591
10406TIP3    H152709   6.640   5.668  13.311 -0.2450 -0.6402 -0.7167
10406TIP3    H252710   6.568   5.727  13.193 -0.1434  0.9519  0.0003
10407TIP3   OH252711   0.772   0.525  14.457  0.1716  0.3188 -0.3955
10407TIP3    H152712   0.742   0.574  14.380  1.2154 -1.1122 -1.7523
10407TIP3    H252713   0.867   0.532  14.454  0.2942 -1.1643 -0.2043
10408TIP3   OH252714   0.736   3.172  15.541 -0.4423  0.2410 -0.1799
10408TIP3    H152715   0.689   3.253  15.561 -0.7658  0.3197 -1.2778
10408TIP3    H252716   0.668   3.105  15.536 -0.3546  0.2076 -0.9642
10409TIP3   OH252717   5.935   1.978   1.962  0.0343 -0.1751  0.3010
10409TIP3    H152718   5.984   1.946   1.886  0.3683  0.5606  0.1933
10409TIP3    H252719   5.958   2.071   1.966 -1.9171  0.3500 -0.1833
10410TIP3   OH252720   6.690   4.656   5.789 -0.3025  0.3477  0.1338
10410TIP3    H152721   6.738   4.620   5.863 -0.5217 -2.6406 -1.1062
10410TIP3    H252722   6.605   4.613   5.792  0.1465 -0.8673 -2.5827
10411TIP3   OH252723   3.209   2.554  16.988  0.1889  0.1082  0.1187
10411TIP3    H152724   3.272   2.626  16.991 -0.7402  0.8888  1.6573
10411TIP3    H252725   3.191   2.542  16.894  1.8139  0.5797 -0.2606
10412TIP3   OH252726   5.681   6.605  13.618  0.3989  0.2425  0.1363
10412TIP3    H152727   5.776   6.600  13.630  0.1945 -0.6034  1.4787
10412TIP3    H252728   5.658   6.524  13.571  0.2502  0.1218  0.4170
10413TIP3   OH252729   2.242   1.521   3.981  0.5219 -0.5546  0.6760
10413TIP3    H152730   2.202   1.519   3.894  2.2959 -1.1268 -0.1568
10413TIP3    H252731   2.168   1.519   4.042 -0.7148 -0.9858 -0.8133
10414TIP3   OH252732   0.651   2.016  16.019 -0.5395  0.7114 -0.8747
10414TIP3    H152733   0.641   1.976  15.932  2.1883 -0.2121 -0.8157
10414TIP3    H252734   0.642   1.942  16.080 -1.5840  1.2128 -0.4198
10415TIP3   OH252735   1.755   2.377   1.832  0.3492 -0.4194 -0.1989
10415TIP3    H152736   1.780   2.289   1.861  0.5353 -0.5857 -0.8579
10415TIP3    H252737   1.815   2.435   1.879  0.5096 -0.6761 -0.0858
10416TIP3   OH252738   3.371   5.455  13.860  0.1651 -0.4119  0.6980
10416TIP3    H152739   3.390   5.540  13.899 -2.3131  0.6702 -0.3374
10416TIP3    H252740   3.429   5.450  13.784 -0.0179  0.5825  0.4884
10417TIP3   OH252741   3.431   0.673  14.745  0.5853  0.2177  0.4149
10417TIP3    H152742   3.368   0.655  14.674  1.4680 -0.6318 -0.1809
10417TIP3    H252743   3.505   0.714  14.701  0.8488  0.3227  0.9579
10418TIP3   OH252744   4.851   2.704   4.076 -0.0269  0.0485  0.7100
10418TIP3    H152745   4.870   2.646   4.149 -0.4258  0.8421  1.4577
10418TIP3    H252746   4.877   2.791   4.107  1.1669  0.1966 -0.6209
10419TIP3   OH252747   6.063   4.618  16.874 -0.0063 -0.1721  0.1827
10419TIP3    H152748   6.128   4.625  16.805  0.7921  1.2938  1.0554
10419TIP3    H252749   6.024   4.531  16.863  0.3750 -0.0913 -1.8459
10420TIP3   OH252750   3.417   4.477   2.005  0.2658 -0.1073  0.3341
10420TIP3    H152751   3.403   4.497   2.098  0.3955  0.4970  0.2279
10420TIP3    H252752   3.363   4.542   1.959  2.3180  1.3500 -0.0600
10421TIP3   OH252753   2.208   2.256  11.734 -0.2974  0.1596 -0.4589
10421TIP3    H152754   2.112   2.251  11.730 -0.4332  2.3687 -0.7993
10421TIP3    H252755   2.228   2.252  11.827 -0.4602 -3.5526 -0.5175
10422TIP3   OH252756   2.711   3.741  14.979 -0.1579  0.1870  0.3018
10422TIP3    H152757   2.767   3.764  14.905 -0.8407 -1.9927 -0.9211
10422TIP3    H252758   2.753   3.665  15.020  0.3164  1.4780  2.3103
10423TIP3   OH252759   4.758   6.317  16.623  0.4901  0.2911  0.1593
10423TIP3    H152760   4.738   6.375  16.549  1.2970  0.3359 -0.0238
10423TIP3    H252761   4.829   6.262  16.592 -0.5011 -1.0479  0.2164
10424TIP3   OH252762   4.846   4.141  11.142  0.2855  0.0751  0.0949
10424TIP3    H152763   4.888   4.207  11.087 -0.4708  1.0980  0.7462
10424TIP3    H252764   4.773   4.109  11.090 -0.6588  1.3150  0.6414
10425TIP3   OH252765   3.574   1.255   5.254  0.2770  0.2808  0.1081
10425TIP3    H152766   3.513   1.228   5.186  0.0414 -0.9058  0.7786
10425TIP3    H252767   3.641   1.306   5.208  0.5073 -1.1153 -1.1159
10426TIP3   OH252768   3.100   4.384   6.475 -0.1729 -0.4036 -0.7628
10426TIP3    H152769   3.092   4.455   6.411 -0.6936  1.4734  1.3024
10426TIP3    H252770   3.034   4.405   6.541  0.1600 -2.4534  0.2485
10427TIP3   OH252771   3.229   2.757   0.974  0.6608 -0.1470  0.1272
10427TIP3    H152772   3.144   2.762   0.930  0.1955 -0.8581  0.9319
10427TIP3    H252773   3.210   2.713   1.057  1.7122  0.2405  0.5740
10428TIP3   OH252774   5.595   3.366   4.605 -0.4571 -0.3131  0.0955
10428TIP3    H152775   5.525   3.302   4.620  0.6907 -1.8354 -0.8617
10428TIP3    H252776   5.580   3.398   4.516  0.7037 -1.4930 -0.5417
10429TIP3   OH252777   6.781   0.215  11.125  0.4143  0.3381 -0.8058
10429TIP3    H152778   6.717   0.228  11.055  1.0353 -1.2539 -1.6981
10429TIP3    H252779   6.805   0.122  11.119  0.3289  0.1010  1.6546
10430TIP3   OH252780   1.208   3.162  14.584  0.3782  0.6375 -0.3285
10430TIP3    H152781   1.279   3.098  14.594 -1.1645 -0.8486  1.3016
10430TIP3    H252782   1.195   3.168  14.490 -0.6759 -2.8552 -0.4680
10431TIP3   OH252783   6.330   6.510  13.823 -0.3702 -0.2504  0.0961
10431TIP3    H152784   6.296   6.426  13.793 -0.3642  0.3565 -1.6448
10431TIP3    H252785   6.284   6.526  13.906 -2.9458 -0.3474 -1.2486
10432TIP3   OH252786   2.302   4.528   4.397 -0.1761 -0.4196 -0.3661
10432TIP3    H152787   2.394   4.556   4.398  0.5056 -2.5990  0.4556
10432TIP3    H252788   2.263   4.573   4.473  1.4931 -3.4124  2.3974
10433TIP3   OH252789   3.582   4.202   3.527 -0.3186  0.8067 -0.2337
10433TIP3    H152790   3.491   4.193   3.498 -0.7878  2.4300  0.6741
10433TIP3    H252791   3.604   4.293   3.507  0.9874  0.5209 -0.1038
10434TIP3   OH252792   4.930   6.049   1.833  0.1911 -0.4469 -0.1678
10434TIP3    H152793   5.012   6.065   1.880 -0.2726  0.0273  0.4863
10434TIP3    H252794   4.941   5.962   1.795  0.6819 -0.7249  0.5966
10435TIP3   OH252795   4.326   1.913   4.070  0.3390 -0.0813 -0.0009
10435TIP3    H152796   4.235   1.886   4.063  0.4670 -0.2002 -1.3914
10435TIP3    H252797   4.346   1.952   3.985  1.2644  0.9482  0.6751
10436TIP3   OH252798   1.212   0.901  13.294  0.5840  0.0716 -0.0901
10436TIP3    H152799   1.290   0.927  13.245 -0.7757  0.0653 -2.2675
10436TIP3    H252800   1.141   0.952  13.256 -1.3873 -3.6704 -1.5697
10437TIP3   OH252801   2.348   4.262  14.051 -0.0254  0.3934 -0.0871
10437TIP3    H152802   2.272   4.316  14.071 -0.4388 -0.0343 -0.4804
10437TIP3    H252803   2.418   4.324  14.032  0.0647  0.7985  1.5083
10438TIP3   OH252804   6.254   2.590   2.476 -0.5659  0.2292 -0.5900
10438TIP3    H152805   6.215   2.507   2.451 -2.2866  0.6032  0.6982
10438TIP3    H252806   6.310   2.569   2.551 -1.1560  0.2579 -0.1394
10439TIP3   OH252807   4.862   1.899   6.481 -0.2983  0.0569 -0.5622
10439TIP3    H152808   4.902   1.968   6.429 -0.1794 -0.9566 -1.8475
10439TIP3    H252809   4.934   1.860   6.530  0.0525 -0.7977 -1.7503
10440TIP3   OH252810   2.108   3.197  13.196  0.1069  0.2911 -0.4456
10440TIP3    H152811   2.195   3.156  13.196  0.5358  1.1792  0.8390
10440TIP3    H252812   2.100   3.237  13.109  0.6364 -0.5024 -0.8678
10441TIP3   OH252813   6.193   3.401   5.403  0.6843  1.1427 -0.0266
10441TIP3    H152814   6.106   3.430   5.433  0.7419  1.4846 -0.1911
10441TIP3    H252815   6.252   3.471   5.430  1.1381  0.2354  1.3851
10442TIP3   OH252816   5.100   0.413   5.036  0.5132  0.0960 -0.3047
10442TIP3    H152817   5.129   0.493   5.079 -0.7656 -0.4389  1.6389
10442TIP3    H252818   5.113   0.344   5.102 -1.1202 -0.8025 -0.8955
10443TIP3   OH252819   1.855   2.359  10.945 -1.1905  0.3362 -0.4852
10443TIP3    H152820   1.761   2.338  10.952 -0.8262 -1.9959 -1.7970
10443TIP3    H252821   1.896   2.275  10.925  1.1495  1.4125 -0.3328
10444TIP3   OH252822   2.914   1.021   4.664  0.0186  0.1334  0.7579
10444TIP3    H152823   2.984   0.985   4.718 -0.2148 -1.4352  0.0495
10444TIP3    H252824   2.911   0.964   4.587 -0.8814  1.2215 -0.0417
10445TIP3   OH252825   3.215   0.979  13.652 -0.3698 -0.2065  0.6791
10445TIP3    H152826   3.214   0.974  13.747  1.1362  0.5163  0.7450
10445TIP3    H252827   3.215   1.073  13.633 -2.2587 -0.3423 -0.0712
10446TIP3   OH252828   5.228   5.967  13.628  0.0577 -0.3117 -0.6103
10446TIP3    H152829   5.190   5.991  13.543 -0.2442 -0.3945 -0.4984
10446TIP3    H252830   5.322   5.962  13.611  0.0228 -0.0704 -0.8792
10447TIP3   OH252831   6.107   5.443  13.321  0.0446  0.0445  0.3593
10447TIP3    H152832   6.070   5.388  13.252 -0.1158 -0.9165  1.2073
10447TIP3    H252833   6.201   5.422  13.321  0.4679  1.8171 -1.1802
10448TIP3   OH252834   0.151   6.779  12.929  0.2388  0.2482  0.6816
10448TIP3    H152835   0.229   6.724  12.936 -0.5988 -0.9830  0.5342
10448TIP3    H252836   0.078   6.717  12.932 -0.7924  1.5251  2.5003
10449TIP3   OH252837   1.951   6.544  16.145 -0.4947  0.0054 -0.0870
10449TIP3    H152838   1.922   6.567  16.057  0.5219  0.1189 -0.3997
10449TIP3    H252839   1.896   6.597  16.203 -1.3050 -0.2244 -0.6411
10450TIP3   OH252840   1.201   0.734   4.821  0.8332 -0.0284  0.1313
10450TIP3    H152841   1.151   0.808   4.856  0.2635  0.9710 -2.6547
10450TIP3    H252842   1.151   0.657   4.847 -0.0654  0.7334  0.6948
10451TIP3   OH252843   0.438   6.708   3.418 -0.0397 -0.4100  1.0644
10451TIP3    H152844   0.424   6.802   3.425  0.2304 -0.2870 -0.0023
10451TIP3    H252845   0.351   6.673   3.395  0.2641 -0.2051 -0.4417
10452TIP3   OH252846   0.376   1.532  15.925  0.1570  0.2498 -0.2328
10452TIP3    H152847   0.364   1.560  15.834 -0.2666 -0.1816 -0.3119
10452TIP3    H252848   0.471   1.518  15.934  0.1866  0.1921 -0.6371
10453TIP3   OH252849   0.188   5.235  11.176  0.7577  0.2317 -0.4592
10453TIP3    H152850   0.246   5.184  11.232 -0.3716 -2.0950 -1.3033
10453TIP3    H252851   0.213   5.211  11.087  1.3062  2.4730 -0.9394
10454TIP3   OH252852   4.285   1.786   0.490  0.3435 -0.1560 -0.1375
10454TIP3    H152853   4.268   1.843   0.415 -1.7716  0.5337  0.8413
10454TIP3    H252854   4.230   1.710   0.476 -1.6356  0.8806  1.7015
10455TIP3   OH252855   6.432   3.903  11.016 -0.0976  0.0825  1.1253
10455TIP3    H152856   6.477   3.832  11.061 -1.0342 -0.0694  1.8399
10455TIP3    H252857   6.366   3.933  11.079 -1.2912 -0.0042 -0.0512
10456TIP3   OH252858   0.172   2.241   0.369 -0.6631  0.3950 -0.5612
10456TIP3    H152859   0.121   2.243   0.450  1.9190 -2.3318  1.1947
10456TIP3    H252860   0.122   2.184   0.311  0.4282 -2.5101  1.2586
10457TIP3   OH252861   3.714   1.263  13.005 -0.1558  0.0346  1.3507
10457TIP3    H152862   3.662   1.294  12.931 -1.2066  0.7610  2.3714
10457TIP3    H252863   3.802   1.251  12.970 -0.5363  0.8369  0.1059
10458TIP3   OH252864   0.445   4.564   0.041 -0.0257 -0.2481  0.2273
10458TIP3    H152865   0.528   4.576   0.088 -0.0064  1.2122 -0.1630
10458TIP3    H252866   0.383   4.537   0.109  0.7580 -1.3500  0.5202
10459TIP3   OH252867   2.088   2.357   1.068 -0.1310  0.5314 -0.2440
10459TIP3    H152868   2.137   2.381   0.990 -0.4860  0.9572 -0.3376
10459TIP3    H252869   2.140   2.288   1.109  0.4680  0.8814 -0.4147
10460TIP3   OH252870   3.963   5.994  12.655  0.0832  0.4940  0.2852
10460TIP3    H152871   3.934   6.064  12.596  1.7048  0.8698 -0.0999
10460TIP3    H252872   4.028   6.036  12.711  1.4799 -0.8349 -0.3084
10461TIP3   OH252873   1.856   5.522  15.765  0.1065 -0.1400 -0.2477
10461TIP3    H152874   1.833   5.479  15.683  0.0792  1.0466 -0.8847
10461TIP3    H252875   1.901   5.455  15.816  1.7241 -0.3924 -1.9572
10462TIP3   OH252876   1.324   0.910  16.548 -0.1512 -0.8130  0.0819
10462TIP3    H152877   1.354   0.839  16.492  1.6997  0.0428 -0.0352
10462TIP3    H252878   1.260   0.957  16.494  0.2955 -1.0478 -0.6664
10463TIP3   OH252879   5.856   2.849   4.525  1.1166 -0.6649 -0.3512
10463TIP3    H152880   5.827   2.865   4.435 -0.7308  2.1041  0.6577
10463TIP3    H252881   5.777   2.821   4.571  1.6800 -0.4850  0.7405
10464TIP3   OH252882   6.177   3.378   2.345  0.4917  0.4654  0.3516
10464TIP3    H152883   6.137   3.337   2.421  1.6352  0.2379  0.8383
10464TIP3    H252884   6.113   3.367   2.275 -1.2945  2.1624  1.6706
10465TIP3   OH252885   0.046   5.540  12.315 -0.3278  0.0040  0.5049
10465TIP3    H152886   0.079   5.450  12.313 -0.2304  0.0464 -0.0058
10465TIP3    H252887   0.089   5.583  12.241 -1.1142  0.2132  0.1588
10466TIP3   OH252888   4.775   6.087  13.077 -0.5190 -0.7123 -0.4456
10466TIP3    H152889   4.775   5.993  13.097  0.0299 -0.4645  0.7657
10466TIP3    H252890   4.848   6.123  13.128 -1.6359  0.5994  0.2791
10467TIP3   OH252891   2.009   4.646   2.853 -0.3427 -0.9216 -0.1589
10467TIP3    H152892   2.010   4.735   2.891  0.4644 -1.0028  0.0128
10467TIP3    H252893   1.940   4.649   2.787  0.0954  0.0152 -0.5825
10468TIP3   OH252894   3.713   6.233   5.936 -0.2957  0.4285  0.4280
10468TIP3    H152895   3.660   6.296   5.888  0.3235  1.6985  1.3693
10468TIP3    H252896   3.778   6.286   5.982  0.7433 -0.9589  0.6194
10469TIP3   OH252897   5.982   2.412  16.250  0.6303  0.3119  0.1859
10469TIP3    H152898   5.923   2.374  16.186 -0.8909 -0.6227  2.0789
10469TIP3    H252899   6.069   2.387  16.220  0.0665  1.0899 -2.2445
10470TIP3   OH252900   1.661   1.196   6.385 -0.3132  0.7966 -0.2879
10470TIP3    H152901   1.709   1.192   6.468 -1.1462  2.5319  0.3061
10470TIP3    H252902   1.593   1.129   6.393  1.0710 -0.6748 -0.5472
10471TIP3   OH252903   3.568   3.015   2.663  0.3651  0.4354 -0.1983
10471TIP3    H152904   3.660   3.039   2.673  0.7931 -1.2814  0.2238
10471TIP3    H252905   3.550   2.959   2.739 -0.5274 -0.6559 -1.1966
10472TIP3   OH252906   6.113   4.408  10.876 -0.2303 -0.1853  0.2643
10472TIP3    H152907   6.167   4.426  10.800  0.7002  0.0047  0.9626
10472TIP3    H252908   6.036   4.465  10.865  0.2708  0.4188 -0.1397
10473TIP3   OH252909   2.172   6.549  17.155  0.3168 -0.1000  0.0729
10473TIP3    H152910   2.235   6.512  17.217  1.1111 -0.9570 -1.2181
10473TIP3    H252911   2.088   6.541  17.199  0.4162 -3.8493 -0.2829
10474TIP3   OH252912   1.112   4.078   0.111  0.4168 -0.2915  0.0853
10474TIP3    H152913   1.182   4.019   0.143 -0.2712 -2.4732 -2.2855
10474TIP3    H252914   1.129   4.087   0.018 -0.8759  1.4447 -0.0037
10475TIP3   OH252915   1.470   0.925   1.237 -0.6287  0.3666 -0.4814
10475TIP3    H152916   1.445   0.954   1.150 -1.4380  1.6653  0.1613
10475TIP3    H252917   1.395   0.949   1.293  0.5159  0.9901  0.8286
10476TIP3   OH252918   2.703   6.626  13.540  0.0117  0.4351 -0.2187
10476TIP3    H152919   2.685   6.533  13.527  0.6902  0.3321 -0.4554
10476TIP3    H252920   2.617   6.665  13.557 -0.4380 -0.0222 -1.3932
10477TIP3   OH252921   6.190   2.194  12.810 -0.0077  0.2864 -0.3321
10477TIP3    H152922   6.177   2.182  12.716 -0.1508 -0.9722 -0.1712
10477TIP3    H252923   6.116   2.149  12.851  0.4139  0.2350  0.3933
10478TIP3   OH252924   2.347   4.191  14.804  0.6012  0.3203  0.0170
10478TIP3    H152925   2.316   4.274  14.768 -1.7300 -0.0786  0.9640
10478TIP3    H252926   2.404   4.215  14.876 -1.0992  1.1431  1.1252
10479TIP3   OH252927   0.477   5.952   2.498  0.1802 -0.3815 -0.3216
10479TIP3    H152928   0.556   6.005   2.506 -1.0469  1.0891  2.9059
10479TIP3    H252929   0.425   5.997   2.431  0.5428  0.6663  0.0914
10480TIP3   OH252930   6.223   0.534   3.132 -0.5698 -0.1702 -0.4500
10480TIP3    H152931   6.254   0.600   3.194 -0.6155 -0.6269  0.0678
10480TIP3    H252932   6.128   0.543   3.134 -0.5953 -0.4863 -0.1088
10481TIP3   OH252933   4.836   1.097  15.508  0.0509 -0.2442  0.0322
10481TIP3    H152934   4.787   1.085  15.589  0.3032  1.7883  0.5060
10481TIP3    H252935   4.785   1.051  15.442 -1.1306 -0.3470  1.0041
10482TIP3   OH252936   3.321   3.594  13.780  0.8369 -0.8412 -0.2973
10482TIP3    H152937   3.319   3.656  13.707  0.1291  0.1372  0.5303
10482TIP3    H252938   3.277   3.516  13.747  2.8670 -1.3965 -1.7746
10483TIP3   OH252939   1.476   1.953   4.962 -0.0786  0.5586 -0.4941
10483TIP3    H152940   1.409   1.913   4.905  1.8523 -0.4744 -2.0915
10483TIP3    H252941   1.518   2.019   4.907  1.4474 -0.0732 -0.0941
10484TIP3   OH252942   2.247   3.744  14.807  0.2887 -0.4483 -0.4665
10484TIP3    H152943   2.159   3.741  14.769  0.5541 -0.7835 -1.0658
10484TIP3    H252944   2.290   3.817  14.764 -0.2398  0.7872  1.0494
10485TIP3   OH252945   1.407   3.956   2.697 -0.5106 -0.7354  0.2832
10485TIP3    H152946   1.328   3.995   2.733 -0.0592 -0.1214  0.6089
10485TIP3    H252947   1.455   4.029   2.659 -1.3463 -1.4887 -2.2669
10486TIP3   OH252948   4.463   4.282  13.158  0.0778 -0.3765 -0.1932
10486TIP3    H152949   4.507   4.290  13.073  1.3559  0.9418  0.5656
10486TIP3    H252950   4.509   4.211  13.201  0.5775  0.0924  0.0582
10487TIP3   OH252951   6.689   0.013   4.081 -0.1542 -0.2555 -0.0575
10487TIP3    H152952   6.729  -0.003   3.996  0.3605 -0.1869  0.1719
10487TIP3    H252953   6.612   0.066   4.061 -1.0118 -1.6830 -0.6659
10488TIP3   OH252954   0.895   0.832   1.648 -0.1167 -0.0748 -0.1044
10488TIP3    H152955   0.976   0.808   1.601  0.5100  0.6424  0.5950
10488TIP3    H252956   0.904   0.789   1.733 -1.5274 -1.8777 -0.8340
10489TIP3   OH252957   1.214   5.574   0.459  1.1492 -0.2464  0.2623
10489TIP3    H152958   1.299   5.616   0.471  1.8324 -0.9672 -1.7162
10489TIP3    H252959   1.209   5.508   0.528  1.3546  1.0669  1.5540
10490TIP3   OH252960   1.975   1.205   3.788  0.2369  0.2401 -0.0304
10490TIP3    H152961   1.896   1.153   3.776  0.1308  0.1833  0.8882
10490TIP3    H252962   1.946   1.296   3.783  0.2232  0.2181 -0.3686
10491TIP3   OH252963   5.472   3.821  10.690  0.1882 -0.5593 -0.0931
10491TIP3    H152964   5.503   3.856  10.774 -0.6092  0.3557 -0.1579
10491TIP3    H252965   5.406   3.756  10.714  0.8775 -1.2161  0.0131
10492TIP3   OH252966   2.467   0.114  17.221 -0.1268  0.1734 -0.1469
10492TIP3    H152967   2.487   0.096  17.313 -0.1424 -1.2666 -0.4159
10492TIP3    H252968   2.526   0.057  17.172 -0.3154  0.7310 -1.0290
10493TIP3   OH252969   4.755   0.215   3.587  0.5434  0.2260  0.7584
10493TIP3    H152970   4.794   0.213   3.675 -0.2223 -1.8287  1.0762
10493TIP3    H252971   4.804   0.149   3.538  0.1933  0.5454 -0.0248
10494TIP3   OH252972   0.686   2.929   3.878  0.1852  0.0988  0.1472
10494TIP3    H152973   0.779   2.928   3.900  0.5131 -0.0628 -1.1860
10494TIP3    H252974   0.679   2.872   3.802 -0.3612  3.1481 -2.1967
10495TIP3   OH252975   5.690   4.027   2.182  0.0734  0.2466 -0.0975
10495TIP3    H152976   5.652   3.983   2.258 -0.5776 -0.1703 -0.6595
10495TIP3    H252977   5.619   4.082   2.149  0.4820  0.7372 -0.1637
10496TIP3   OH252978   2.072   0.756   4.398  0.1665 -0.3389 -0.1346
10496TIP3    H152979   1.977   0.766   4.398  0.2624  0.6134  1.1422
10496TIP3    H252980   2.105   0.843   4.377  0.7645 -0.7149 -0.7802
10497TIP3   OH252981   5.675   1.427  11.529  0.0184 -0.3409 -0.2080
10497TIP3    H152982   5.703   1.395  11.444  2.8855  0.4719  0.3801
10497TIP3    H252983   5.614   1.360  11.561 -1.2305 -0.5452 -2.9531
10498TIP3   OH252984   0.225   3.065  16.881 -0.0306  0.2354  0.2520
10498TIP3    H152985   0.316   3.065  16.849  0.2260 -1.5519  0.8989
10498TIP3    H252986   0.172   3.046  16.803  0.3981 -1.6189  0.3844
10499TIP3   OH252987   2.053   3.576   2.856  0.1203 -0.1131 -0.0175
10499TIP3    H152988   1.991   3.505   2.841  0.8533 -0.2424 -2.5879
10499TIP3    H252989   2.092   3.556   2.942 -1.3256 -1.5485  0.3230
10500TIP3   OH252990   1.853   0.179   2.679  0.2004  0.0098  0.0385
10500TIP3    H152991   1.846   0.118   2.606 -0.4014  0.6013 -0.3997
10500TIP3    H252992   1.769   0.172   2.724  0.9251 -1.0668  1.2398
10501TIP3   OH252993   6.808   4.980   3.046  0.2108  0.1791 -0.4414
10501TIP3    H152994   6.778   5.067   3.020 -2.2426 -0.9355 -1.5548
10501TIP3    H252995   6.803   4.928   2.965 -0.6396 -1.5550  0.6841
10502TIP3   OH252996   1.153   5.963   0.425  0.1867  0.2766 -0.1790
10502TIP3    H152997   1.138   6.012   0.344  0.4119 -2.1203 -1.7369
10502TIP3    H252998   1.076   5.907   0.434 -0.2490  1.1637  1.7672
10503TIP3   OH252999   3.829   4.111  14.524 -0.3661 -0.0091 -0.1082
10503TIP3    H153000   3.776   4.145  14.597 -0.9230 -1.2911  0.1122
10503TIP3    H253001   3.916   4.147  14.539 -0.7740  0.7366  0.5076
10504TIP3   OH253002   4.298   3.927  17.261  0.3118 -0.4327  0.1244
10504TIP3    H153003   4.264   3.995  17.321 -0.2215 -0.3643 -0.2548
10504TIP3    H253004   4.251   3.848  17.286  0.8358 -0.6319  0.4762
10505TIP3   OH253005   3.535   0.490  12.145 -0.5524 -0.2147 -0.2396
10505TIP3    H153006   3.606   0.504  12.082 -0.5876  0.2794 -0.1757
10505TIP3    H253007   3.456   0.512  12.097 -0.5105  1.0199  0.2263
10506TIP3   OH253008   4.588   5.930  13.967 -0.5179  0.4114 -0.3554
10506TIP3    H153009   4.535   5.908  13.891 -0.7492 -0.4205  0.0377
10506TIP3    H253010   4.561   6.018  13.992 -2.3052 -0.3133  0.3412
10507TIP3   OH253011   0.568   3.293  11.733  0.0478  0.4995 -0.6487
10507TIP3    H153012   0.652   3.339  11.724 -0.3264  0.8987 -2.2666
10507TIP3    H253013   0.533   3.289  11.644 -1.2738 -0.3949 -0.1045
10508TIP3   OH253014   6.119   4.322  16.682  0.3049  0.3527 -0.0987
10508TIP3    H153015   6.027   4.348  16.686  0.5107  0.9826  0.8665
10508TIP3    H253016   6.117   4.228  16.698 -0.1824  0.3483 -0.1527
10509TIP3   OH253017   4.643   1.800   3.553  0.2590 -0.3888  0.0205
10509TIP3    H153018   4.623   1.707   3.541 -0.7423 -0.0665 -0.8130
10509TIP3    H253019   4.558   1.843   3.557  0.7335  0.7041 -1.2920
10510TIP3   OH253020   0.134   2.755  14.824 -0.5186 -0.3061  0.3108
10510TIP3    H153021   0.088   2.671  14.830 -0.4221 -0.5231 -1.6249
10510TIP3    H253022   0.098   2.797  14.746  0.4525  0.8209  0.4496
10511TIP3   OH253023   5.937   2.903  16.060 -0.3012  0.3789  0.2731
10511TIP3    H153024   5.961   2.834  16.122 -1.4195 -0.3506 -0.0792
10511TIP3    H253025   5.841   2.896  16.053 -0.1147 -0.1315 -2.1975
10512TIP3   OH253026   5.708   0.565  11.876 -0.4321  0.0220  0.2036
10512TIP3    H153027   5.640   0.567  11.943  0.4108  1.2838  1.0734
10512TIP3    H253028   5.664   0.538  11.796 -1.8518  0.3884  0.8561
10513TIP3   OH253029   0.542   0.118   5.144  0.1499 -0.6760 -0.3964
10513TIP3    H153030   0.473   0.179   5.119  0.2323 -0.0418  0.8620
10513TIP3    H253031   0.520   0.037   5.098 -1.7539 -0.6442  0.3975
10514TIP3   OH253032   1.611   3.777  17.123  0.3531 -0.5611  0.5349
10514TIP3    H153033   1.528   3.748  17.084 -0.7180  1.7500  0.9857
10514TIP3    H253034   1.596   3.772  17.217 -0.2275  2.2841  0.6463
10515TIP3   OH253035   0.385   0.180  14.033  0.2945  0.2990  0.0081
10515TIP3    H153036   0.436   0.131  13.969  1.2608  1.1781  0.0960
10515TIP3    H253037   0.367   0.264  13.991 -0.1760  0.3877  0.3824
10516TIP3   OH253038   0.881   4.281  11.695  0.7873 -0.9648 -0.6004
10516TIP3    H153039   0.911   4.245  11.779  0.8702 -1.2402 -0.7486
10516TIP3    H253040   0.962   4.311  11.653  0.8836 -1.9143 -1.1028
10517TIP3   OH253041   5.981   1.273   5.588  0.4706  0.6711  0.1111
10517TIP3    H153042   6.045   1.285   5.518  3.1205  0.2268  2.3153
10517TIP3    H253043   6.035   1.258   5.666 -2.3851 -3.8908  1.3762
10518TIP3   OH253044   1.935   4.518  17.178 -0.7650  0.6256  0.5298
10518TIP3    H153045   1.867   4.582  17.197 -2.6596 -0.9045 -0.9742
10518TIP3    H253046   1.988   4.560  17.109 -0.8751  1.3252  0.8597
10519TIP3   OH253047   4.910   0.937  15.165  0.6039 -0.0773  0.1696
10519TIP3    H153048   4.950   1.021  15.189 -0.7351  0.0209  2.2200
10519TIP3    H253049   4.904   0.940  15.070  0.8613  2.0351  0.1844
10520TIP3   OH253050   4.795   2.948   0.166  0.5388  0.1301  0.0188
10520TIP3    H153051   4.777   2.917   0.255  1.4787 -0.6774 -0.0701
10520TIP3    H253052   4.714   2.991   0.139  0.1980  0.2404  1.2091
10521TIP3   OH253053   0.345   4.772  11.016 -0.0077 -0.5444  0.1487
10521TIP3    H153054   0.331   4.845  10.956 -2.1370 -0.4998  0.6417
10521TIP3    H253055   0.393   4.707  10.964 -0.0929  0.2907 -0.9946
10522TIP3   OH253056   5.765   5.663  13.602  0.2474 -0.2025 -0.0146
10522TIP3    H153057   5.786   5.627  13.688 -0.3068 -2.0004 -0.6126
10522TIP3    H253058   5.846   5.704  13.573  0.6979 -0.3797  0.9665
10523TIP3   OH253059   2.048   1.545   4.155  0.0958  0.1017  0.1160
10523TIP3    H153060   2.068   1.462   4.198 -0.2159  0.1724  0.4038
10523TIP3    H253061   1.987   1.589   4.215  0.2747  0.5451 -0.0243
10524TIP3   OH253062   2.056   1.516  12.484  0.2082  0.2711  0.7223
10524TIP3    H153063   1.983   1.546  12.429  0.7965 -0.0170 -0.2374
10524TIP3    H253064   2.054   1.421  12.478  0.2548  0.2366  1.2363
10525TIP3   OH253065   3.515   5.914  15.116 -0.5326 -0.2448  0.2251
10525TIP3    H153066   3.507   5.827  15.155  1.4114 -0.2844  0.5839
10525TIP3    H253067   3.600   5.913  15.072 -0.3170  1.5891  0.5525
10526TIP3   OH253068   0.808   2.303  12.014  0.2191  0.0274  0.3530
10526TIP3    H153069   0.838   2.222  11.972  0.3626  0.8470 -1.1543
10526TIP3    H253070   0.818   2.370  11.947  1.5277  1.5972  2.0726
10527TIP3   OH253071   0.513   2.483   1.970  0.3787 -0.1599  0.8339
10527TIP3    H153072   0.485   2.439   1.890  1.1807  0.9003 -0.0400
10527TIP3    H253073   0.601   2.515   1.951 -0.5693  2.7081  1.0756
10528TIP3   OH253074   4.906   2.444  12.516 -0.1604 -0.1385  0.1139
10528TIP3    H153075   4.921   2.533  12.482  1.1345  0.0598  1.1429
10528TIP3    H253076   4.842   2.406  12.457 -0.0218  1.1691 -0.8997
10529TIP3   OH253077   3.154   5.254  16.395 -0.2570 -0.2728 -0.1519
10529TIP3    H153078   3.080   5.289  16.346 -1.2263 -1.4485  0.4395
10529TIP3    H253079   3.166   5.315  16.468 -2.5518 -1.6397  1.4238
10530TIP3   OH253080   4.648   0.336   4.653  0.3580 -0.6380 -0.4673
10530TIP3    H153081   4.684   0.376   4.574  0.1643 -2.8808 -1.7231
10530TIP3    H253082   4.699   0.256   4.665 -0.2641 -0.8257  1.1397
10531TIP3   OH253083   0.918   0.333  15.557 -0.9777  0.5726 -0.4535
10531TIP3    H153084   0.864   0.266  15.599  1.8249 -1.5064 -0.0228
10531TIP3    H253085   0.882   0.342  15.469 -1.7147 -1.1663 -0.3397
10532TIP3   OH253086   1.630   4.482   4.493  0.1958 -0.1512 -0.0506
10532TIP3    H153087   1.710   4.478   4.440  1.4926  0.1860  1.8441
10532TIP3    H253088   1.642   4.414   4.559 -1.7673 -1.1109 -0.6288
10533TIP3   OH253089   1.856   3.963  15.452 -0.1336 -0.3980  0.1794
10533TIP3    H153090   1.822   4.014  15.525  1.5352  0.6149  0.2719
10533TIP3    H253091   1.840   4.017  15.375  2.9027  0.9858  0.4318
10534TIP3   OH253092   2.519   5.880  13.667 -0.0363 -0.3642  0.1791
10534TIP3    H153093   2.602   5.835  13.685  0.4526  0.7102  0.6028
10534TIP3    H253094   2.502   5.862  13.575  1.0645  0.0521 -0.1141
10535TIP3   OH253095   3.674   6.471  12.462  0.5324  0.2173 -0.3240
10535TIP3    H153096   3.747   6.521  12.424 -0.4087  1.0883 -1.0245
10535TIP3    H253097   3.626   6.438  12.386 -1.0774  1.5452  0.0754
10536TIP3   OH253098   4.060   2.213  12.837 -0.0780 -0.4404  0.5100
10536TIP3    H153099   4.139   2.191  12.788 -0.0981  0.9105 -0.1501
10536TIP3    H253100   4.086   2.287  12.892 -0.6037 -0.6619  1.0603
10537TIP3   OH253101   3.405   6.791  12.683 -0.0978  0.0584 -0.0496
10537TIP3    H153102   3.325   6.740  12.672 -0.5346  0.9201 -0.9875
10537TIP3    H253103   3.447   6.755  12.761 -1.8293  0.1431  0.9473
10538TIP3   OH253104   1.836   5.021  16.590  0.1218  0.2857  0.3143
10538TIP3    H153105   1.883   5.078  16.530 -0.7999 -1.2780 -1.9527
10538TIP3    H253106   1.802   5.080  16.658  1.5877  2.0020 -0.4036
10539TIP3   OH253107   1.190   4.546   6.096  0.3504 -0.2560 -0.3645
10539TIP3    H153108   1.137   4.495   6.157  1.8096 -0.3223  0.8844
10539TIP3    H253109   1.142   4.628   6.086  0.1929 -0.1605  1.0500
10540TIP3   OH253110   0.563   3.580  12.950 -0.0245 -0.0947 -0.1846
10540TIP3    H153111   0.616   3.527  13.010  0.5335  1.0893  0.3966
10540TIP3    H253112   0.473   3.570  12.982 -0.1553 -1.9971 -1.0815
10541TIP3   OH253113   3.908   6.332   1.568 -0.2909  0.4676  0.6552
10541TIP3    H153114   3.965   6.394   1.612  0.8731  0.0031 -0.1657
10541TIP3    H253115   3.920   6.349   1.475 -1.3517  0.2333  0.4621
10542TIP3   OH253116   3.404   1.281  13.954  0.2785 -0.7383  0.4335
10542TIP3    H153117   3.463   1.233  14.012 -0.5393 -0.3020  1.6449
10542TIP3    H253118   3.316   1.259  13.986 -0.1531  0.2605 -0.0507
10543TIP3   OH253119   0.503   4.816   3.810 -0.1437 -0.0366 -0.0124
10543TIP3    H153120   0.554   4.882   3.858 -1.6124  0.2151  1.2493
10543TIP3    H253121   0.569   4.759   3.770  1.1324 -0.1509  2.1741
10544TIP3   OH253122   6.258   5.305   4.065  0.0186 -0.1638 -0.2599
10544TIP3    H153123   6.206   5.228   4.087  0.9581 -0.9242 -0.7041
10544TIP3    H253124   6.285   5.340   4.150  0.5518 -0.9755 -0.0938
10545TIP3   OH253125   4.514   4.827  13.932  0.0589 -0.6549  0.0053
10545TIP3    H153126   4.507   4.867  13.845 -1.0568  0.5135  0.6160
10545TIP3    H253127   4.439   4.768  13.938 -0.9888  0.7191  0.8872
10546TIP3   OH253128   1.290   0.447   1.022  0.0621 -0.0273  0.1676
10546TIP3    H153129   1.255   0.360   1.040  1.0278 -0.1230  1.6591
10546TIP3    H253130   1.383   0.431   1.003 -0.1382  0.4909 -1.3422
10547TIP3   OH253131   1.367   1.098   3.878 -0.1407  0.0505  0.8889
10547TIP3    H153132   1.280   1.123   3.847  0.6531  0.5313 -0.9973
10547TIP3    H253133   1.395   1.029   3.817  0.9037  0.0967  1.3059
10548TIP3   OH253134   0.009   5.228   2.951 -0.0727 -0.8067  0.6397
10548TIP3    H153135   0.058   5.265   2.877 -0.1119 -0.6977  0.6681
10548TIP3    H253136   0.072   5.230   3.024  0.1165 -1.3472  0.4920
10549TIP3   OH253137   5.150   3.267  11.711 -0.0546  0.0195 -0.3269
10549TIP3    H153138   5.095   3.197  11.746  2.8291 -1.6016  1.1038
10549TIP3    H253139   5.232   3.224  11.686  2.2555  2.9921  1.6814
10550TIP3   OH253140   1.024   4.107   5.199 -0.5608  0.3471  0.2097
10550TIP3    H153141   1.057   4.197   5.197  1.5237 -0.3780  0.8750
10550TIP3    H253142   1.020   4.080   5.107 -0.3777  0.8232  0.0619
10551TIP3   OH253143   0.711   1.002   5.904  0.3938 -0.4903 -0.2095
10551TIP3    H153144   0.706   1.095   5.926  0.9384  0.1012 -2.4445
10551TIP3    H253145   0.626   0.966   5.930  0.0443  0.7017  0.3335
10552TIP3   OH253146   6.745   4.437  17.063  0.6533  0.0490 -0.8612
10552TIP3    H153147   6.746   4.341  17.060  1.9416  0.0437 -0.6000
10552TIP3    H253148   6.827   4.460  17.107 -0.1710  1.2408  0.0739
10553TIP3   OH253149   5.783   2.771  14.765 -0.0232  0.4984  0.1768
10553TIP3    H153150   5.704   2.718  14.753 -1.5707  2.4557  1.4030
10553TIP3    H253151   5.847   2.710  14.800 -1.0104 -1.1097 -0.7614
10554TIP3   OH253152   1.974   5.340  15.910 -0.0796 -0.0743 -0.2391
10554TIP3    H153153   2.059   5.300  15.892  0.3872 -0.6662  2.9650
10554TIP3    H253154   1.920   5.269  15.945 -0.5638  1.1315  1.5791
10555TIP3   OH253155   1.328   0.816   2.507 -0.5535  0.1688  0.3305
10555TIP3    H153156   1.367   0.870   2.438 -0.9473  0.7474  0.5637
10555TIP3    H253157   1.390   0.743   2.517  0.4462  1.0507  0.6598
10556TIP3   OH253158   6.049   4.997  12.445  0.2203  0.0690 -0.5331
10556TIP3    H153159   5.960   4.962  12.450  0.1083  0.4506  0.1433
10556TIP3    H253160   6.105   4.922  12.465  0.1135 -0.4498 -2.0450
10557TIP3   OH253161   5.208   6.815  16.201 -0.0844 -0.4131 -0.5914
10557TIP3    H153162   5.282   6.872  16.218  0.5628 -0.9257 -1.6326
10557TIP3    H253163   5.144   6.871  16.156  0.5535 -0.4936 -1.6221
10558TIP3   OH253164   3.980   6.590   1.729 -0.3980  0.7482  0.4676
10558TIP3    H153165   3.973   6.616   1.637 -0.7475 -0.2673  0.2078
10558TIP3    H253166   4.038   6.656   1.768 -0.5068  1.3647 -0.4057
10559TIP3   OH253167   5.938   5.190  15.821 -0.0828 -0.3791 -0.3138
10559TIP3    H153168   6.013   5.245  15.843 -0.3097  0.3140 -1.2310
10559TIP3    H253169   5.937   5.123  15.889  0.7701  0.1876  0.2740
10560TIP3   OH253170   5.975   2.112  17.189 -0.0102  0.4028  0.8659
10560TIP3    H153171   6.048   2.054  17.166  1.4702  2.8934 -0.8899
10560TIP3    H253172   5.899   2.074  17.145  1.3451  0.9122 -2.0141
10561TIP3   OH253173   3.684   4.371  14.992  0.3522  0.1811  0.2734
10561TIP3    H153174   3.648   4.432  15.055 -1.0503  0.7962 -1.0874
10561TIP3    H253175   3.610   4.348  14.935  1.7865  0.4698 -1.7722
10562TIP3   OH253176   6.751   5.084  13.154  0.3267 -0.5919  0.0171
10562TIP3    H153177   6.771   5.115  13.065  3.4933 -0.3052  0.7832
10562TIP3    H253178   6.726   4.993  13.142 -0.7877 -0.1365 -1.3185
10563TIP3   OH253179   0.966   2.271  11.615 -0.1615 -0.1298  0.6383
10563TIP3    H153180   1.046   2.221  11.603 -0.6357 -0.6583 -0.3961
10563TIP3    H253181   0.986   2.358  11.580  0.2987  0.0818  1.3985
10564TIP3   OH253182   4.188   0.642  10.877 -0.0323  0.9925 -0.8273
10564TIP3    H153183   4.267   0.656  10.826 -0.2600  1.5840 -1.0273
10564TIP3    H253184   4.180   0.547  10.884  1.8091  0.9223  0.9375
10565TIP3   OH253185   5.819   3.437  12.916 -1.0479  0.2416 -0.1025
10565TIP3    H153186   5.768   3.436  12.997 -1.5045  1.3486 -0.3778
10565TIP3    H253187   5.797   3.520  12.874 -1.1399 -0.5134 -1.5731
10566TIP3   OH253188   2.360   4.005   1.384 -0.3003  0.4796 -0.3085
10566TIP3    H153189   2.387   3.955   1.461 -1.3760  2.2617  1.2781
10566TIP3    H253190   2.432   3.994   1.321  0.2183 -1.6447  0.6346
10567TIP3   OH253191   5.473   2.600  15.279 -0.5131  0.0565  0.2257
10567TIP3    H153192   5.435   2.688  15.280  0.7326  0.6046 -0.0736
10567TIP3    H253193   5.440   2.559  15.359  1.2427  1.8032  1.9007
10568TIP3   OH253194   4.195   1.951  15.578  0.1065  0.1573  0.5139
10568TIP3    H153195   4.153   2.037  15.588 -0.0446  0.1829 -0.2557
10568TIP3    H253196   4.288   1.971  15.569  0.1827  0.1674  1.3582
10569TIP3   OH253197   2.012   6.471   4.589  0.4385 -0.2387  0.5892
10569TIP3    H153198   2.029   6.386   4.629  0.2040  0.2912  1.8257
10569TIP3    H253199   2.029   6.457   4.496  2.9136 -0.9867  1.0995
10570TIP3   OH253200   6.410   0.395   5.169 -0.2463 -0.1763 -0.0016
10570TIP3    H153201   6.462   0.453   5.224 -1.0993  0.1103  0.5160
10570TIP3    H253202   6.348   0.452   5.125 -0.5207 -0.5876 -0.1552
10571TIP3   OH253203   6.040   3.410   1.116  0.4933 -0.8545 -0.0540
10571TIP3    H153204   6.022   3.348   1.046 -1.7095 -0.6014  0.2459
10571TIP3    H253205   6.016   3.496   1.080  2.3148 -0.3120 -0.0369
10572TIP3   OH253206   5.610   4.111   0.842 -0.0369  0.0070  0.4290
10572TIP3    H153207   5.568   4.041   0.891 -1.8973  0.1682 -0.9082
10572TIP3    H253208   5.583   4.097   0.751 -0.2297  2.2927  0.1013
10573TIP3   OH253209   4.248   4.982   1.493  0.1187  0.3572  0.1587
10573TIP3    H153210   4.167   5.023   1.524  0.8940  1.3183  0.9413
10573TIP3    H253211   4.255   4.901   1.544  0.0894  0.7012  0.7181
10574TIP3   OH253212   4.389   4.924   3.171 -0.4584  0.2254 -0.0256
10574TIP3    H153213   4.350   4.859   3.113 -0.9601  0.3119  0.2114
10574TIP3    H253214   4.476   4.890   3.191 -0.2675  0.2211 -0.8668
10575TIP3   OH253215   3.422   1.476   2.040 -0.1189 -0.4922 -0.2766
10575TIP3    H153216   3.340   1.504   2.082  0.4079  0.9319 -0.1690
10575TIP3    H253217   3.396   1.450   1.952 -0.3157  2.7569 -1.2648
10576TIP3   OH253218   2.073   0.963   5.727  0.0807  0.3158 -0.8858
10576TIP3    H153219   2.162   0.961   5.762 -0.5144 -0.6033  0.6067
10576TIP3    H253220   2.072   1.039   5.668  1.5547  0.9519 -0.1049
10577TIP3   OH253221   5.835   0.705  13.024 -0.1343  0.8017 -0.0756
10577TIP3    H153222   5.780   0.708  12.946  0.5273 -0.2855 -0.5902
10577TIP3    H253223   5.892   0.782  13.017  0.0874  0.5707 -0.7836
10578TIP3   OH253224   2.035   5.622  12.060  0.1687  0.0296  0.1598
10578TIP3    H153225   2.037   5.669  11.977 -2.7917 -0.6116 -0.3195
10578TIP3    H253226   2.092   5.546  12.046  0.0412  0.1607 -1.1419
10579TIP3   OH253227   3.979   4.893  12.092  0.4506  0.0069 -0.2482
10579TIP3    H153228   4.050   4.856  12.144 -0.8399 -1.3169  0.6077
10579TIP3    H253229   3.908   4.905  12.154 -1.5516 -2.7531 -1.9225
10580TIP3   OH253230   4.553   6.346  14.046  0.1980 -0.1513 -0.1045
10580TIP3    H153231   4.476   6.372  13.996  0.2283  0.9003  0.3896
10580TIP3    H253232   4.520   6.277  14.104 -0.2407 -0.1246 -0.3141
10581TIP3   OH253233   4.344   6.355   1.178  0.5294 -0.4638  0.2468
10581TIP3    H153234   4.361   6.449   1.172  1.0051 -0.5449  0.3773
10581TIP3    H253235   4.301   6.343   1.262 -0.9205 -0.1478 -0.4317
10582TIP3   OH253236   4.998   4.762   1.334 -0.0111 -0.0140 -0.5914
10582TIP3    H153237   4.926   4.719   1.288 -0.8873  0.0941  0.6820
10582TIP3    H253238   5.015   4.706   1.409 -0.6223  1.4243  0.6398
10583TIP3   OH253239   2.240   3.388  15.225 -0.2209 -0.0236 -0.3418
10583TIP3    H153240   2.252   3.354  15.314  0.4078  0.1257 -0.3669
10583TIP3    H253241   2.174   3.330  15.186  2.7543 -2.9268 -1.2950
10584TIP3   OH253242   6.430   2.401   1.836 -0.3237  0.4038 -0.3387
10584TIP3    H153243   6.494   2.330   1.825 -0.1096  0.6480 -0.6453
10584TIP3    H253244   6.374   2.370   1.908  1.5518  1.2313  1.5278
10585TIP3   OH253245   5.739   4.048   0.546 -0.4255 -0.0320  0.3912
10585TIP3    H153246   5.830   4.053   0.577 -0.8255  2.2266  1.3001
10585TIP3    H253247   5.732   3.962   0.506  2.4045  0.1002 -0.5183
10586TIP3   OH253248   3.442   2.998  14.694  0.0256  0.0334 -0.4197
10586TIP3    H153249   3.358   3.038  14.717 -0.5813 -2.4727  2.0156
10586TIP3    H253250   3.422   2.948  14.614 -0.7586 -0.3623  0.0128
10587TIP3   OH253251   5.301   1.215   1.030 -0.0752 -0.0492  0.3249
10587TIP3    H153252   5.360   1.273   0.982 -0.0068 -0.9524 -0.7209
10587TIP3    H253253   5.257   1.272   1.093  1.0944  0.8430  0.3605
10588TIP3   OH253254   3.110   3.916  16.176 -0.5456  0.4552 -0.6262
10588TIP3    H153255   3.180   3.961  16.224  0.1271 -0.4760 -0.7025
10588TIP3    H253256   3.108   3.828  16.215 -3.5881  1.3221  1.3021
10589TIP3   OH253257   2.467   1.680  13.313 -0.9143  0.3083  0.9016
10589TIP3    H153258   2.540   1.675  13.250 -2.0260 -1.1228 -0.3139
10589TIP3    H253259   2.481   1.605  13.371 -2.3030 -0.9370 -0.3416
10590TIP3   OH253260   6.120   6.380   4.345 -0.5945  0.0737  0.0533
10590TIP3    H153261   6.091   6.335   4.424  0.3912  1.1979  1.0854
10590TIP3    H253262   6.066   6.459   4.341  0.2090  0.6561  0.3278
10591TIP3   OH253263   5.272   6.147   0.265 -1.0048 -0.1465  0.0504
10591TIP3    H153264   5.260   6.123   0.357 -1.3359 -0.4070 -0.0591
10591TIP3    H253265   5.329   6.224   0.267  3.0177 -2.9868  0.2297
10592TIP3   OH253266   4.806   6.765   1.145  0.5840 -0.0521  0.2412
10592TIP3    H153267   4.762   6.793   1.065 -1.9535 -2.9982  0.5569
10592TIP3    H253268   4.875   6.706   1.115  1.0687  0.5822  0.0962
10593TIP3   OH253269   3.340   2.060  11.846 -0.2661  0.3605 -0.6699
10593TIP3    H153270   3.415   2.102  11.803  1.5427 -0.7538  1.2587
10593TIP3    H253271   3.349   1.967  11.824  0.2317 -0.1073  1.3794
10594TIP3   OH253272   2.733   5.485   1.532 -0.1593 -0.5507 -0.0780
10594TIP3    H153273   2.724   5.394   1.561 -0.1249  0.2287  2.5706
10594TIP3    H253274   2.784   5.527   1.602 -0.7751  1.6546 -0.9131
10595TIP3   OH253275   1.018   5.963  16.337 -0.4086  0.4481  0.2170
10595TIP3    H153276   1.017   5.867  16.345 -1.1404  0.3341 -1.0513
10595TIP3    H253277   1.071   5.993  16.411  2.4448 -1.1214 -1.0910
10596TIP3   OH253278   6.125   0.032   3.423 -0.4725 -0.1106  0.5567
10596TIP3    H153279   6.159   0.119   3.402 -0.4013 -0.3680 -0.4159
10596TIP3    H253280   6.193  -0.008   3.476 -0.7397  0.6264  1.4592
10597TIP3   OH253281   0.383   3.982   1.030  0.4019 -0.0560  0.0628
10597TIP3    H153282   0.468   3.952   1.063  0.6122  0.3863 -0.0894
10597TIP3    H253283   0.342   3.902   0.995  1.7219  0.1549 -2.0230
10598TIP3   OH253284   5.924   4.398  12.123 -0.6000  0.1120  0.6685
10598TIP3    H153285   5.910   4.363  12.035  1.7415  0.0618  0.2789
10598TIP3    H253286   5.871   4.343  12.180  1.3118 -2.6817 -0.1945
10599TIP3   OH253287   6.221   6.352  12.251  0.7152 -0.1694  0.1533
10599TIP3    H153288   6.179   6.267  12.239  0.5544  0.1881 -1.9222
10599TIP3    H253289   6.151   6.408  12.286  1.1217 -1.1502  2.6532
10600TIP3   OH253290   5.620   2.432  14.215  0.0396 -0.4493 -0.0607
10600TIP3    H153291   5.611   2.379  14.137 -1.1794 -0.7922  0.2942
10600TIP3    H253292   5.647   2.518  14.183 -2.0987 -0.1090 -1.0198
10601TIP3   OH253293   2.080   2.249  15.555 -0.2146 -0.0436 -0.2222
10601TIP3    H153294   2.140   2.286  15.490 -0.6689  1.8739  0.4155
10601TIP3    H253295   2.026   2.188  15.506  0.0701  0.6983 -1.4740
10602TIP3   OH253296   6.773   1.189  14.528  0.9042 -0.0964 -0.2067
10602TIP3    H153297   6.695   1.148  14.491  1.0881 -0.0183 -0.6875
10602TIP3    H253298   6.845   1.161  14.471  1.3170 -0.6316  0.5689
10603TIP3   OH253299   0.022   3.774   0.454  0.3379 -0.8997  0.3587
10603TIP3    H153300  -0.041   3.704   0.469  0.8939 -1.1597  1.5224
10603TIP3    H253301   0.017   3.792   0.360  0.2188 -2.5231  0.0508
10604TIP3   OH253302   3.238   2.308   3.788 -0.3539  0.1330 -0.1918
10604TIP3    H153303   3.233   2.365   3.865  0.8279 -0.2772  0.2161
10604TIP3    H253304   3.291   2.357   3.725  1.6975 -0.9556  0.6124
10605TIP3   OH253305   4.686   5.412   4.246 -0.0802 -0.0413 -0.0612
10605TIP3    H153306   4.741   5.437   4.171  0.6378 -0.9018  0.1674
10605TIP3    H253307   4.743   5.427   4.322 -0.6682  0.4455  0.2818
10606TIP3   OH253308   4.773   1.389   3.010 -0.1086  0.1756  0.3318
10606TIP3    H153309   4.702   1.335   3.046 -0.2978  0.5492  0.5238
10606TIP3    H253310   4.824   1.416   3.086  0.2045 -0.0456  0.1977
10607TIP3   OH253311   5.995   6.447   3.399  0.5584  0.2892 -0.2184
10607TIP3    H153312   6.043   6.500   3.336 -1.6584  2.1233 -0.4387
10607TIP3    H253313   6.012   6.489   3.483  1.9403 -1.0063  0.1777
10608TIP3   OH253314   5.312   0.681  16.878  0.2977 -0.5659 -0.5531
10608TIP3    H153315   5.259   0.736  16.820  0.7027  0.8538  0.3944
10608TIP3    H253316   5.271   0.594  16.873 -1.3728  0.2164 -0.7823
10609TIP3   OH253317   2.662   0.369  10.814 -0.0500  0.3200 -0.0233
10609TIP3    H153318   2.652   0.420  10.733 -2.4709 -1.0627 -0.6535
10609TIP3    H253319   2.601   0.410  10.875  0.5710  0.3444  0.5737
10610TIP3   OH253320   0.022   4.004   5.840  0.1537  0.0461 -0.5295
10610TIP3    H153321   0.010   3.998   5.745 -1.0350  0.1144 -0.3853
10610TIP3    H253322  -0.011   4.091   5.862 -1.3215 -0.6917  0.2111
10611TIP3   OH253323   2.902   6.334   4.289 -0.4999 -0.0429 -0.2560
10611TIP3    H153324   2.946   6.354   4.206 -0.6680 -0.1951 -0.3828
10611TIP3    H253325   2.923   6.408   4.346 -2.5099  1.3297 -1.2472
10612TIP3   OH253326   5.723   1.942   5.750 -0.3816  0.5250  0.0088
10612TIP3    H153327   5.726   1.957   5.844 -0.2778  0.5508  0.0013
10612TIP3    H253328   5.699   2.027   5.713 -0.1613  0.5818 -0.0062
10613TIP3   OH253329   5.001   5.623   0.401 -0.2948  0.6475 -0.8995
10613TIP3    H153330   5.037   5.592   0.318  1.9252  0.5414  0.0854
10613TIP3    H253331   5.025   5.556   0.465 -0.8433  1.3656  0.0829
10614TIP3   OH253332   2.765   6.682  11.766  0.7997 -0.0696  0.6339
10614TIP3    H153333   2.776   6.768  11.806  1.7230  0.5664 -0.9102
10614TIP3    H253334   2.677   6.654  11.792  0.9638  0.7854  2.1689
10615TIP3   OH253335   0.122   3.943  12.596  0.5623  0.3277 -0.3816
10615TIP3    H153336   0.190   3.877  12.582  0.5511  0.2082  0.1394
10615TIP3    H253337   0.055   3.899  12.647  1.2199  1.1457  1.2265
10616TIP3   OH253338   4.821   3.725  17.005 -0.3195  0.2963  0.0421
10616TIP3    H153339   4.801   3.644  16.959  0.4431  0.5503 -0.7490
10616TIP3    H253340   4.842   3.698  17.095 -0.9656 -0.2818  0.0182
10617TIP3   OH253341   4.864   6.679  11.959 -0.9791  0.4799 -0.4738
10617TIP3    H153342   4.947   6.682  12.005 -0.6365 -0.6648 -1.0001
10617TIP3    H253343   4.860   6.591  11.922 -2.0194  0.8166 -1.1886
10618TIP3   OH253344   1.001   0.023  14.919  0.3111  0.0629 -0.6255
10618TIP3    H153345   0.959   0.090  14.865 -0.8254 -1.0708 -1.1779
10618TIP3    H253346   0.954   0.025  15.002  0.7011  0.3909 -0.4118
10619TIP3   OH253347   0.524   4.049  13.226 -0.3131  0.4230 -0.2218
10619TIP3    H153348   0.561   3.983  13.168  0.4947  1.3707 -0.8043
10619TIP3    H253349   0.435   4.062  13.195 -0.4638 -0.3774 -0.1185
10620TIP3   OH253350   2.133   4.068   4.607  0.2160 -0.3145 -0.3535
10620TIP3    H153351   2.147   4.051   4.700  1.0911  2.5956  0.0906
10620TIP3    H253352   2.038   4.060   4.596 -0.1442  1.4693  1.2554
10621TIP3   OH253353   5.104   3.117   0.359 -0.0953  0.4605  0.2646
10621TIP3    H153354   5.169   3.169   0.312 -0.3374 -0.9719 -1.7059
10621TIP3    H253355   5.153   3.043   0.394 -0.3581  0.2969  0.2864
10622TIP3   OH253356   4.855   3.993   0.043  0.2723  0.3441  0.0152
10622TIP3    H153357   4.828   4.085   0.038 -0.7877  0.0551  0.2425
10622TIP3    H253358   4.830   3.965   0.130 -1.3188 -0.7346 -0.7700
10623TIP3   OH253359   4.892   2.847   2.899  0.1881 -0.1451  0.3545
10623TIP3    H153360   4.798   2.859   2.912 -0.0912 -1.1494 -0.6439
10623TIP3    H253361   4.932   2.919   2.947 -1.0350 -0.4737  1.9154
10624TIP3   OH253362   4.715   3.473  17.194 -0.0085 -0.1249 -0.4532
10624TIP3    H153363   4.793   3.478  17.249 -0.2524  0.1851 -0.1288
10624TIP3    H253364   4.688   3.565  17.184 -0.1439 -0.2062 -0.8297
10625TIP3   OH253365   2.074   3.496  17.152  0.4299  0.2826 -0.3905
10625TIP3    H153366   2.112   3.527  17.070  1.3196  1.3080  0.3940
10625TIP3    H253367   2.118   3.412  17.168  2.1865  1.3243  0.3682
10626TIP3   OH253368   4.839   0.825  16.481  0.2152  0.3341  0.6245
10626TIP3    H153369   4.768   0.889  16.474 -0.5786 -0.7351 -1.7458
10626TIP3    H253370   4.802   0.753  16.530 -0.3453 -0.1861 -0.5373
10627TIP3   OH253371   1.422   4.513   5.765 -0.0345  0.2542  0.0999
10627TIP3    H153372   1.480   4.553   5.830  1.1535  1.1627 -1.4975
10627TIP3    H253373   1.466   4.433   5.739 -0.2732  0.1384  0.0534
10628TIP3   OH253374   1.704   0.884   2.632 -0.2792 -0.2555 -0.1642
10628TIP3    H153375   1.635   0.943   2.661 -0.1333  0.0570 -0.4512
10628TIP3    H253376   1.741   0.848   2.712  0.1553  0.6349  0.0350
10629TIP3   OH253377   4.489   1.126  17.156 -0.8945 -0.2035  0.5027
10629TIP3    H153378   4.474   1.132  17.251  0.5076 -1.4208  0.8242
10629TIP3    H253379   4.583   1.112  17.148 -1.1833 -1.3410 -1.0159
10630TIP3   OH253380   2.782   0.867  15.041  0.0753 -0.0326 -0.1428
10630TIP3    H153381   2.774   0.960  15.020  1.8626  0.8044  2.5768
10630TIP3    H253382   2.816   0.827  14.962 -0.5032  1.6704 -1.2767
10631TIP3   OH253383   3.468   3.821  14.456 -0.0601  0.0877 -0.3643
10631TIP3    H153384   3.529   3.812  14.383  0.3877 -1.3539  0.1810
10631TIP3    H253385   3.491   3.905  14.496  1.0481 -0.0903 -0.6265
10632TIP3   OH253386   4.214   2.415   4.524  0.4995  0.0957  0.1443
10632TIP3    H153387   4.309   2.402   4.519  0.4030 -0.6224  0.0322
10632TIP3    H253388   4.182   2.385   4.439  0.3257  1.7876 -0.3907
10633TIP3   OH253389   0.886   4.717  15.224  0.4268  0.4449 -0.0101
10633TIP3    H153390   0.943   4.792  15.207  3.0500 -1.3396  0.6794
10633TIP3    H253391   0.895   4.701  15.317  2.2539 -2.5506 -0.6537
10634TIP3   OH253392   2.624   1.839  16.698 -0.4561 -0.4278  0.0086
10634TIP3    H153393   2.595   1.844  16.606  0.9172  1.8409 -0.3515
10634TIP3    H253394   2.698   1.779  16.696 -0.1219 -0.0098 -0.4687
10635TIP3   OH253395   0.209   1.927   1.397  0.5853  0.3886 -0.3178
10635TIP3    H153396   0.222   1.984   1.472  0.8743  0.0174 -0.0801
10635TIP3    H253397   0.298   1.898   1.374  0.3231 -1.1964  0.5369
10636TIP3   OH253398   1.023   5.732   4.126  0.2284 -0.7117  0.0716
10636TIP3    H153399   1.092   5.712   4.063  0.0054 -1.8023  0.1677
10636TIP3    H253400   1.022   5.828   4.131  2.4008 -0.6922  0.7935
10637TIP3   OH253401   1.781   0.151  13.679 -0.0187  0.1258  0.3342
10637TIP3    H153402   1.812   0.174  13.767  1.4733  1.7788 -0.6131
10637TIP3    H253403   1.743   0.232  13.645 -1.0718 -0.6457 -0.3769
10638TIP3   OH253404   1.626   1.808   2.462  0.5013  0.5400 -0.4780
10638TIP3    H153405   1.577   1.747   2.406  0.0293 -1.0284  1.6047
10638TIP3    H253406   1.708   1.763   2.480  1.2647  1.6749 -1.1051
10639TIP3   OH253407   5.998   0.906   1.177  0.5660  0.7280  0.3482
10639TIP3    H153408   6.051   0.985   1.166  0.2828  0.6917 -1.4656
10639TIP3    H253409   6.062   0.835   1.185  0.8533  0.7154 -1.6068
10640TIP3   OH253410   2.163   2.348  11.312  0.1758  0.2411 -0.1145
10640TIP3    H153411   2.208   2.382  11.234 -2.5222  1.9914 -0.9700
10640TIP3    H253412   2.200   2.398  11.385 -1.5886  2.9584 -1.0129
10641TIP3   OH253413   6.711   2.858   6.280  0.1245  0.1017 -0.7311
10641TIP3    H153414   6.745   2.860   6.370 -1.0033  1.2527 -0.3101
10641TIP3    H253415   6.621   2.828   6.289  0.1775 -0.3182 -1.5456
10642TIP3   OH253416   6.294   4.411   2.401 -0.3550  0.1936 -0.6947
10642TIP3    H153417   6.381   4.372   2.412  0.1278  0.8452 -2.1493
10642TIP3    H253418   6.281   4.416   2.306 -2.3090 -0.6220 -0.5124
10643TIP3   OH253419   0.383   3.288   3.606 -0.3541 -0.1005 -0.4400
10643TIP3    H153420   0.416   3.338   3.532  0.8492 -0.3813 -0.1019
10643TIP3    H253421   0.400   3.343   3.682  0.4762 -0.7742 -0.1296
10644TIP3   OH253422   0.422   3.352  11.241 -0.5601 -0.3211  0.2998
10644TIP3    H153423   0.471   3.298  11.304  1.7188  1.4725  0.1155
10644TIP3    H253424   0.463   3.438  11.246 -4.1095  1.4528  0.5548
10645TIP3   OH253425   0.546   2.171  11.419 -0.4289  0.2612  0.1947
10645TIP3    H153426   0.611   2.153  11.351 -1.2996  0.8091 -0.7934
10645TIP3    H253427   0.598   2.191  11.497  0.5723 -0.9170 -0.1600
10646TIP3   OH253428   3.091   4.276  11.474 -0.7291  0.2809  0.0846
10646TIP3    H153429   3.182   4.296  11.494 -0.8240  2.1039 -1.0716
10646TIP3    H253430   3.061   4.223  11.547  0.6367  1.5162  1.5956
10647TIP3   OH253431   5.769   2.490  17.279 -0.0145  0.1273 -0.3221
10647TIP3    H153432   5.722   2.458  17.202 -0.9214  0.7817 -0.0514
10647TIP3    H253433   5.700   2.522  17.337  0.5875 -1.2587  1.1922
10648TIP3   OH253434   1.098   6.739  11.531  0.2761 -0.0830 -0.3457
10648TIP3    H153435   1.017   6.690  11.521  0.0238 -0.1728  1.7586
10648TIP3    H253436   1.163   6.688  11.483 -0.2723 -1.7411  0.6174
10649TIP3   OH253437   0.147   0.949  11.611 -0.5643 -0.1248 -0.5691
10649TIP3    H153438   0.229   0.997  11.627  0.4390 -1.4690 -1.5613
10649TIP3    H253439   0.113   0.931  11.698 -0.6674  1.8838 -0.1682
10650TIP3   OH253440   5.366   2.408   4.978  0.2366  0.1835  0.8103
10650TIP3    H153441   5.420   2.343   4.933  1.8763  2.0899 -0.0187
10650TIP3    H253442   5.407   2.420   5.063 -0.1992 -0.0153  1.0520
10651TIP3   OH253443   6.350   0.712   0.615  0.3937 -0.5291  0.2665
10651TIP3    H153444   6.444   0.721   0.632  0.4830  0.2282 -0.5574
10651TIP3    H253445   6.312   0.792   0.651  0.0825 -0.7773  0.4856
10652TIP3   OH253446   0.811   5.439  14.562  0.4949  0.5607  0.5799
10652TIP3    H153447   0.772   5.370  14.508  0.5049 -0.4693  1.8650
10652TIP3    H253448   0.899   5.451  14.527  0.1532  0.6270 -0.2753
10653TIP3   OH253449   3.172   5.530  11.300 -0.3867  0.3004 -0.2147
10653TIP3    H153450   3.117   5.549  11.376 -0.1119  1.1763 -0.2265
10653TIP3    H253451   3.226   5.457  11.328 -0.3772  0.5323  0.3961
10654TIP3   OH253452   1.169   1.769  11.876  0.2545  0.1472  0.0104
10654TIP3    H153453   1.183   1.700  11.941  1.1907 -0.6411 -1.0289
10654TIP3    H253454   1.239   1.832  11.893  0.1491  0.2319  0.1354
10655TIP3   OH253455   1.953   5.411  14.304  0.3877  1.0923 -0.0608
10655TIP3    H153456   1.874   5.366  14.332  1.0795 -0.3303 -0.3634
10655TIP3    H253457   2.023   5.347  14.317  1.5898  2.5373  0.7950
10656TIP3   OH253458   4.209   5.524   0.103 -0.0678  0.4348  0.3604
10656TIP3    H153459   4.223   5.589   0.173  1.0512  1.4204 -0.7618
10656TIP3    H253460   4.131   5.555   0.057 -1.0360 -0.4231  1.3680
10657TIP3   OH253461   3.199   0.136  16.601  0.7451  0.5977 -0.1154
10657TIP3    H153462   3.207   0.205  16.536 -0.0591  0.8385  0.0430
10657TIP3    H253463   3.213   0.055  16.552  0.0781  0.7780 -0.5960
10658TIP3   OH253464   2.850   5.808   4.916  0.3644 -0.0406 -0.3729
10658TIP3    H153465   2.870   5.901   4.903  2.1519 -0.2850  0.4591
10658TIP3    H253466   2.767   5.808   4.963 -0.5707  1.0773 -1.9659
10659TIP3   OH253467   5.318   2.225   1.246 -0.3044  0.1106 -0.2052
10659TIP3    H153468   5.338   2.150   1.189 -0.3788  0.8600 -1.2245
10659TIP3    H253469   5.397   2.235   1.299 -0.0147 -0.2495 -0.5552
10660TIP3   OH253470   2.911   0.077  16.685 -0.3508 -0.4543  0.0533
10660TIP3    H153471   2.899   0.116  16.772  0.1705  1.7251 -0.8151
10660TIP3    H253472   3.004   0.086  16.667 -0.6651  0.3749 -1.2785
10661TIP3   OH253473   5.978   4.380  14.558  0.0208 -0.7881  0.2618
10661TIP3    H153474   5.970   4.423  14.643 -1.1093  2.1281 -1.2613
10661TIP3    H253475   6.066   4.404  14.528 -1.2053  1.8972 -1.3032
10662TIP3   OH253476   5.729   1.295   1.913 -0.1769  0.1901 -0.2044
10662TIP3    H153477   5.715   1.204   1.888  1.7898 -0.4669  0.9877
10662TIP3    H253478   5.820   1.312   1.891 -0.3137  1.6281  0.3120
10663TIP3   OH253479   6.631   6.717   5.318  0.2996  0.0582 -0.2461
10663TIP3    H153480   6.541   6.691   5.297  0.0951 -0.0086  0.6570
10663TIP3    H253481   6.634   6.811   5.298 -0.6712  0.5807  1.8384
10664TIP3   OH253482   3.745   3.360  15.963  0.3396 -0.5075 -0.3844
10664TIP3    H153483   3.783   3.434  16.011 -1.5763 -0.2796  0.8457
10664TIP3    H253484   3.820   3.313  15.928  1.7151  0.3926  1.2658
10665TIP3   OH253485   3.344   3.412  16.936 -0.0912  0.5789  0.3513
10665TIP3    H153486   3.344   3.317  16.930 -0.3367  0.6086 -0.1590
10665TIP3    H253487   3.263   3.433  16.984 -1.2813  0.6499 -1.6529
10666TIP3   OH253488   6.217   3.057  15.601 -0.0083 -0.2743 -0.1702
10666TIP3    H153489   6.195   3.144  15.567  1.2449  0.3524  0.6027
10666TIP3    H253490   6.132   3.012  15.607 -0.7799  1.1969  0.2610
10667TIP3   OH253491   0.923   5.175  13.584  0.2643  0.1274  0.8962
10667TIP3    H153492   0.940   5.168  13.490  0.3341 -1.3767  1.0036
10667TIP3    H253493   1.007   5.204  13.621  0.6124 -0.5003  0.6225
10668TIP3   OH253494   3.799   4.483  15.407  0.1459  0.0220 -0.0422
10668TIP3    H153495   3.744   4.485  15.485 -0.4956 -0.4835 -0.4773
10668TIP3    H253496   3.737   4.480  15.334  0.7279  1.2773 -0.6068
10669TIP3   OH253497   1.912   0.839   3.679 -0.3957 -0.3326 -0.1599
10669TIP3    H153498   1.838   0.882   3.637  0.6903  0.4377 -1.3221
10669TIP3    H253499   1.984   0.848   3.616  0.9710 -0.0995  1.4056
10670TIP3   OH253500   4.053   2.044   1.574 -0.0634  0.1355 -0.1566
10670TIP3    H153501   4.010   1.959   1.578 -0.0589  0.1315 -0.2018
10670TIP3    H253502   4.022   2.083   1.492  1.6413 -0.7034 -1.1984
10671TIP3   OH253503   4.525   0.989   1.048 -0.6147  0.2954  0.6104
10671TIP3    H153504   4.445   1.038   1.065 -1.0747  0.2542 -1.3714
10671TIP3    H253505   4.568   0.983   1.134 -2.7243  0.2900  1.6930
10672TIP3   OH253506   4.540   4.164   0.530 -0.4531  0.3801 -0.2327
10672TIP3    H153507   4.606   4.127   0.589  0.1089 -1.2249 -1.8053
10672TIP3    H253508   4.587   4.177   0.447 -1.6631  0.9567 -0.8415
10673TIP3   OH253509   1.299   1.093   4.428 -0.3603  0.0180 -0.3361
10673TIP3    H153510   1.239   1.134   4.365 -1.6741  1.5600  1.8450
10673TIP3    H253511   1.263   1.005   4.442  0.6282 -0.7785 -2.6052
10674TIP3   OH253512   6.477   0.008  16.153 -0.2362  0.0392  0.0621
10674TIP3    H153513   6.502   0.100  16.145  2.1431 -0.4333  1.3791
10674TIP3    H253514   6.542  -0.029  16.214 -1.4713 -2.3793 -0.0234
10675TIP3   OH253515   1.967   1.629   1.931 -0.4461 -0.2144  0.3313
10675TIP3    H153516   1.996   1.606   1.842  0.1363  1.5327  0.0360
10675TIP3    H253517   1.876   1.656   1.920 -1.0074 -1.9549  0.6138
10676TIP3   OH253518   1.825   2.374   3.632  0.3848  0.3023  0.1961
10676TIP3    H153519   1.772   2.309   3.586  0.6182  0.6243 -0.5292
10676TIP3    H253520   1.896   2.323   3.670 -0.2340 -0.0761  0.8538
10677TIP3   OH253521   0.795   5.924   2.158 -0.0794 -0.0925 -0.0168
10677TIP3    H153522   0.817   5.891   2.245  1.3784 -0.1056 -0.3913
10677TIP3    H253523   0.808   5.849   2.100  2.0473  0.7784 -0.6999
10678TIP3   OH253524   3.591   6.184   4.508 -0.2435  0.0743  0.3876
10678TIP3    H153525   3.532   6.241   4.458  0.2123  0.0919 -0.1386
10678TIP3    H253526   3.562   6.095   4.488 -0.8666  0.1167  1.0983
10679TIP3   OH253527   3.825   5.699   3.704 -0.5490 -0.1161  0.0655
10679TIP3    H153528   3.744   5.678   3.657 -1.5660  2.5742  0.5663
10679TIP3    H253529   3.893   5.696   3.637 -1.6252  1.3050 -1.1207
10680TIP3   OH253530   6.783   3.994  12.022 -0.3906 -0.3278  0.2075
10680TIP3    H153531   6.793   3.901  12.040 -1.4490 -0.3156  0.8709
10680TIP3    H253532   6.705   4.000  11.967  0.7929 -0.0133 -1.4895
10681TIP3   OH253533   0.651   5.460  14.214 -0.3620  0.0366  0.4666
10681TIP3    H153534   0.631   5.427  14.126  1.8297  1.5586 -0.6583
10681TIP3    H253535   0.728   5.411  14.241 -0.7040 -0.0342  1.3446
10682TIP3   OH253536   5.177   2.209  13.240  1.0361  0.2029  0.4299
10682TIP3    H153537   5.171   2.160  13.158  0.4754  1.4982 -0.3195
10682TIP3    H253538   5.089   2.206  13.276  1.3415 -0.5903  1.1346
10683TIP3   OH253539   5.232   0.422  13.532  0.0524 -0.2953  0.1332
10683TIP3    H153540   5.230   0.506  13.578 -0.3873  0.0484 -0.5065
10683TIP3    H253541   5.317   0.420  13.488 -0.3834  0.3062 -0.7491
10684TIP3   OH253542   6.748   2.622   3.011 -0.0929 -0.0109 -0.1580
10684TIP3    H153543   6.838   2.653   3.022  0.1264 -0.5199 -0.4868
10684TIP3    H253544   6.755   2.526   3.011 -0.6976 -0.0607  0.3291
10685TIP3   OH253545   6.220   5.173  14.491  0.0247 -0.8407 -0.2515
10685TIP3    H153546   6.182   5.090  14.519  0.0400 -1.1860 -1.2212
10685TIP3    H253547   6.145   5.232  14.483  0.0838 -0.5945  1.0073
10686TIP3   OH253548   6.810   4.950   4.621 -0.5728 -0.4150 -0.5924
10686TIP3    H153549   6.822   4.921   4.530 -0.7172  1.9934 -1.3974
10686TIP3    H253550   6.879   5.014   4.636 -0.3176 -1.0576  1.1455
10687TIP3   OH253551   0.395   6.167  15.678 -0.1991 -0.5952  0.3176
10687TIP3    H153552   0.391   6.118  15.596  0.5052 -1.1047  0.5868
10687TIP3    H253553   0.488   6.182  15.692 -0.4466  2.6628 -0.8546
10688TIP3   OH253554   6.511   3.292   0.632  0.4891  0.1787  0.0586
10688TIP3    H153555   6.521   3.237   0.555  0.4327 -0.3299  0.4085
10688TIP3    H253556   6.544   3.238   0.704 -0.7416  0.1115  0.5968
10689TIP3   OH253557   0.525   1.405  13.867 -0.0506  0.1696  0.3863
10689TIP3    H153558   0.535   1.429  13.959  0.6941  0.1760  0.3098
10689TIP3    H253559   0.550   1.485  13.819  2.6200 -0.7609  0.1245
10690TIP3   OH253560   1.843   2.417  15.313 -0.4330  0.0301 -0.2522
10690TIP3    H153561   1.873   2.479  15.247 -0.8877  1.6615  1.0473
10690TIP3    H253562   1.851   2.464  15.396 -1.6293 -1.3375  0.6601
10691TIP3   OH253563   1.278   4.539  15.793 -0.4058 -0.0435 -0.3066
10691TIP3    H153564   1.236   4.619  15.763 -1.6621 -1.6182 -2.8873
10691TIP3    H253565   1.367   4.544  15.757 -0.0776  0.7505  0.5902
10692TIP3   OH253566   0.957   6.706  15.810  0.0652  0.2104 -0.1472
10692TIP3    H153567   1.047   6.687  15.782 -0.7466  0.5579 -3.1728
10692TIP3    H253568   0.967   6.759  15.889  2.5710  1.6427 -1.3695
10693TIP3   OH253569   1.504   6.103  14.553  0.6126  0.6187  0.1457
10693TIP3    H153570   1.443   6.175  14.570 -0.6203 -0.7093  1.4441
10693TIP3    H253571   1.550   6.090  14.636 -1.8165 -2.5296  1.0558
10694TIP3   OH253572   3.345   5.237   4.637 -1.0121  0.4376 -0.2688
10694TIP3    H153573   3.332   5.225   4.731 -1.2754 -1.0854 -0.4941
10694TIP3    H253574   3.260   5.217   4.598  0.5131 -4.7603 -1.3149
10695TIP3   OH253575   1.786   1.995  15.439  0.0337  0.3537  0.6397
10695TIP3    H153576   1.741   2.008  15.522  1.0985 -0.5946  1.3869
10695TIP3    H253577   1.784   1.900  15.425  2.8048  0.1423  1.3056
10696TIP3   OH253578   3.683   5.419  13.039  1.1103  0.3676 -0.4080
10696TIP3    H153579   3.762   5.455  13.080  1.9050 -0.6032 -1.0443
10696TIP3    H253580   3.716   5.368  12.966 -0.1640  0.4121 -1.0241
10697TIP3   OH253581   4.823   0.874  16.174 -0.5808  0.2278  0.2965
10697TIP3    H153582   4.847   0.947  16.231 -2.2992 -0.5313  2.0424
10697TIP3    H253583   4.817   0.799  16.232  0.8027 -1.2750 -1.4322
10698TIP3   OH253584   6.752   0.373  13.235 -0.0473  0.3838 -0.4137
10698TIP3    H153585   6.701   0.295  13.260 -0.0483  0.6469  0.4175
10698TIP3    H253586   6.823   0.338  13.180 -0.0189 -0.2106 -0.0069
10699TIP3   OH253587   3.766   4.192  15.642 -0.1481  0.2279  0.7254
10699TIP3    H153588   3.786   4.155  15.556  1.3374  0.2834  1.0271
10699TIP3    H253589   3.699   4.258  15.625 -0.4597 -0.3381 -0.2731
10700TIP3   OH253590   3.839   1.421  14.129  0.2354  0.6360  0.0327
10700TIP3    H153591   3.847   1.373  14.046  0.2153  0.3682  0.1868
10700TIP3    H253592   3.888   1.368  14.192  0.1364  0.7700  0.2217
10701TIP3   OH253593   1.952   0.000   3.013  0.5441 -0.5683  0.9087
10701TIP3    H153594   1.929   0.093   3.014  1.0480 -0.4432  1.5566
10701TIP3    H253595   2.044  -0.001   2.984  0.7709 -0.8060  1.6249
10702TIP3   OH253596   2.861   4.737   5.359 -0.0476 -0.3976  0.2637
10702TIP3    H153597   2.903   4.799   5.419  0.2773  0.2601 -0.6196
10702TIP3    H253598   2.929   4.718   5.294 -0.6771 -0.3826 -0.4112
10703TIP3   OH253599   4.466   5.229   0.929  0.2236  0.0174 -0.5280
10703TIP3    H153600   4.384   5.184   0.950 -0.6840  1.0092 -1.8350
10703TIP3    H253601   4.528   5.200   0.996 -0.9299 -1.5014 -0.0972
10704TIP3   OH253602   2.735   0.784   3.480  0.1283 -0.1242  0.1007
10704TIP3    H153603   2.749   0.739   3.397 -2.2046  0.6755 -0.7695
10704TIP3    H253604   2.800   0.854   3.481 -0.1251  0.1370 -1.2620
10705TIP3   OH253605   0.214   2.494   3.440  0.2132 -0.3336 -0.1592
10705TIP3    H153606   0.304   2.506   3.409  0.3262 -1.9609 -0.4830
10705TIP3    H253607   0.223   2.446   3.522 -0.2567  1.5295  1.0305
10706TIP3   OH253608   6.538   6.197  13.667 -0.1266 -0.3576 -0.0137
10706TIP3    H153609   6.447   6.169  13.659  0.1467 -1.2852  0.0903
10706TIP3    H253610   6.575   6.141  13.735  1.0074 -1.2380 -1.3208
10707TIP3   OH253611   2.774   3.486   1.650  0.4900 -0.3355 -0.1501
10707TIP3    H153612   2.820   3.558   1.694  1.6056  0.5733 -2.7139
10707TIP3    H253613   2.706   3.529   1.599 -0.7308 -1.3777  0.5740
10708TIP3   OH253614   1.793   6.194   0.708 -0.3675  0.2695 -0.2616
10708TIP3    H153615   1.878   6.238   0.711 -0.5193  0.5609 -0.1358
10708TIP3    H253616   1.735   6.258   0.665 -0.7828  0.5272  0.6602
10709TIP3   OH253617   6.774   2.515  12.410  0.6399  0.3848 -0.4813
10709TIP3    H153618   6.757   2.440  12.353  1.0273 -1.4025  1.6556
10709TIP3    H253619   6.796   2.586  12.351 -2.6921 -0.3516 -2.7486
10710TIP3   OH253620   1.034   6.818   3.566  0.3250 -0.2848 -0.1675
10710TIP3    H153621   1.005   6.855   3.649 -0.6475 -0.9230 -0.2167
10710TIP3    H253622   1.091   6.745   3.590  1.9328  0.9814 -0.0699
10711TIP3   OH253623   1.259   5.733  14.731  0.0527 -0.3768 -0.8932
10711TIP3    H153624   1.346   5.709  14.702 -0.9766 -0.9380 -3.6449
10711TIP3    H253625   1.244   5.820  14.693 -0.9594 -0.7210 -1.3136
10712TIP3   OH253626   4.239   1.875  12.630 -0.2546  0.0418  0.2248
10712TIP3    H153627   4.145   1.883  12.610 -0.1856 -1.2359 -0.6400
10712TIP3    H253628   4.280   1.856  12.546  0.6151 -0.7456  0.8195
10713TIP3   OH253629   1.344   3.040   2.523 -0.4672  0.1734  0.2020
10713TIP3    H153630   1.250   3.058   2.516 -0.7954 -1.6340 -0.3256
10713TIP3    H253631   1.387   3.120   2.493 -1.8508  0.6716 -0.4652
10714TIP3   OH253632   2.408   5.270   0.762  0.0417  0.0657  0.0966
10714TIP3    H153633   2.370   5.183   0.746  0.3767 -0.3314  1.3633
10714TIP3    H253634   2.456   5.260   0.844 -0.5874  1.6709  0.6758
10715TIP3   OH253635   5.188   2.200  16.111  0.0435  0.3250 -0.0035
10715TIP3    H153636   5.126   2.221  16.041  1.0195 -0.1349 -1.0397
10715TIP3    H253637   5.158   2.116  16.145 -0.7185  0.7837  0.4606
10716TIP3   OH253638   2.515   4.274   0.854 -0.3114 -0.0469 -0.3165
10716TIP3    H153639   2.573   4.305   0.924 -0.7764 -0.1597  0.1158
10716TIP3    H253640   2.532   4.180   0.849 -1.2717 -0.2676  0.5635
10717TIP3   OH253641   2.566   1.587   1.893 -0.5269  0.5559  0.2693
10717TIP3    H153642   2.547   1.665   1.841 -0.6886 -0.2169 -0.8573
10717TIP3    H253643   2.482   1.541   1.897 -0.0920 -0.2998 -0.3487
10718TIP3   OH253644   6.181   2.703   1.497  0.1240  0.2585  0.5352
10718TIP3    H153645   6.204   2.626   1.548  0.3198  0.6668  1.0728
10718TIP3    H253646   6.112   2.673   1.437 -0.9547  0.0450  1.8531
10719TIP3   OH253647   2.997   6.571  12.229 -0.0027  0.0519 -0.2744
10719TIP3    H153648   3.093   6.567  12.237  0.0548 -0.6329 -1.2816
10719TIP3    H253649   2.972   6.485  12.197 -0.9271  0.3564 -0.3745
10720TIP3   OH253650   1.030   5.502  13.456  0.3116  0.7221  0.5642
10720TIP3    H153651   1.045   5.442  13.383 -2.7313 -0.0417  0.4900
10720TIP3    H253652   1.037   5.589  13.417  1.8225  0.3785  0.0422
10721TIP3   OH253653   6.289   6.081   1.378 -0.8590  0.1692  0.5813
10721TIP3    H153654   6.301   5.987   1.384 -0.4023  0.2539  1.0562
10721TIP3    H253655   6.374   6.113   1.345 -0.8195  0.4661  0.9637
10722TIP3   OH253656   4.912   5.430  13.631 -0.4025  0.1893 -0.7385
10722TIP3    H153657   4.967   5.375  13.575  1.0586  1.0840 -0.1995
10722TIP3    H253658   4.858   5.367  13.680 -0.0136 -0.6834 -1.4165
10723TIP3   OH253659   4.754   2.439   5.080 -0.0140 -0.0162  0.1798
10723TIP3    H153660   4.732   2.420   4.989  1.2981  2.7294 -0.7635
10723TIP3    H253661   4.669   2.448   5.124 -0.6817  0.3090 -1.1517
10724TIP3   OH253662   3.314   4.939  13.153  0.0628 -0.3003 -0.1648
10724TIP3    H153663   3.278   4.920  13.066  0.9991  2.0958 -1.1420
10724TIP3    H253664   3.250   4.999  13.192  0.4298 -0.1343  0.1766
10725TIP3   OH253665   0.264   5.204   0.422 -0.1182 -0.0126 -0.5180
10725TIP3    H153666   0.313   5.232   0.499 -0.3230 -0.5990 -0.1707
10725TIP3    H253667   0.306   5.121   0.396  0.2700  0.4222 -1.3329
10726TIP3   OH253668   4.085   3.980  16.512  0.0490 -0.1515  0.1213
10726TIP3    H153669   4.016   3.958  16.574 -2.1647  2.8632 -1.1219
10726TIP3    H253670   4.120   4.064  16.543  0.5074  0.2420 -1.3710
10727TIP3   OH253671   6.420   2.360  11.199  0.2171 -0.2528 -0.7956
10727TIP3    H153672   6.442   2.396  11.113  0.3583 -2.1139 -1.5620
10727TIP3    H253673   6.339   2.310  11.184  0.7749 -1.4002 -0.0758
10728TIP3   OH253674   4.170   3.649   5.474  0.0689  0.4012 -0.4057
10728TIP3    H153675   4.228   3.647   5.550 -0.0992  1.3374 -0.2533
10728TIP3    H253676   4.089   3.688   5.507 -0.9295 -1.5974 -0.4249
10729TIP3   OH253677   5.193   4.441  13.295  0.4535  0.2314  0.7735
10729TIP3    H153678   5.130   4.481  13.235  0.2241 -1.3269 -0.0303
10729TIP3    H253679   5.163   4.467  13.382 -0.7467  0.3002  0.3469
10730TIP3   OH253680   5.957   3.164  15.942  0.3802 -0.0381  0.1136
10730TIP3    H153681   5.946   3.076  15.979  1.5365  0.4202  1.5985
10730TIP3    H253682   5.969   3.148  15.848  4.8263 -1.8745  0.8712
10731TIP3   OH253683   3.364   1.936  14.013 -0.5132  0.3320  0.1145
10731TIP3    H153684   3.450   1.905  14.040 -0.2052 -0.6183 -1.8668
10731TIP3    H253685   3.303   1.871  14.049 -0.0402 -1.4001 -2.1154
10732TIP3   OH253686   5.850   6.270   3.059  0.5161 -0.1044  0.5504
10732TIP3    H153687   5.924   6.308   3.012  1.3008  0.6575  2.3913
10732TIP3    H253688   5.878   6.181   3.080  0.7498  0.0558  0.9108
10733TIP3   OH253689   5.917   5.540  16.845 -0.3910 -0.0335 -0.2345
10733TIP3    H153690   5.996   5.515  16.894 -0.1061  1.7512  0.2389
10733TIP3    H253691   5.867   5.459  16.837  1.2251 -1.0661 -0.0428
10734TIP3   OH253692   5.279   5.691  11.388  0.9979  0.0768  0.0958
10734TIP3    H153693   5.307   5.782  11.395  0.1021  0.2920  1.0498
10734TIP3    H253694   5.359   5.643  11.368  1.5541  1.0175  0.0281
10735TIP3   OH253695   6.358   0.918   3.578 -0.0432  0.4969  0.2773
10735TIP3    H153696   6.274   0.955   3.608 -0.3711  0.0393 -0.0668
10735TIP3    H253697   6.415   0.994   3.567 -0.3372  0.7900  0.7597
10736TIP3   OH253698   1.472   1.031  12.328 -0.4771  0.2843 -0.4447
10736TIP3    H153699   1.487   0.942  12.296 -3.5988 -0.9684  1.3644
10736TIP3    H253700   1.514   1.033  12.414  1.2261  1.2053 -1.2701
10737TIP3   OH253701   5.553   2.253   3.950 -0.2172 -0.6276 -0.0222
10737TIP3    H153702   5.500   2.271   4.028 -0.8601 -1.0961 -0.3435
10737TIP3    H253703   5.493   2.207   3.891  0.4684 -0.8924 -0.5136
10738TIP3   OH253704   5.564   0.096   0.319 -0.2054  0.6380  0.2943
10738TIP3    H153705   5.654   0.118   0.343 -0.7799  1.9530  1.2879
10738TIP3    H253706   5.564   0.000   0.312  0.6533  0.3981  2.9808
10739TIP3   OH253707   4.543   0.293   5.030  0.1185 -0.4949  0.4039
10739TIP3    H153708   4.531   0.352   4.956  1.1970 -0.1504  0.5014
10739TIP3    H253709   4.543   0.352   5.106  0.1039 -0.7376  0.5898
10740TIP3   OH253710   0.672   4.544  15.460  0.6458 -1.0429  0.3951
10740TIP3    H153711   0.669   4.639  15.449 -1.4602 -0.8552  2.3573
10740TIP3    H253712   0.765   4.523  15.463  1.1364  0.8251 -0.9775
10741TIP3   OH253713   6.810   6.349  11.523  0.9019  0.2256 -0.0749
10741TIP3    H153714   6.780   6.274  11.574 -0.0756  1.7075  1.6127
10741TIP3    H253715   6.905   6.346  11.528  0.8185  0.3383  1.8641
10742TIP3   OH253716   5.741   2.869   2.522  0.5025 -0.1631  0.1327
10742TIP3    H153717   5.831   2.891   2.545  1.1603 -2.9764  0.4587
10742TIP3    H253718   5.691   2.887   2.602  0.4421  2.9377 -0.5409
10743TIP3   OH253719   6.461   2.836   2.029 -0.7911 -0.4671  0.9240
10743TIP3    H153720   6.473   2.795   2.114  0.2208 -0.6171  0.7129
10743TIP3    H253721   6.542   2.818   1.982 -0.6908  1.0091  0.5052
10744TIP3   OH253722   4.106   3.483   6.478  0.5574  0.8209 -0.2651
10744TIP3    H153723   4.078   3.568   6.513 -1.4215  0.9458 -1.9745
10744TIP3    H253724   4.025   3.445   6.443  1.9343 -0.5115 -2.0692
10745TIP3   OH253725   6.489   2.554   4.066  0.1544  0.1012 -0.1012
10745TIP3    H153726   6.442   2.476   4.094  2.3527 -1.2935 -0.1514
10745TIP3    H253727   6.436   2.627   4.099 -1.8576 -1.3824  0.0780
10746TIP3   OH253728   2.188   6.094  16.594  0.4087 -0.6660  0.1391
10746TIP3    H153729   2.267   6.147  16.600  0.9907 -1.6326  1.2134
10746TIP3    H253730   2.170   6.067  16.685 -0.2516 -1.7404 -0.2999
10747TIP3   OH253731   6.163   1.655   2.936  0.5387  0.3109  0.0628
10747TIP3    H153732   6.139   1.599   2.862  3.3281  0.0462 -0.6904
10747TIP3    H253733   6.204   1.731   2.896 -0.9791  1.7717  1.2132
10748TIP3   OH253734   0.230   2.958   0.521  0.3974 -0.2597  0.8938
10748TIP3    H153735   0.170   2.895   0.482  0.6804 -0.9287  1.5313
10748TIP3    H253736   0.312   2.911   0.530  1.3675  0.9951 -1.0303
10749TIP3   OH253737   6.504   1.711   0.529 -0.3150  0.0565  0.3742
10749TIP3    H153738   6.582   1.657   0.517  0.1346  0.9673 -0.9309
10749TIP3    H253739   6.495   1.758   0.446 -2.6006 -0.5007  0.2596
10750TIP3   OH253740   1.221   2.065   4.499 -0.0942  0.2698 -0.0130
10750TIP3    H153741   1.178   1.979   4.505  0.3746  0.1342  1.7452
10750TIP3    H253742   1.287   2.054   4.431 -2.1253  0.1754 -2.0125
10751TIP3   OH253743   0.080   1.205  14.040 -0.0457  0.0592  0.2537
10751TIP3    H153744   0.071   1.139  13.971  2.0186  0.9623 -0.9579
10751TIP3    H253745  -0.002   1.202  14.088 -1.9088  0.0290 -2.8136
10752TIP3   OH253746   0.066   5.957   3.849 -0.2184  0.2618 -0.8758
10752TIP3    H153747   0.069   5.954   3.944 -0.3624 -0.9726 -0.9020
10752TIP3    H253748   0.153   5.928   3.821 -1.2782 -2.9243 -1.1422
10753TIP3   OH253749   3.510   6.160  14.970 -0.8826 -0.6534 -0.7069
10753TIP3    H153750   3.507   6.075  15.012  0.9796 -0.3992 -0.0455
10753TIP3    H253751   3.566   6.148  14.893 -3.2519 -0.8080 -2.4918
10754TIP3   OH253752   6.402   4.310  12.401 -0.4458 -0.4241  0.3477
10754TIP3    H153753   6.379   4.250  12.473 -0.4210  1.4408  1.9629
10754TIP3    H253754   6.395   4.256  12.322  0.0999 -2.6895  1.7878
10755TIP3   OH253755   2.050   6.316   3.339 -0.1704  0.2513  0.2409
10755TIP3    H153756   2.011   6.402   3.357  1.3065  0.8832  0.4421
10755TIP3    H253757   2.129   6.314   3.393  0.6622 -0.5867 -1.0139
10756TIP3   OH253758   3.351   4.449   1.005 -0.3746 -0.8451 -0.2912
10756TIP3    H153759   3.321   4.440   0.915 -1.3644  3.3659 -0.5158
10756TIP3    H253760   3.278   4.490   1.051  1.2636  0.0154  1.6631
10757TIP3   OH253761   1.732   5.102  15.140  0.2748 -0.0515 -0.3778
10757TIP3    H153762   1.797   5.169  15.118  1.3266 -1.4812 -1.7276
10757TIP3    H253763   1.775   5.049  15.207 -0.5834  0.6216  0.7365
10758TIP3   OH253764   0.577   3.832  13.747 -0.2795  0.2386 -0.4414
10758TIP3    H153765   0.601   3.882  13.668 -0.7289 -0.9495 -1.3435
10758TIP3    H253766   0.541   3.750  13.713 -1.4522  0.1466  0.9901
10759TIP3   OH253767   0.233   0.965  14.934  0.0858 -0.1800  0.0667
10759TIP3    H153768   0.266   0.985  14.846  1.9307 -2.2659  0.2358
10759TIP3    H253769   0.139   0.955  14.923  0.0648  1.3391 -1.3228
10760TIP3   OH253770   0.255   5.102   4.475 -0.9732 -0.0133  0.1108
10760TIP3    H153771   0.271   5.061   4.560 -0.6121  0.3853  0.2361
10760TIP3    H253772   0.338   5.143   4.451 -0.4053 -1.9727 -1.4686
10761TIP3   OH253773   3.078   5.059  16.595 -0.0055  0.1788  0.1652
10761TIP3    H153774   3.071   5.127  16.528  1.6244  1.4779  1.2578
10761TIP3    H253775   3.096   4.979  16.547  0.0434  0.8884 -1.0083
10762TIP3   OH253776   1.445   3.877  15.361  0.1341 -0.2812 -0.0137
10762TIP3    H153777   1.457   3.804  15.423  0.0921  0.3192  0.7081
10762TIP3    H253778   1.479   3.843  15.278 -1.8709 -1.9083 -0.2270
10763TIP3   OH253779   6.653   0.444   5.838  0.3051 -0.1017  0.0301
10763TIP3    H153780   6.604   0.366   5.813  1.9625 -1.1301 -0.1247
10763TIP3    H253781   6.697   0.472   5.757 -0.6369  1.2715 -0.0239
10764TIP3   OH253782   6.015   1.755  15.019  0.1781 -0.5405  0.4753
10764TIP3    H153783   6.103   1.719  15.020  0.1087 -0.6993  0.8675
10764TIP3    H253784   6.015   1.816  14.946  0.3646 -1.1568 -0.0374
10765TIP3   OH253785   5.148   3.498   1.930 -0.3803 -0.2303 -0.0514
10765TIP3    H153786   5.182   3.437   1.996  1.0174  1.3783  0.7766
10765TIP3    H253787   5.196   3.476   1.851  0.5840  0.1968  0.4057
10766TIP3   OH253788   3.260   0.652   3.630  0.0031 -0.0224 -0.0667
10766TIP3    H153789   3.264   0.600   3.550  0.8470  0.5233 -0.3754
10766TIP3    H253790   3.345   0.639   3.672 -0.0940  0.4292  0.2768
10767TIP3   OH253791   5.561   2.180  13.764 -0.0442 -0.1789  0.4185
10767TIP3    H153792   5.603   2.174  13.678 -0.0564 -0.9082  0.4591
10767TIP3    H253793   5.469   2.159  13.747  0.2674 -2.0115  0.8603
10768TIP3   OH253794   2.896   3.076  11.795 -0.3043  0.0041  0.9058
10768TIP3    H153795   2.814   3.030  11.813 -0.3240 -0.2264  0.2309
10768TIP3    H253796   2.955   3.008  11.761 -0.4207  0.5111 -0.3443
10769TIP3   OH253797   6.039   0.880   3.667  0.3369  0.0379  0.6761
10769TIP3    H153798   6.107   0.815   3.684  0.3276  0.4895  2.5204
10769TIP3    H253799   5.969   0.859   3.729 -0.3474  0.8312  0.1932
10770TIP3   OH253800   5.021   2.330   6.102 -0.0480 -0.2043 -0.5701
10770TIP3    H153801   5.037   2.263   6.036  1.2582 -0.0379 -0.4523
10770TIP3    H253802   5.109   2.353   6.134 -0.6157  0.2158  0.7173
10771TIP3   OH253803   4.701   5.457   2.601  0.0386 -0.0522 -0.5372
10771TIP3    H153804   4.751   5.486   2.525 -0.2373  1.7172 -0.0660
10771TIP3    H253805   4.616   5.499   2.591 -0.2167 -0.3273  0.4198
10772TIP3   OH253806   1.796   3.381   4.110  0.0825 -0.0408  0.4617
10772TIP3    H153807   1.708   3.382   4.071 -0.2935 -0.3850  1.2923
10772TIP3    H253808   1.821   3.289   4.110 -0.4428 -0.2038  2.1838
10773TIP3   OH253809   0.194   0.176   1.903  0.1178  0.8350  0.4773
10773TIP3    H153810   0.227   0.263   1.925  2.1746  0.2365 -0.1796
10773TIP3    H253811   0.195   0.128   1.986  0.1009  1.0588  0.6083
10774TIP3   OH253812   6.645   0.170  11.751 -0.4410  0.1339  0.2532
10774TIP3    H153813   6.608   0.206  11.832  0.8499  1.1964  0.3747
10774TIP3    H253814   6.678   0.246  11.703 -1.6151 -0.4282 -1.5166
10775TIP3   OH253815   2.604   4.534  17.004  0.3222 -0.5847  0.2110
10775TIP3    H153816   2.535   4.560  16.943  0.8833  0.8384  0.1652
10775TIP3    H253817   2.566   4.548  17.091  0.4950  0.0551  0.1866
10776TIP3   OH253818   2.451   1.267  14.596 -0.4329  0.2390 -0.3247
10776TIP3    H153819   2.377   1.293  14.540  0.4083 -0.1504 -1.6357
10776TIP3    H253820   2.513   1.226  14.536  1.5154  1.8751  0.5347
10777TIP3   OH253821   6.146   6.302  11.294  0.2514  0.1671  0.0659
10777TIP3    H153822   6.225   6.345  11.329  1.0971  0.3968 -2.0192
10777TIP3    H253823   6.073   6.351  11.332  1.1418  0.6421  1.1827
10778TIP3   OH253824   5.887   4.650   1.457 -0.1619  0.2268  0.7363
10778TIP3    H153825   5.944   4.711   1.409 -0.8974  0.3288 -0.0091
10778TIP3    H253826   5.946   4.581   1.486  0.4459  0.6094  0.4330
10779TIP3   OH253827   4.377   4.496   0.074 -0.1167  0.2468  0.4219
10779TIP3    H153828   4.355   4.478   0.165 -0.8565  0.0013  0.1938
10779TIP3    H253829   4.467   4.528   0.077  0.1302 -0.5042  1.1586
10780TIP3   OH253830   1.406   4.813  11.050 -0.2306 -0.2454 -0.0137
10780TIP3    H153831   1.333   4.785  10.995  0.7260  1.6696 -2.3499
10780TIP3    H253832   1.481   4.817  10.991  0.9751  1.2735  1.5503
10781TIP3   OH253833   1.073   4.391  17.051 -0.2892  0.2709  0.3257
10781TIP3    H153834   1.018   4.422  17.123  2.9350  2.9541  1.7658
10781TIP3    H253835   1.083   4.467  16.994  2.3043 -0.0245  0.3497
10782TIP3   OH253836   6.637   3.941  13.329 -0.0241  0.4900  0.2732
10782TIP3    H153837   6.566   3.896  13.282  0.5990 -0.1431 -0.0629
10782TIP3    H253838   6.645   3.892  13.411 -0.2982  0.8592  0.5236
10783TIP3   OH253839   2.111   1.499   5.491  0.0817  0.3826 -0.1114
10783TIP3    H153840   2.043   1.444   5.530  1.0810 -0.6762  0.1845
10783TIP3    H253841   2.086   1.507   5.399 -0.8875  0.6938  0.1777
10784TIP3   OH253842   1.702   4.213  12.405  0.6710 -0.0496 -0.1377
10784TIP3    H153843   1.655   4.286  12.445  0.3294 -0.3004 -0.0879
10784TIP3    H253844   1.748   4.252  12.330 -1.2610 -0.1933 -1.4349
10785TIP3   OH253845   2.469   2.514   0.664  0.2571 -0.1165  0.7940
10785TIP3    H153846   2.420   2.455   0.721  0.6546 -0.2178  1.0349
10785TIP3    H253847   2.440   2.602   0.690 -1.0336 -0.2380 -0.2119
10786TIP3   OH253848   5.491   0.701   2.335 -0.4699 -0.1415 -0.2793
10786TIP3    H153849   5.534   0.618   2.316  3.1281  0.8581  2.8296
10786TIP3    H253850   5.510   0.756   2.259  0.7008 -0.8665 -0.5290
10787TIP3   OH253851   2.035   6.269  15.107 -0.1635  0.5202  0.3282
10787TIP3    H153852   2.027   6.340  15.043 -1.1482 -0.8826 -1.1425
10787TIP3    H253853   1.949   6.264  15.149 -0.3056 -0.2148 -0.0354
10788TIP3   OH253854   2.531   0.540   5.075  0.2307  0.0969  0.3735
10788TIP3    H153855   2.469   0.484   5.028  0.1461  0.0683  0.5176
10788TIP3    H253856   2.543   0.497   5.159  0.4564  0.0978  0.3405
10789TIP3   OH253857   5.510   3.615  12.634 -0.7921 -0.4205  0.3418
10789TIP3    H153858   5.492   3.602  12.727  1.6756  1.0926  1.0783
10789TIP3    H253859   5.602   3.591  12.623 -0.6926  0.6429 -1.4563
10790TIP3   OH253860   5.899   0.042  13.342 -0.5548  0.1357  0.3341
10790TIP3    H153861   5.943  -0.042  13.359 -0.5174  0.1032  0.0913
10790TIP3    H253862   5.908   0.091  13.423  0.6887  0.4658  0.0047
10791TIP3   OH253863   2.176   4.543  11.314 -0.4203 -0.2993 -0.0802
10791TIP3    H153864   2.252   4.490  11.335  0.0250  1.2441  2.4664
10791TIP3    H253865   2.208   4.607  11.250  0.4642  0.3174  0.9462
10792TIP3   OH253866   1.566   1.335  10.822  0.4282  0.0311  0.3789
10792TIP3    H153867   1.598   1.245  10.826  2.4975  0.7226 -0.2211
10792TIP3    H253868   1.517   1.346  10.904 -0.3406 -1.7891  0.2106
10793TIP3   OH253869   4.141   2.192   5.734  0.3462  0.7919  0.3033
10793TIP3    H153870   4.094   2.253   5.790 -2.7773  0.5352 -1.9660
10793TIP3    H253871   4.191   2.248   5.674  1.1441  1.0773  1.2275
10794TIP3   OH253872   4.760   5.436  12.496 -0.3401 -0.2405 -0.1576
10794TIP3    H153873   4.682   5.487  12.516 -0.9461 -0.7205 -1.2588
10794TIP3    H253874   4.756   5.362  12.556  0.5367  0.9740  1.4318
10795TIP3   OH253875   5.639   0.828   4.541  0.2120  0.2118 -0.5268
10795TIP3    H153876   5.630   0.865   4.629  0.3674 -1.9117  0.4167
10795TIP3    H253877   5.564   0.769   4.533  0.1990  0.4035 -1.8401
10796TIP3   OH253878   4.728   4.362   3.314 -0.2870  0.1481  0.0977
10796TIP3    H153879   4.664   4.374   3.244  0.1289 -0.5352 -0.4041
10796TIP3    H253880   4.808   4.335   3.270 -0.1087 -0.5927  0.8576
10797TIP3   OH253881   0.205   2.581   1.512  0.0262  0.4988 -0.3725
10797TIP3    H153882   0.143   2.510   1.527 -0.3638  0.7071 -0.9793
10797TIP3    H253883   0.152   2.661   1.518  0.5911  0.7809  1.0175
10798TIP3   OH253884   0.593   6.178   0.251  0.3431 -0.6304  0.6349
10798TIP3    H153885   0.500   6.166   0.268  0.2133 -0.5336 -0.0169
10798TIP3    H253886   0.601   6.268   0.220  0.9350  0.0699  2.7122
10799TIP3   OH253887   2.122   3.265   0.346  0.4762  0.1410  0.3104
10799TIP3    H153888   2.161   3.343   0.306  0.6651 -0.4913 -0.7293
10799TIP3    H253889   2.131   3.197   0.280 -0.3090 -0.5949  0.9646
10800TIP3   OH253890   3.564   0.173   4.696 -0.0593  0.3030 -0.3001
10800TIP3    H153891   3.643   0.210   4.658 -0.6216  1.5938 -0.2376
10800TIP3    H253892   3.516   0.249   4.731 -1.7173 -0.3536 -1.0887
10801TIP3   OH253893   4.652   1.569  15.611 -0.5711 -0.2652 -0.6543
10801TIP3    H153894   4.656   1.476  15.631  0.4898 -0.1174 -0.1105
10801TIP3    H253895   4.717   1.581  15.541  0.5301  0.3357  0.4426
10802TIP3   OH253896   4.441   5.242   2.194 -0.4252 -0.4487 -0.0211
10802TIP3    H153897   4.404   5.269   2.110 -1.1301  0.8496  0.6852
10802TIP3    H253898   4.377   5.272   2.259 -0.2774 -2.1296  0.9397
10803TIP3   OH253899   5.466   0.657  15.313  0.4631  0.1958  0.1779
10803TIP3    H153900   5.380   0.640  15.350 -0.1010  0.1632 -1.1148
10803TIP3    H253901   5.513   0.705  15.381 -0.7758  0.7179  0.6732
10804TIP3   OH253902   1.350   5.338  12.155  0.0537 -0.0444 -0.4075
10804TIP3    H153903   1.278   5.392  12.188  0.3291 -0.3504  0.7219
10804TIP3    H253904   1.321   5.248  12.171  0.3736 -0.1814 -0.6098
10805TIP3   OH253905   4.232   6.393  14.046  0.1588  0.2749  0.0850
10805TIP3    H153906   4.137   6.382  14.050  0.1353  0.6346  0.6470
10805TIP3    H253907   4.259   6.397  14.138  0.4905  1.9876 -0.0674
10806TIP3   OH253908   4.022   6.805  12.468  0.4062  0.0813  0.3668
10806TIP3    H153909   4.027   6.897  12.494 -0.0903  0.0523  0.5764
10806TIP3    H253910   3.987   6.761  12.546 -2.2257  0.1718 -0.7042
10807TIP3   OH253911   4.642   1.202   1.947  0.2016  0.2315  0.0360
10807TIP3    H153912   4.596   1.142   2.005 -0.8670 -0.2416 -1.2756
10807TIP3    H253913   4.726   1.218   1.990 -0.1135 -1.0177  1.1335
10808TIP3   OH253914   5.265   6.005   1.619  0.2709  0.2317 -0.4203
10808TIP3    H153915   5.253   6.055   1.539  1.9891  0.8937 -0.2760
10808TIP3    H253916   5.353   5.968   1.612  1.3804  2.2461  2.1980
10809TIP3   OH253917   2.237   6.004   4.670  0.2652  0.3940 -0.4700
10809TIP3    H153918   2.330   6.002   4.693  0.4324 -2.7209 -1.3284
10809TIP3    H253919   2.192   5.975   4.750  0.1549 -0.2321 -0.7644
10810TIP3   OH253920   4.504   4.230   2.618  0.1566  0.5014  0.3448
10810TIP3    H153921   4.490   4.135   2.624 -0.8188  0.4796 -1.9303
10810TIP3    H253922   4.520   4.246   2.525  0.3705  2.5755  0.7171
10811TIP3   OH253923   5.934   0.903  10.966  0.0927 -0.4278  0.0848
10811TIP3    H153924   5.872   0.875  10.898  3.0613 -2.1352 -2.0670
10811TIP3    H253925   5.947   0.825  11.019 -2.0413  0.8480  2.5834
10812TIP3   OH253926   3.298   0.903   2.636  0.2491 -0.0357  0.0250
10812TIP3    H153927   3.205   0.889   2.623  0.4229 -0.3216 -0.9055
10812TIP3    H253928   3.314   0.990   2.599  0.0323  0.7768  1.7499
10813TIP3   OH253929   5.638   1.415  15.431  0.2085 -0.1758  0.2736
10813TIP3    H153930   5.588   1.385  15.507 -0.3095 -1.8826 -0.7167
10813TIP3    H253931   5.576   1.467  15.380  0.5951  1.0848  1.0750
10814TIP3   OH253932   4.441   2.056   4.287 -0.1004 -0.3642 -0.0704
10814TIP3    H153933   4.408   1.995   4.221  0.0310  0.3760 -0.8300
10814TIP3    H253934   4.387   2.040   4.365 -0.8744 -0.5891 -0.6531
10815TIP3   OH253935   4.451   5.327  15.789  0.1905  0.0115 -0.4763
10815TIP3    H153936   4.502   5.331  15.869 -1.1073  0.1994  0.3621
10815TIP3    H253937   4.483   5.399  15.735  1.2736 -0.3043 -0.2537
10816TIP3   OH253938   1.619   6.349  14.362  0.1945  0.1915  0.4131
10816TIP3    H153939   1.665   6.352  14.278 -1.1468 -2.8299 -0.4874
10816TIP3    H253940   1.540   6.401  14.348 -0.5142 -1.1220 -0.5347
10817TIP3   OH253941   3.538   1.164   4.254 -0.0042 -0.3014 -0.2575
10817TIP3    H153942   3.471   1.114   4.206 -1.5426  1.7009 -0.2710
10817TIP3    H253943   3.614   1.163   4.196 -0.6176 -1.1154 -1.0667
10818TIP3   OH253944   3.250   4.313   3.844  0.2529  0.9719 -0.2088
10818TIP3    H153945   3.333   4.267   3.830  0.8150  1.7623  0.5137
10818TIP3    H253946   3.236   4.309   3.939 -1.0147  0.0284 -0.4170
10819TIP3   OH253947   4.302   4.343   3.000 -0.1162  0.1154  0.5130
10819TIP3    H153948   4.229   4.368   3.056  1.4064  1.0847  2.1204
10819TIP3    H253949   4.281   4.253   2.972 -2.1354  0.5629  0.5294
10820TIP3   OH253950   5.097   2.391  15.263 -0.0950 -0.1661 -0.1354
10820TIP3    H153951   5.117   2.432  15.179  1.6083 -0.8948 -0.1031
10820TIP3    H253952   5.138   2.447  15.328  1.5439 -1.4304 -0.0371
10821TIP3   OH253953   4.755   4.958  13.042 -0.5017 -0.4587  0.0527
10821TIP3    H153954   4.718   4.974  12.955  0.6503 -3.0351 -0.9559
10821TIP3    H253955   4.679   4.959  13.101 -1.5255 -0.5756 -1.2464
10822TIP3   OH253956   5.521   5.089  14.523  0.1447 -0.2575 -0.0208
10822TIP3    H153957   5.569   5.023  14.474 -0.6037 -1.6258  1.0359
10822TIP3    H253958   5.549   5.077  14.614 -1.1312 -0.1711  0.4035
10823TIP3   OH253959   4.521   3.835  13.256  0.6688 -0.3426 -0.5891
10823TIP3    H153960   4.517   3.808  13.164 -0.7231  0.1992 -0.6979
10823TIP3    H253961   4.614   3.847  13.273  1.0173 -1.3988 -1.6480
10824TIP3   OH253962   5.502   5.893   6.019 -0.8239 -0.0658  0.2573
10824TIP3    H153963   5.517   5.875   6.112 -0.9838  0.5957  0.4125
10824TIP3    H253964   5.525   5.985   6.008 -0.4913 -0.2244 -0.4315
10825TIP3   OH253965   2.010   4.769   1.679  0.0064  0.0221 -0.1876
10825TIP3    H153966   2.080   4.807   1.626  0.4030 -0.1773  0.1913
10825TIP3    H253967   2.047   4.763   1.767 -0.9089  1.0740  0.2793
10826TIP3   OH253968   4.986   6.332   4.773 -0.4767  0.6153 -0.0195
10826TIP3    H153969   5.042   6.409   4.780  0.6659  0.1061 -2.8824
10826TIP3    H253970   4.955   6.333   4.682 -0.3149 -2.3572 -0.1671
10827TIP3   OH253971   0.063   0.514   1.788 -0.0268 -0.7712  0.2363
10827TIP3    H153972  -0.028   0.542   1.794  0.3335  0.1378  1.6124
10827TIP3    H253973   0.102   0.573   1.723  0.2360  0.6530  1.6556
10828TIP3   OH253974   4.319   0.564   2.314 -0.2244 -0.7145  0.5531
10828TIP3    H153975   4.279   0.648   2.294 -0.3734 -0.8370  0.3431
10828TIP3    H253976   4.405   0.568   2.272 -0.8369 -1.2740 -0.7625
10829TIP3   OH253977   5.404   6.244  13.618  0.2111  0.4088  0.0870
10829TIP3    H153978   5.400   6.183  13.545  1.8731  1.4495 -0.9225
10829TIP3    H253979   5.419   6.189  13.695 -0.2397 -0.5996 -0.5384
10830TIP3   OH253980   6.167   5.704  13.102  0.5661  0.1488  0.5387
10830TIP3    H153981   6.138   5.625  13.057  0.9689 -0.9606  2.1873
10830TIP3    H253982   6.224   5.748  13.039  0.7110 -1.1151 -0.2164
10831TIP3   OH253983   6.738   2.737   0.878  0.2217  0.2643 -0.1022
10831TIP3    H153984   6.703   2.818   0.915  0.0546  0.3108 -0.3611
10831TIP3    H253985   6.664   2.676   0.878  0.6466 -0.2760  1.2071
10832TIP3   OH253986   6.583   2.207   5.597  0.0941  0.3732  0.3962
10832TIP3    H153987   6.643   2.280   5.615  0.8404 -0.0950 -0.1118
10832TIP3    H253988   6.558   2.219   5.506  0.6803 -0.3097  0.1299
10833TIP3   OH253989   6.179   5.198  15.345  0.2282 -0.4208  0.4703
10833TIP3    H153990   6.224   5.275  15.380 -2.1172  1.7043 -0.9871
10833TIP3    H253991   6.148   5.152  15.423  0.6484  0.7636  1.3661
10834TIP3   OH253992   3.932   1.785   1.557  0.5145  0.8934  0.8573
10834TIP3    H153993   3.859   1.749   1.506 -0.6041  0.3144  2.8147
10834TIP3    H253994   4.009   1.738   1.525 -0.1993  0.3616 -0.1119
10835TIP3   OH253995   3.801   3.698  13.389  0.4939 -0.1426  0.1333
10835TIP3    H153996   3.839   3.637  13.326 -0.8281 -0.9325  0.0761
10835TIP3    H253997   3.833   3.784  13.362  0.3885 -0.5428 -1.2942
10836TIP3   OH253998   4.013   6.805   2.331 -0.3598  0.5836  0.2891
10836TIP3    H153999   4.006   6.838   2.241 -0.2272  0.7316  0.3355
10836TIP3    H254000   4.050   6.877   2.381  0.8151  0.0506  0.2067
10837TIP3   OH254001   2.545   5.760   3.725  0.2133 -0.1566  0.1300
10837TIP3    H154002   2.559   5.704   3.649 -0.7024  1.4793 -1.2835
10837TIP3    H254003   2.633   5.787   3.752  0.4805  0.3171 -1.1740
10838TIP3   OH254004   4.073   4.488  16.395 -0.4016 -0.7032 -0.3184
10838TIP3    H154005   4.014   4.558  16.367 -0.6826 -1.1209 -0.7976
10838TIP3    H254006   4.156   4.531  16.411 -1.3387  0.2195  2.2824
10839TIP3   OH254007   2.940   6.500  14.060 -0.3515 -0.4501 -0.3503
10839TIP3    H154008   2.876   6.519  13.992 -1.6759 -1.6692  0.5324
10839TIP3    H254009   2.928   6.569  14.125  0.5695  0.4213 -1.0729
10840TIP3   OH254010   4.398   6.189   0.216 -0.8413  0.6786 -0.2405
10840TIP3    H154011   4.322   6.246   0.232 -0.0317  2.0742 -1.2569
10840TIP3    H254012   4.366   6.123   0.155 -1.0682  1.7095 -1.2632
10841TIP3   OH254013   2.772   2.608   0.820 -0.0880  0.2024  0.4632
10841TIP3    H154014   2.818   2.675   0.871  0.2529  0.4032 -0.1053
10841TIP3    H254015   2.758   2.648   0.734  1.8710 -1.1478 -0.5176
10842TIP3   OH254016   0.002   3.219  15.297  0.0430 -0.2234  0.3359
10842TIP3    H154017  -0.050   3.291  15.331  3.3973  1.6683  1.6481
10842TIP3    H254018   0.043   3.254  15.218  1.3246 -0.8165  0.7199
10843TIP3   OH254019   4.914   5.710   0.931  0.2875  0.0184  0.6109
10843TIP3    H154020   4.899   5.792   0.977 -0.5555 -0.2015  0.7265
10843TIP3    H254021   5.003   5.718   0.897  0.9910  0.1190  2.4094
10844TIP3   OH254022   4.641   2.080   2.402  0.5418  0.2097 -0.0922
10844TIP3    H154023   4.711   2.113   2.346  1.2777 -0.3618  0.4782
10844TIP3    H254024   4.604   2.005   2.354  0.4581  0.3798 -0.2946
10845TIP3   OH254025   1.672   1.084   5.166  0.3006 -0.3179 -0.1141
10845TIP3    H154026   1.612   1.158   5.171  0.2648 -0.4281  1.2175
10845TIP3    H254027   1.615   1.007   5.165  0.2950 -0.3130 -2.5690
10846TIP3   OH254028   5.261   0.949  14.890 -0.2102  0.0780  0.1476
10846TIP3    H154029   5.286   0.966  14.981  2.9967 -1.9619 -0.2579
10846TIP3    H254030   5.201   0.875  14.895 -0.7241  0.5311  0.6712
10847TIP3   OH254031   1.486   5.552   4.705  0.6044  0.0858 -0.0429
10847TIP3    H154032   1.544   5.609   4.654  1.7683 -0.4622  0.6431
10847TIP3    H254033   1.531   5.468   4.708 -0.0745 -0.2624  0.7824
10848TIP3   OH254034   1.901   3.022  14.367  0.0018  0.3527 -0.1876
10848TIP3    H154035   1.994   3.030  14.388 -0.2622 -1.3522  1.8353
10848TIP3    H254036   1.898   2.955  14.299  0.2583  0.6404 -0.4876
10849TIP3   OH254037   3.260   3.568  11.009  0.6421 -0.0704 -0.2954
10849TIP3    H154038   3.188   3.509  11.033 -0.2429  1.6960  1.5403
10849TIP3    H254039   3.265   3.562  10.913 -1.4997 -0.7719 -0.3916
10850TIP3   OH254040   5.701   6.276   3.302 -0.1220 -0.4388 -0.2048
10850TIP3    H154041   5.740   6.295   3.217 -1.3113 -0.0836 -0.6929
10850TIP3    H254042   5.738   6.193   3.329  1.6654  0.3433 -0.2145
10851TIP3   OH254043   4.902   2.794   5.967  0.2206 -0.2110 -0.0342
10851TIP3    H154044   4.903   2.710   6.012  1.6235 -0.2365 -0.1114
10851TIP3    H254045   4.973   2.789   5.904 -0.7347  0.4167 -1.1840
10852TIP3   OH254046   4.756   4.064   0.661  0.0538  0.4199 -0.4364
10852TIP3    H154047   4.773   4.123   0.734  0.3755 -0.2392  0.0340
10852TIP3    H254048   4.808   3.986   0.681  0.1231  0.2188 -1.3570
10853TIP3   OH254049   6.714   6.429   5.767  0.0070  0.1261  0.3483
10853TIP3    H154050   6.757   6.419   5.682 -0.5219 -0.9869  0.2053
10853TIP3    H254051   6.756   6.364   5.823 -1.6482 -1.1858  0.1270
10854TIP3   OH254052   4.000   3.237  17.184 -0.5137  0.4713  0.0408
10854TIP3    H154053   3.958   3.161  17.144 -0.7416  0.6255 -0.0108
10854TIP3    H254054   4.086   3.242  17.142  0.8646 -1.7592  2.4210
10855TIP3   OH254055   3.498   2.051   5.669  0.5303 -0.0455  0.3472
10855TIP3    H154056   3.411   2.080   5.695  1.5244  1.0992  2.4187
10855TIP3    H254057   3.481   1.985   5.601 -1.8839  1.3146 -0.4264
10856TIP3   OH254058   6.222   4.108   3.846  0.1210 -0.2217 -0.1686
10856TIP3    H154059   6.200   4.058   3.767  0.4514 -2.3933  1.0814
10856TIP3    H254060   6.144   4.162   3.862  0.1130  0.3421 -2.0541
10857TIP3   OH254061   6.498   0.910  16.884  0.5966 -0.0578  0.1926
10857TIP3    H154062   6.558   0.982  16.903  1.3703 -0.6342 -0.0830
10857TIP3    H254063   6.532   0.835  16.933  0.7459 -0.6846 -0.8520
10858TIP3   OH254064   3.362   4.059   2.031 -0.1582 -0.2244 -0.4529
10858TIP3    H154065   3.449   4.095   2.047  0.2467 -0.5905 -1.7347
10858TIP3    H254066   3.302   4.134   2.037  0.7386  0.8502 -3.7476
10859TIP3   OH254067   2.615   6.771   4.906 -0.4766  0.3981  0.2264
10859TIP3    H154068   2.588   6.710   4.975 -0.1377 -2.3218 -1.9136
10859TIP3    H254069   2.537   6.785   4.854  0.2698 -1.1856 -1.3947
10860TIP3   OH254070   3.246   3.610  11.572 -0.2616 -0.0218 -0.1513
10860TIP3    H154071   3.297   3.603  11.492 -0.4617  1.6427 -0.4550
10860TIP3    H254072   3.301   3.571  11.640 -0.0427 -1.3300 -1.0649
10861TIP3   OH254073   5.040   4.936  12.564 -0.2845 -0.4176 -0.3490
10861TIP3    H154074   5.082   4.995  12.626 -1.0780  0.0146 -0.2163
10861TIP3    H254075   4.995   4.994  12.503 -1.3244 -0.8932 -0.0365
10862TIP3   OH254076   4.564   6.174  14.921 -0.3282 -0.0588  0.2193
10862TIP3    H154077   4.593   6.226  14.846  0.2563 -0.7232 -0.0240
10862TIP3    H254078   4.560   6.084  14.888  0.2471 -0.4025  1.0660
10863TIP3   OH254079   2.932   0.119  16.967  0.3797  0.2864 -0.2660
10863TIP3    H154080   3.022   0.087  16.960  0.5311  0.4787  0.7546
10863TIP3    H254081   2.933   0.176  17.044 -0.9187 -0.7324  0.5131
10864TIP3   OH254082   4.592   4.052  16.813 -0.6027  0.1407 -0.7561
10864TIP3    H154083   4.670   4.029  16.863 -1.7896  1.0096  1.6025
10864TIP3    H254084   4.604   4.144  16.791 -0.9424  0.2725 -0.4001
10865TIP3   OH254085   1.834   5.001  11.454  0.2333 -0.0608  0.2921
10865TIP3    H154086   1.919   5.041  11.470 -0.1008  0.7038  0.1805
10865TIP3    H254087   1.792   5.058  11.390  0.6127 -1.7828 -1.5431
10866TIP3   OH254088   5.483   0.673   3.655 -0.0368  0.1492  0.4409
10866TIP3    H154089   5.439   0.758   3.654  2.0187  1.2558 -0.2752
10866TIP3    H254090   5.454   0.632   3.736 -3.2198  0.3375 -0.5298
10867TIP3   OH254091   4.148   6.076  14.111 -0.3192  0.2384  0.5856
10867TIP3    H154092   4.084   6.026  14.163 -0.2135  0.7310  1.1910
10867TIP3    H254093   4.201   6.122  14.176  0.5876 -0.0834  0.0816
10868TIP3   OH254094   1.822   6.130   1.152  0.0527  0.3580  0.4397
10868TIP3    H154095   1.895   6.109   1.095  1.3888 -1.9185  2.8726
10868TIP3    H254096   1.781   6.045   1.171 -1.9752  1.3710  0.7539
10869TIP3   OH254097   1.362   4.013   5.818  0.1297  0.1519 -0.4323
10869TIP3    H154098   1.279   3.968   5.830  0.9362 -1.3484 -0.4188
10869TIP3    H254099   1.385   3.998   5.726  0.7016  0.0314 -0.2704
10870TIP3   OH254100   6.305   3.776  14.650 -0.0671  0.4287 -0.3800
10870TIP3    H154101   6.336   3.841  14.713 -0.3263 -0.9332  1.1826
10870TIP3    H254102   6.230   3.735  14.692  0.2304 -1.0464 -1.2495
10871TIP3   OH254103   4.422   6.010   0.489 -0.2525  0.1077  0.7372
10871TIP3    H154104   4.447   6.030   0.579 -1.8337 -1.0024  1.4439
10871TIP3    H254105   4.387   6.092   0.455  0.2285  0.4979  1.1779
10872TIP3   OH254106   1.376   2.731   1.562  0.0345 -0.4451 -0.2139
10872TIP3    H154107   1.359   2.677   1.640 -3.3833 -0.7304 -1.0851
10872TIP3    H254108   1.404   2.815   1.597 -2.9732 -0.0550  1.4245
10873TIP3   OH254109   5.101   0.017  12.997  0.2879 -0.6484  0.1863
10873TIP3    H154110   5.111  -0.069  12.956  1.7066 -0.2156 -0.4130
10873TIP3    H254111   5.021   0.053  12.958  1.3864 -0.4168 -1.9233
10874TIP3   OH254112   0.685   2.850   5.693  0.3037  0.1553  0.3146
10874TIP3    H154113   0.736   2.929   5.711 -0.8594  0.6827  1.4080
10874TIP3    H254114   0.601   2.883   5.661 -0.0025 -0.6536  0.2864
10875TIP3   OH254115   1.026   6.096  13.748  0.0759  0.2677 -0.5355
10875TIP3    H154116   1.087   6.168  13.730  0.7749 -0.2032 -0.0923
10875TIP3    H254117   0.939   6.137  13.746  0.6334  1.8205  2.9356
10876TIP3   OH254118   3.434   4.442   3.536  0.0866  0.3855  0.3252
10876TIP3    H154119   3.423   4.467   3.445  2.4022  0.2090 -0.0393
10876TIP3    H254120   3.367   4.375   3.551 -0.5957  0.7375 -1.1119
10877TIP3   OH254121   0.058   4.896   1.525  0.1864  0.2187  0.7601
10877TIP3    H154122   0.007   4.856   1.456  0.1954  0.5942  0.5318
10877TIP3    H254123   0.139   4.845   1.529 -0.3281 -0.5528  1.3168
10878TIP3   OH254124   2.433   2.203   3.890  0.0650  0.1788  0.3366
10878TIP3    H154125   2.438   2.161   3.976 -0.8609  0.8897  0.7427
10878TIP3    H254126   2.409   2.132   3.831  1.7027 -0.5217  0.4982
10879TIP3   OH254127   5.224   6.787   5.823  0.0138 -0.3662 -0.3076
10879TIP3    H154128   5.146   6.731   5.814 -1.2641  1.4411 -0.9006
10879TIP3    H254129   5.221   6.817   5.914  2.7332 -4.0523  1.1474
10880TIP3   OH254130   1.702   6.582   0.879 -0.1930 -0.4758  0.1121
10880TIP3    H154131   1.777   6.618   0.927  0.9947 -0.8079 -1.4511
10880TIP3    H254132   1.654   6.531   0.945  1.3775 -0.8951  0.9721
10881TIP3   OH254133   2.716   5.091   4.449  0.0994  0.1290  0.2970
10881TIP3    H154134   2.707   5.153   4.522 -1.9425  1.0068 -0.6737
10881TIP3    H254135   2.687   5.139   4.372 -0.4375 -1.6891 -0.6725
10882TIP3   OH254136   1.128   2.983  14.900 -0.1042  0.1526 -0.2390
10882TIP3    H154137   1.077   2.906  14.876  0.3211  0.8162 -3.4073
10882TIP3    H254138   1.181   3.003  14.823  1.3643  2.3546  1.2772
10883TIP3   OH254139   0.666   4.544   0.236 -0.1315  0.4315 -0.6661
10883TIP3    H154140   0.691   4.619   0.289  0.9340  0.5879 -1.3811
10883TIP3    H254141   0.716   4.471   0.271  1.6806  0.8181 -2.3232
10884TIP3   OH254142   5.980   6.061  14.752 -0.3464  0.4736 -0.2883
10884TIP3    H154143   5.910   6.024  14.806 -1.0891  2.0277 -0.1498
10884TIP3    H254144   5.998   5.995  14.686 -0.3259 -0.9231  1.0852
10885TIP3   OH254145   3.741   6.046  16.380 -0.6859  0.3814  0.3033
10885TIP3    H154146   3.703   5.983  16.442 -0.7628 -0.8267 -0.9498
10885TIP3    H254147   3.773   5.992  16.308 -1.0629  1.8224 -0.9526
10886TIP3   OH254148   1.782   4.899   1.641 -0.4778 -0.0919  0.5017
10886TIP3    H154149   1.802   4.976   1.589 -1.4175 -1.9101 -2.6426
10886TIP3    H254150   1.862   4.846   1.639 -1.1151 -1.0434 -0.7390
10887TIP3   OH254151   1.320   4.281  16.589  0.5552 -0.2220  0.1376
10887TIP3    H154152   1.290   4.201  16.633 -0.7771  0.1389 -0.0996
10887TIP3    H254153   1.247   4.342  16.598  1.0678  0.5368 -0.8023
10888TIP3   OH254154   6.035   0.031   5.408  0.2894 -0.2646  0.5059
10888TIP3    H154155   6.109   0.084   5.379 -0.1435  1.1106  1.8773
10888TIP3    H254156   5.958   0.077   5.374 -0.1300  0.4684  2.3756
10889TIP3   OH254157   1.825   4.527  15.579 -0.5976 -0.4741 -0.0672
10889TIP3    H154158   1.774   4.476  15.642 -0.6142  1.1778  1.3129
10889TIP3    H254159   1.916   4.503  15.598 -0.5593  0.4953  1.0618
10890TIP3   OH254160   3.766   6.114  14.824  0.4634 -0.0923  0.2329
10890TIP3    H154161   3.835   6.108  14.890  0.9790 -0.3952 -0.3239
10890TIP3    H254162   3.811   6.096  14.741 -0.1026  0.6233 -0.2402
10891TIP3   OH254163   2.522   5.825  11.935 -0.0766 -0.8033  0.1792
10891TIP3    H154164   2.458   5.757  11.958 -0.5198 -0.9743 -1.4381
10891TIP3    H254165   2.607   5.782  11.945 -0.2473 -0.8500  1.4767
10892TIP3   OH254166   3.720   4.473  11.895  0.2516  0.1146 -0.1835
10892TIP3    H154167   3.711   4.507  11.806 -0.6594 -0.3528 -0.2679
10892TIP3    H254168   3.639   4.500  11.939  0.3272 -0.3936  0.2624
10893TIP3   OH254169   6.235   6.302  13.719  0.3750 -0.6077 -0.1300
10893TIP3    H154170   6.253   6.222  13.769  0.1463 -1.8260 -1.9502
10893TIP3    H254171   6.182   6.273  13.645 -1.7967  1.6109  0.4858
10894TIP3   OH254172   2.059   0.346  16.121  0.3477 -0.1112  0.2184
10894TIP3    H154173   2.138   0.384  16.159  0.9581 -0.6416 -0.5075
10894TIP3    H254174   2.065   0.365  16.027 -1.2024  1.2845  0.3780
10895TIP3   OH254175   3.843   1.237  12.372 -0.5901  0.3277  0.3955
10895TIP3    H154176   3.749   1.225  12.378 -0.6944 -0.5528 -2.1618
10895TIP3    H254177   3.863   1.226  12.279  2.0316  0.4725  0.8829
10896TIP3   OH254178   0.429   4.493   2.799  0.1976 -0.2546  0.2714
10896TIP3    H154179   0.458   4.541   2.877  0.4733  1.9723 -1.1660
10896TIP3    H254180   0.359   4.547   2.763  0.1415 -1.2253 -1.0918
10897TIP3   OH254181   5.100   6.615   4.289  1.0288  0.4303  1.2284
10897TIP3    H154182   5.146   6.628   4.206  0.0247  4.2593  1.1547
10897TIP3    H254183   5.042   6.541   4.274  0.9320  1.0104 -1.4714
10898TIP3   OH254184   0.704   2.116   0.075  0.3898  0.6919 -0.0113
10898TIP3    H154185   0.613   2.113   0.046  0.8018 -1.2355 -1.2150
10898TIP3    H254186   0.706   2.185   0.142 -2.4428 -0.9398  1.8494
10899TIP3   OH254187   2.504   2.749  11.499 -0.5360 -0.0545  0.2525
10899TIP3    H154188   2.590   2.778  11.467 -0.9789  1.1346  0.1484
10899TIP3    H254189   2.497   2.786  11.586 -2.6289  3.2711 -1.2238
10900TIP3   OH254190   3.993   3.599   1.210  0.9412  0.0923 -0.1593
10900TIP3    H154191   3.980   3.643   1.126  1.0302  0.4659  0.0213
10900TIP3    H254192   4.077   3.554   1.202  0.4959 -0.6660 -0.6136
10901TIP3   OH254193   6.124   2.082   0.973 -0.2924 -0.5122  0.1686
10901TIP3    H154194   6.071   2.013   0.934 -0.1188 -0.3907 -0.2878
10901TIP3    H254195   6.071   2.116   1.044 -1.0467 -0.0458 -0.6051
10902TIP3   OH254196   4.280   3.208   4.259 -1.0372  0.4614  0.2655
10902TIP3    H154197   4.341   3.162   4.317 -1.9175  0.4282  1.1728
10902TIP3    H254198   4.301   3.301   4.271 -0.2894  0.3859 -0.4133
10903TIP3   OH254199   6.277   3.397  11.830  0.2323 -0.6390 -0.4338
10903TIP3    H154200   6.357   3.344  11.831  0.7618  0.0347 -3.1137
10903TIP3    H254201   6.207   3.336  11.808  0.1604 -1.0291  0.8535
10904TIP3   OH254202   5.548   5.604   4.948 -0.6745  0.0389  0.1071
10904TIP3    H154203   5.510   5.540   5.009  0.0963 -0.1328  0.4117
10904TIP3    H254204   5.637   5.573   4.934 -1.4560 -1.0839 -2.7030
10905TIP3   OH254205   5.206   4.050  11.159 -0.0027  0.0111  0.1342
10905TIP3    H154206   5.270   4.048  11.088 -1.9072 -0.9321 -1.6506
10905TIP3    H254207   5.216   3.966  11.203 -1.0026 -0.8106 -1.1331
10906TIP3   OH254208   6.006   1.290   1.882 -0.0536 -0.2276  1.0578
10906TIP3    H154209   6.028   1.377   1.917 -1.3166 -0.3071  2.0599
10906TIP3    H254210   6.061   1.282   1.804 -1.2192  2.2170 -0.0630
10907TIP3   OH254211   0.228   3.753  10.948 -0.4024 -0.1544 -0.0661
10907TIP3    H154212   0.264   3.804  10.876 -1.5121  0.7986  0.0554
10907TIP3    H254213   0.295   3.686  10.965  0.4960  0.4827 -1.0336
10908TIP3   OH254214   1.494   6.710  14.555  0.9200  0.5164 -0.2653
10908TIP3    H154215   1.513   6.618  14.570  0.7168  0.9865  3.0788
10908TIP3    H254216   1.577   6.755  14.566  0.5952  0.9781  0.3471
10909TIP3   OH254217   0.124   5.121   4.125  0.1965  0.3944 -0.1640
10909TIP3    H154218   0.178   5.051   4.090 -1.7277 -0.3507 -1.7050
10909TIP3    H254219   0.075   5.080   4.196  0.4971  0.6726  0.2048
10910TIP3   OH254220   3.474   1.566   2.616 -0.0841 -0.2136  0.0580
10910TIP3    H154221   3.500   1.633   2.680  1.9204 -0.7220 -0.1978
10910TIP3    H254222   3.471   1.613   2.533 -0.7771  0.0229  0.2154
10911TIP3   OH254223   2.913   3.266  16.440 -0.1979  0.1118 -0.1481
10911TIP3    H154224   2.936   3.261  16.532  2.0125  0.7741 -0.6343
10911TIP3    H254225   2.991   3.302  16.397 -1.0531 -0.5028 -2.3181
10912TIP3   OH254226   2.894   5.901   3.441  0.2839  0.3526  0.2644
10912TIP3    H154227   2.809   5.945   3.439  1.5669  2.8934 -2.2742
10912TIP3    H254228   2.948   5.957   3.496  0.9225 -0.0610  0.0563
10913TIP3   OH254229   3.786   1.287  15.292  0.0006  0.8401 -0.0336
10913TIP3    H154230   3.867   1.336  15.276  0.4506  0.0277 -0.2562
10913TIP3    H254231   3.761   1.253  15.207 -1.5922  2.6227 -0.2983
10914TIP3   OH254232   0.353   1.160   2.994 -0.4384 -0.1633  0.0946
10914TIP3    H154233   0.424   1.162   3.059 -0.5421 -2.6690  0.3352
10914TIP3    H254234   0.273   1.163   3.046 -0.5330  1.3847 -0.1174
10915TIP3   OH254235   4.565   6.362  12.283  0.2207 -0.1692  0.1442
10915TIP3    H154236   4.502   6.295  12.256 -0.8287  0.1997  1.5837
10915TIP3    H254237   4.636   6.356  12.219  0.0871 -2.5797  0.1600
10916TIP3   OH254238   2.117   2.945   2.057 -0.2124  0.0089  0.0702
10916TIP3    H154239   2.109   2.881   2.128  1.1653  2.5107  2.5697
10916TIP3    H254240   2.203   2.928   2.019 -0.8969 -1.2488 -0.9580
10917TIP3   OH254241   4.481   0.173   0.871 -0.1502  0.2118 -0.3835
10917TIP3    H154242   4.404   0.118   0.888 -0.2962  0.2595 -0.8983
10917TIP3    H254243   4.455   0.260   0.903  0.1816 -0.0761  0.6866
10918TIP3   OH254244   3.852   6.193  12.024  0.1713 -0.5303  0.9822
10918TIP3    H154245   3.937   6.157  12.047  0.8875  0.3050 -0.2998
10918TIP3    H254246   3.869   6.284  12.002 -1.2031 -0.1112  1.6048
10919TIP3   OH254247   5.154   5.834   4.332 -0.1130 -0.5707  0.2963
10919TIP3    H154248   5.128   5.898   4.398  0.5308 -1.3366  1.3072
10919TIP3    H254249   5.079   5.828   4.273 -0.5929  0.3102  0.8139
10920TIP3   OH254250   0.064   0.144   3.387 -0.5105 -0.3408  0.1107
10920TIP3    H154251   0.083   0.188   3.304 -1.0879  0.5162  0.4344
10920TIP3    H254252  -0.015   0.186   3.419  0.0852 -0.2325  1.4334
10921TIP3   OH254253   2.985   4.461  10.651  0.4578  0.6516  0.6254
10921TIP3    H154254   3.002   4.367  10.650 -0.5352  0.4598 -2.1251
10921TIP3    H254255   3.072   4.500  10.639  0.7685  0.0781  0.9427
10922TIP3   OH254256   0.032   4.835  14.022  0.8208 -0.0558  0.3014
10922TIP3    H154257   0.116   4.808  14.060  1.1803 -1.0650 -1.1427
10922TIP3    H254258   0.033   4.930  14.027  1.0803 -0.1298  2.3029
10923TIP3   OH254259   4.278   4.644   4.108  0.2726 -0.1419 -0.6893
10923TIP3    H154260   4.278   4.687   4.023  0.2127  0.3065 -0.4713
10923TIP3    H254261   4.259   4.553   4.090  3.6999 -0.7713 -1.5111
10924TIP3   OH254262   5.443   0.910  15.710  0.3112  0.4924  0.2572
10924TIP3    H154263   5.450   0.831  15.764 -0.0858  0.0713 -0.3021
10924TIP3    H254264   5.449   0.982  15.772  0.2704  0.0137  0.8182
10925TIP3   OH254265   2.190   0.224   3.683  0.0009  0.0738 -0.0799
10925TIP3    H154266   2.247   0.201   3.757  0.1109  1.4411  0.2640
10925TIP3    H254267   2.250   0.244   3.612 -0.0767  0.3244 -0.0741
10926TIP3   OH254268   2.114   4.968  16.361  0.2061  0.0073 -0.6365
10926TIP3    H154269   2.100   5.062  16.376 -0.7070 -0.1956 -0.1152
10926TIP3    H254270   2.150   4.936  16.444 -3.4078 -0.8398  0.7245
10927TIP3   OH254271   0.503   3.389   0.780 -0.5871 -0.1031  0.0250
10927TIP3    H154272   0.520   3.452   0.710 -1.0071  0.3461  0.3242
10927TIP3    H254273   0.465   3.441   0.851 -2.1197 -0.8799 -0.1854
10928TIP3   OH254274   0.962   3.199  10.596 -0.4386 -0.0791 -0.6420
10928TIP3    H154275   0.956   3.290  10.626  0.6322 -0.8406  2.0682
10928TIP3    H254276   1.056   3.183  10.587 -0.5757 -1.1560 -0.2786
10929TIP3   OH254277   5.556   1.273  14.045 -0.0196 -0.0204 -0.1994
10929TIP3    H154278   5.467   1.307  14.042  0.0083 -0.0104 -1.3379
10929TIP3    H254279   5.546   1.178  14.051 -0.0975  0.1268  2.4159
10930TIP3   OH254280   4.543   3.612   6.218 -0.1817  0.0126  0.1297
10930TIP3    H154281   4.455   3.574   6.227 -1.2431  1.8854 -2.0549
10930TIP3    H254282   4.539   3.694   6.267 -0.4212  1.2904 -1.9760
10931TIP3   OH254283   0.891   2.091   5.476  0.5266 -0.4902  0.3649
10931TIP3    H154284   0.978   2.118   5.506 -0.1350  1.5730  0.5180
10931TIP3    H254285   0.834   2.165   5.498 -1.2425 -1.7437  0.1069
10932TIP3   OH254286   1.596   2.273  17.239 -0.2453 -0.3400  0.1928
10932TIP3    H154287   1.552   2.189  17.231  0.3976 -0.9303  2.5586
10932TIP3    H254288   1.538   2.327  17.292  0.0619  0.1889  0.0005
10933TIP3   OH254289   5.837   4.076   5.946  0.6100 -0.4639 -0.0518
10933TIP3    H154290   5.870   4.049   6.032 -1.0977  0.2314  0.8650
10933TIP3    H254291   5.745   4.097   5.962 -0.1837 -1.9942 -2.4331
10934TIP3   OH254292   1.976   0.573   0.952  0.0994  0.3709 -0.8051
10934TIP3    H154293   1.973   0.589   0.858 -1.3662 -0.4266 -0.9032
10934TIP3    H254294   1.933   0.649   0.991  0.5818  0.6334 -0.7734
10935TIP3   OH254295   0.011   3.180  14.015  0.0780  0.0957  0.2305
10935TIP3    H154296   0.101   3.147  14.009  1.1893  2.9360  0.6690
10935TIP3    H254297  -0.043   3.101  14.019  2.5213 -1.6582 -0.3512
10936TIP3   OH254298   2.785   1.698   3.511 -1.1371  0.5193  0.2558
10936TIP3    H154299   2.696   1.665   3.523 -0.7931 -0.7700 -0.5724
10936TIP3    H254300   2.775   1.769   3.447 -1.6173  0.6035  0.4192
10937TIP3   OH254301   0.676   6.623   4.546  0.4532 -0.3424  0.3119
10937TIP3    H154302   0.706   6.703   4.503  0.7075 -1.1241 -0.9866
10937TIP3    H254303   0.707   6.552   4.490 -0.5913 -1.3241  0.9403
10938TIP3   OH254304   1.118   4.172   0.360  0.1345  0.1604  0.5037
10938TIP3    H154305   1.098   4.143   0.271 -1.2723 -1.8124  1.4357
10938TIP3    H254306   1.064   4.250   0.373 -2.3649 -1.5772  0.8365
10939TIP3   OH254307   4.267   1.923   4.849 -0.3120 -0.5081  0.4510
10939TIP3    H154308   4.185   1.958   4.814 -0.5310 -1.4152  0.0347
10939TIP3    H254309   4.281   1.970   4.931 -1.1441 -0.2074  0.4205
10940TIP3   OH254310   2.492   4.227   4.364  0.0812  0.1779 -0.2117
10940TIP3    H154311   2.438   4.274   4.302 -0.2307 -0.9697 -0.8230
10940TIP3    H254312   2.448   4.238   4.448  0.1018  1.0989 -0.3208
10941TIP3   OH254313   5.706   0.509   3.173 -0.1950 -0.2363  0.3965
10941TIP3    H154314   5.634   0.453   3.203 -0.6879  0.2079  0.0343
10941TIP3    H254315   5.709   0.580   3.237 -1.3045  0.7614 -0.6273
10942TIP3   OH254316   6.682   3.203   0.406 -0.5945 -0.3787 -0.3603
10942TIP3    H154317   6.777   3.190   0.405 -0.6927 -1.0512 -1.1545
10942TIP3    H254318   6.666   3.266   0.336 -0.7949 -0.7360 -0.6397
10943TIP3   OH254319   5.250   4.174  14.154 -0.3662 -0.1414 -0.0030
10943TIP3    H154320   5.226   4.084  14.175 -2.4254  0.4168  0.0605
10943TIP3    H254321   5.334   4.165  14.108 -0.4054 -2.0602  0.2469
10944TIP3   OH254322   2.602   2.909  15.135 -0.0767  0.1406  0.2378
10944TIP3    H154323   2.587   2.839  15.071  0.6483 -0.0187  0.2329
10944TIP3    H254324   2.597   2.990  15.084 -0.5862  0.0753  0.1814
10945TIP3   OH254325   2.293   5.149   0.448 -0.0129  0.2429  0.2128
10945TIP3    H154326   2.327   5.234   0.422 -0.3377  0.5821  0.8732
10945TIP3    H254327   2.231   5.125   0.379  0.6619  0.1816 -0.3704
10946TIP3   OH254328   4.820   5.844   0.161  0.0370  0.4514  0.5632
10946TIP3    H154329   4.739   5.794   0.170 -0.8228  1.6654 -0.3976
10946TIP3    H254330   4.843   5.867   0.251 -0.0933 -0.8102  0.9327
10947TIP3   OH254331   4.872   5.755  15.148 -0.2008  0.4177 -0.2481
10947TIP3    H154332   4.923   5.836  15.148  0.6756 -0.1218  0.8706
10947TIP3    H254333   4.789   5.780  15.189  0.4279  0.5414  0.9737
10948TIP3   OH254334   4.352   0.654  12.761 -0.0448  0.0449  0.3889
10948TIP3    H154335   4.379   0.724  12.820  0.7851  1.6919 -1.8776
10948TIP3    H254336   4.432   0.628  12.716 -0.5428 -1.6446  0.4212
10949TIP3   OH254337   2.519   0.904   6.430 -0.1435 -0.2699  0.7764
10949TIP3    H154338   2.527   0.824   6.482 -2.5801 -0.5519  0.7637
10949TIP3    H254339   2.474   0.966   6.488  0.0831  0.4918  0.1474
10950TIP3   OH254340   3.825   5.727   1.057  0.4635 -0.5500 -0.0039
10950TIP3    H154341   3.837   5.786   0.983  0.2093 -0.3819  0.0868
10950TIP3    H254342   3.749   5.674   1.033  0.5779 -0.7127 -0.0036
10951TIP3   OH254343   5.857   3.052  12.005 -0.0432 -0.1487  0.4026
10951TIP3    H154344   5.891   2.982  12.060  0.5183  0.1665  0.4537
10951TIP3    H254345   5.893   3.034  11.918 -1.6638 -1.1740 -0.0966
10952TIP3   OH254346   4.028   4.378  14.229  0.6981 -0.3050  0.2609
10952TIP3    H154347   4.083   4.375  14.151  0.5827  0.5896  0.1375
10952TIP3    H254348   4.064   4.451  14.281  0.6890 -0.7983  0.9759
10953TIP3   OH254349   3.126   5.436  12.248  0.6912  0.1608  0.3082
10953TIP3    H154350   3.124   5.478  12.334 -1.7605  0.2156  0.2572
10953TIP3    H254351   3.212   5.460  12.211  1.5995  0.4590  2.5566
10954TIP3   OH254352   2.221   5.884   5.858  0.3190  0.1810  0.1338
10954TIP3    H154353   2.243   5.793   5.879 -0.7556 -0.6961 -2.3268
10954TIP3    H254354   2.159   5.877   5.786  0.4614  2.8983 -0.2854
10955TIP3   OH254355   0.558   4.947  15.967  0.3780 -0.6695 -0.5807
10955TIP3    H154356   0.642   4.957  16.011  0.0905 -0.5836 -0.0368
10955TIP3    H254357   0.577   4.959  15.874  0.4989  2.4798 -0.2043
10956TIP3   OH254358   4.026   1.724  11.151 -0.3976  0.2346  0.5905
10956TIP3    H154359   4.071   1.705  11.069 -0.4744  0.8117  0.4121
10956TIP3    H254360   4.018   1.819  11.152  0.9984  0.3537  2.0102
10957TIP3   OH254361   3.676   6.475   1.778  0.1839 -0.2373  0.8615
10957TIP3    H154362   3.723   6.423   1.712 -0.2066  1.2456 -0.6340
10957TIP3    H254363   3.589   6.436   1.783  0.3179 -0.5531  0.7328
10958TIP3   OH254364   3.928   1.946  15.201  0.2793  0.2714  0.6099
10958TIP3    H154365   3.863   1.876  15.206  0.1016  0.5037  1.5283
10958TIP3    H254366   4.006   1.909  15.243  1.2033 -0.5047 -1.6784
10959TIP3   OH254367   2.697   3.935  17.277 -0.0195  0.1652  0.1366
10959TIP3    H154368   2.771   3.951  17.335 -1.3854 -0.8512  2.2099
10959TIP3    H254369   2.711   3.995  17.203  2.4690  0.4834  0.8220
10960TIP3   OH254370   0.126   4.222   4.172 -0.0279  0.1864  0.2579
10960TIP3    H154371   0.102   4.261   4.088  1.1129 -0.7189 -0.4984
10960TIP3    H254372   0.051   4.239   4.228 -1.8643 -1.3780 -1.6559
10961TIP3   OH254373   2.085   4.742  14.245  0.1547  0.6582 -0.2647
10961TIP3    H154374   2.089   4.688  14.324  0.3899  1.1295  0.0570
10961TIP3    H254375   1.992   4.752  14.227  0.1111  0.1845 -0.2983
10962TIP3   OH254376   6.788   3.454  12.735 -0.2000 -0.0393 -0.0655
10962TIP3    H154377   6.720   3.387  12.728  1.5353 -1.8754  0.5769
10962TIP3    H254378   6.819   3.448  12.825  2.3901 -0.7442 -0.9793
10963TIP3   OH254379   1.225   6.592  16.366 -0.4392  0.4029  0.0076
10963TIP3    H154380   1.197   6.501  16.374  1.1353 -0.2719 -1.8285
10963TIP3    H254381   1.309   6.596  16.411 -0.8615  1.1321  0.7443
10964TIP3   OH254382   5.787   4.879  15.623 -0.6695 -0.3638  0.3649
10964TIP3    H154383   5.742   4.827  15.557 -0.0530  0.1689 -0.4805
10964TIP3    H254384   5.814   4.959  15.577  3.3851 -1.7433  0.1693
10965TIP3   OH254385   3.952   0.874  10.760 -0.3890  0.0371  0.1716
10965TIP3    H154386   3.914   0.934  10.696  0.5492 -1.2477 -1.6475
10965TIP3    H254387   3.879   0.819  10.788 -0.6494  0.0930 -0.3902
10966TIP3   OH254388   2.099   4.608  16.852 -0.2585 -0.0778  0.2909
10966TIP3    H154389   2.081   4.514  16.854 -1.0076  0.0546 -0.1661
10966TIP3    H254390   2.095   4.632  16.759  0.1818  0.3565  0.3783
10967TIP3   OH254391   0.071   4.231   1.217  0.1726 -0.3709 -0.1340
10967TIP3    H154392   0.063   4.137   1.203 -0.0389 -0.4373  0.3926
10967TIP3    H254393  -0.010   4.255   1.263  0.3311  0.0261 -0.0599
10968TIP3   OH254394   6.572   4.921   6.641 -0.2006 -0.4246 -0.0607
10968TIP3    H154395   6.615   4.868   6.708  1.5211  0.0053 -0.8028
10968TIP3    H254396   6.594   5.011   6.664 -2.2869 -0.0646  0.6243
10969TIP3   OH254397   0.784   3.822   3.186  0.1259 -0.1437  0.0015
10969TIP3    H154398   0.753   3.742   3.143  0.3145 -0.0953 -0.2280
10969TIP3    H254399   0.717   3.842   3.251  1.0053 -1.5647  1.4116
10970TIP3   OH254400   5.551   5.472  15.887 -0.2595  0.0838 -0.7522
10970TIP3    H154401   5.640   5.488  15.855  0.1257 -0.0012  0.2471
10970TIP3    H254402   5.500   5.454  15.809  0.6249  0.0490 -1.3283
10971TIP3   OH254403   3.250   4.710  14.045  0.3538  0.2953 -0.1214
10971TIP3    H154404   3.291   4.640  13.993 -0.0966 -0.2061  0.1992
10971TIP3    H254405   3.278   4.790  14.002 -1.2927 -0.1523 -2.1198
10972TIP3   OH254406   6.608   6.054  11.441  0.1947 -0.4894 -0.4018
10972TIP3    H154407   6.674   6.079  11.507 -1.6213  0.1848  1.2120
10972TIP3    H254408   6.651   6.070  11.357  2.0471  0.0569  0.6102
10973TIP3   OH254409   3.884   4.261  10.898 -0.1888 -0.0778  0.0551
10973TIP3    H154410   3.805   4.219  10.863 -0.3500  0.2378  0.0391
10973TIP3    H254411   3.861   4.353  10.905 -0.8669 -0.3949  2.8583
10974TIP3   OH254412   3.385   4.976  13.622 -0.4662 -0.2291  1.0384
10974TIP3    H154413   3.463   4.922  13.636  0.2062  0.2139 -0.8595
10974TIP3    H254414   3.322   4.916  13.582  0.2015  0.2749 -0.8545
10975TIP3   OH254415   1.127   3.635   1.732 -0.5520 -0.2633 -0.0043
10975TIP3    H154416   1.184   3.696   1.780 -1.7628  0.2927  0.7477
10975TIP3    H254417   1.075   3.593   1.800 -1.4411 -0.3512 -0.7313
10976TIP3   OH254418   1.877   0.270   2.997 -0.1456 -0.3968  0.0507
10976TIP3    H154419   1.842   0.341   3.050 -0.5021 -0.9011  0.4975
10976TIP3    H254420   1.820   0.266   2.920 -0.0028 -0.0679 -0.0719
10977TIP3   OH254421   2.331   0.503   3.720 -0.0835 -0.3256 -0.1400
10977TIP3    H154422   2.265   0.486   3.652  1.4292  0.0621 -1.7479
10977TIP3    H254423   2.399   0.553   3.675  0.6211  0.5578  1.8604
10978TIP3   OH254424   3.800   0.299  12.503  0.6063 -0.5767  0.1226
10978TIP3    H154425   3.720   0.347  12.524  1.4490  1.4402 -1.1236
10978TIP3    H254426   3.850   0.300  12.584 -0.2514 -1.1020  0.6664
10979TIP3   OH254427   2.660   1.397   5.893  0.4385  0.1269  0.4422
10979TIP3    H154428   2.721   1.377   5.822 -0.2944  1.5815 -0.6057
10979TIP3    H254429   2.715   1.429   5.964  1.0354  0.0075  0.0361
10980TIP3   OH254430   6.436   0.961  16.028  0.3107 -0.5144  0.0526
10980TIP3    H154431   6.399   1.013  16.099  1.0393  0.2985 -0.1605
10980TIP3    H254432   6.431   0.870  16.059 -1.3947 -0.3664  0.2305
10981TIP3   OH254433   3.435   1.691  15.198  0.0447  0.3383 -0.2034
10981TIP3    H154434   3.397   1.682  15.285  0.4874 -0.9066 -0.1240
10981TIP3    H254435   3.387   1.763  15.158  1.9909  3.0863  2.1932
10982TIP3   OH254436   5.975   2.228   5.433 -0.7438  0.1179  0.3363
10982TIP3    H154437   5.940   2.140   5.419 -0.1782  0.1368 -1.3231
10982TIP3    H254438   5.942   2.254   5.519 -0.8276 -1.7508  0.8787
10983TIP3   OH254439   4.411   2.986   4.812 -0.1665 -0.0205  0.1400
10983TIP3    H154440   4.357   2.919   4.772  0.7974 -0.0392 -1.1993
10983TIP3    H254441   4.406   2.970   4.906  0.3962 -2.2303 -0.1935
10984TIP3   OH254442   0.717   5.053   5.894  0.0687 -0.5406  0.0993
10984TIP3    H154443   0.718   4.959   5.912 -0.2952 -0.4754  0.4508
10984TIP3    H254444   0.734   5.059   5.800 -0.3508 -0.9786 -0.0049
10985TIP3   OH254445   0.180   4.168   2.286 -0.2350  0.4633  0.1391
10985TIP3    H154446   0.110   4.232   2.276 -0.9716 -0.4772 -0.8848
10985TIP3    H254447   0.217   4.159   2.199  0.3353  0.0118  0.4227
10986TIP3   OH254448   0.408   5.703  13.728  0.1595 -0.6861  0.0913
10986TIP3    H154449   0.423   5.616  13.690 -1.1848 -0.8019 -0.2194
10986TIP3    H254450   0.421   5.764  13.656  3.5137 -0.3996  0.8706
10987TIP3   OH254451   3.337   1.621   1.030  0.3417  0.1959 -0.6127
10987TIP3    H154452   3.282   1.555   1.072 -1.0930  0.5675 -1.8692
10987TIP3    H254453   3.281   1.698   1.023  1.1579  0.7164 -1.5164
10988TIP3   OH254454   1.291   2.817   0.242 -0.1094  0.0206  0.9099
10988TIP3    H154455   1.374   2.803   0.197  0.4045  1.3596  1.4317
10988TIP3    H254456   1.311   2.803   0.334 -0.9271 -1.6616  0.8659
10989TIP3   OH254457   3.588   2.237  12.881 -0.2475  0.3493  0.2339
10989TIP3    H154458   3.564   2.163  12.826 -2.7189 -0.0167  1.7409
10989TIP3    H254459   3.532   2.309  12.850  0.2571  0.8761  0.5200
10990TIP3   OH254460   6.140   4.133  14.665  0.2772  0.3226  0.1727
10990TIP3    H154461   6.174   4.172  14.585  1.7956 -0.4496  0.4287
10990TIP3    H254462   6.158   4.039  14.656  1.5104  0.3663  1.9113
10991TIP3   OH254463   4.981   1.322  15.722 -0.1373 -0.8203 -0.6400
10991TIP3    H154464   4.955   1.383  15.653 -0.3575 -0.8332 -0.5698
10991TIP3    H254465   5.031   1.255  15.677  1.0177 -0.0227 -0.5521
10992TIP3   OH254466   3.076   4.929   3.876  0.3001  0.3312  1.0613
10992TIP3    H154467   3.153   4.979   3.849  0.1532  0.9825  1.8091
10992TIP3    H254468   3.005   4.994   3.877  0.0104  0.0090  1.5967
10993TIP3   OH254469   6.537   4.552   0.310 -0.5159 -0.2192 -0.0581
10993TIP3    H154470   6.615   4.576   0.260  0.1672  1.6740  1.8387
10993TIP3    H254471   6.467   4.547   0.244  0.7252  0.4320 -1.4414
10994TIP3   OH254472   3.940   2.091   1.315 -0.0350 -0.4770  0.2970
10994TIP3    H154473   3.956   2.183   1.292 -1.3003  0.6908  3.7470
10994TIP3    H254474   4.014   2.044   1.277  0.4134  1.8749 -1.9183
10995TIP3   OH254475   1.621   3.373  15.430  0.2465  0.6247  0.0985
10995TIP3    H154476   1.600   3.446  15.371 -0.1425 -0.2529 -0.8623
10995TIP3    H254477   1.665   3.309  15.373 -0.2537 -0.2901  0.7379
10996TIP3   OH254478   2.217   0.052   0.523  0.1381 -0.3474 -0.1587
10996TIP3    H154479   2.201  -0.042   0.513  0.8134 -0.2116 -2.7368
10996TIP3    H254480   2.134   0.093   0.501  0.0009 -0.3022  0.4314
10997TIP3   OH254481   0.408   4.473   3.424 -0.1459 -0.1587  0.1225
10997TIP3    H154482   0.444   4.496   3.339 -0.5166 -0.1323 -0.0319
10997TIP3    H254483   0.370   4.555   3.457 -3.0279 -0.8778 -1.2023
10998TIP3   OH254484   2.884   4.709   6.564 -0.1440 -0.0340  0.2244
10998TIP3    H154485   2.891   4.804   6.574 -1.1258  0.2420 -1.4900
10998TIP3    H254486   2.793   4.689   6.587  0.5621 -0.8190  2.3901
10999TIP3   OH254487   5.969   6.119   2.277  0.0898  0.3864 -0.2849
10999TIP3    H154488   5.935   6.201   2.241  0.3537  0.0605 -1.2970
10999TIP3    H254489   5.992   6.140   2.367  0.7593  1.5926 -0.7348
11000TIP3   OH254490   2.461   1.236   2.105 -0.2072  0.0031  0.1310
11000TIP3    H154491   2.513   1.268   2.031  0.6804  0.1499  0.8005
11000TIP3    H254492   2.493   1.146   2.119  0.6994  0.4833  1.2663
11001TIP3   OH254493   6.100   4.455   1.439 -0.3594  0.4224 -0.2776
11001TIP3    H154494   6.153   4.455   1.518 -1.1408  3.0696  0.3101
11001TIP3    H254495   6.158   4.494   1.372 -0.3187 -0.1260 -0.5660
11002TIP3   OH254496   5.037   0.428   0.540  0.5345  0.3509 -0.4068
11002TIP3    H154497   5.069   0.385   0.461  1.9097  1.0505 -0.2378
11002TIP3    H254498   4.945   0.401   0.546  0.9993 -1.4519 -1.0484
11003TIP3   OH254499   5.505   5.627   4.196  0.2708  0.2335  0.2501
11003TIP3    H154500   5.592   5.628   4.235  0.5634 -1.2350 -0.3298
11003TIP3    H254501   5.445   5.626   4.271  0.7520  0.6973  0.6465
11004TIP3   OH254502   5.522   0.753  16.700 -0.0900 -0.1033 -0.1728
11004TIP3    H154503   5.449   0.725  16.754 -1.0534  0.9580 -0.8988
11004TIP3    H254504   5.483   0.773  16.615  1.0272  0.4836 -0.5651
11005TIP3   OH254505   5.036   5.792  13.935 -0.0283 -0.2065 -0.1449
11005TIP3    H154506   5.007   5.835  14.015 -0.1673  0.6966 -0.6678
11005TIP3    H254507   4.956   5.769  13.889  0.0472 -0.9212  0.0669
11006TIP3   OH254508   0.108   0.857   6.162 -0.0232  0.1077  0.1238
11006TIP3    H154509   0.078   0.881   6.075  2.3731 -0.3646 -0.8671
11006TIP3    H254510   0.173   0.788   6.147 -0.2013 -0.5867  2.3389
11007TIP3   OH254511   1.114   2.611  13.459 -0.4520  0.1937  0.4333
11007TIP3    H154512   1.067   2.641  13.537  0.0375  1.6533  0.1768
11007TIP3    H254513   1.061   2.642  13.386  0.9167  1.8924  0.1400
11008TIP3   OH254514   3.102   2.114   0.682  0.2206 -0.3011  0.5323
11008TIP3    H154515   3.110   2.209   0.688 -0.2737 -0.1533 -0.8391
11008TIP3    H254516   3.107   2.096   0.588  1.0197 -1.6990  0.8351
11009TIP3   OH254517   2.386   3.841   5.622  0.4114  0.1102  0.6722
11009TIP3    H154518   2.297   3.843   5.657  0.0649  0.2972 -0.1974
11009TIP3    H254519   2.435   3.900   5.679 -0.5015  1.6495 -0.0854
11010TIP3   OH254520   1.472   2.233  16.841 -0.5306 -0.6180  0.6862
11010TIP3    H154521   1.545   2.265  16.894 -0.9462  0.1992  0.7731
11010TIP3    H254522   1.424   2.312  16.816 -1.4885 -1.1685  0.7736
11011TIP3   OH254523   3.778   3.910   6.410  0.0171 -0.0374  0.1061
11011TIP3    H154524   3.839   3.949   6.472 -0.3726 -0.0543  0.5009
11011TIP3    H254525   3.833   3.881   6.337  0.6911 -1.4889  1.1504
11012TIP3   OH254526   3.209   5.668  11.950 -0.1347  0.3896  0.1585
11012TIP3    H154527   3.221   5.722  11.872  0.8001  0.2729  0.2156
11012TIP3    H254528   3.153   5.720  12.007 -1.4531  0.1604 -0.8939
11013TIP3   OH254529   5.038   2.800  12.843  0.0059  0.6997  0.1545
11013TIP3    H154530   5.018   2.715  12.803  0.4399 -0.5947  2.5645
11013TIP3    H254531   5.083   2.849  12.774 -1.0161 -0.6919 -1.5544
11014TIP3   OH254532   1.158   2.125   5.504  0.6536 -0.1983  0.1915
11014TIP3    H154533   1.153   2.167   5.418  1.3182  1.5434  0.9618
11014TIP3    H254534   1.205   2.044   5.489 -1.5181 -1.2026 -1.5301
11015TIP3   OH254535   4.117   1.175  17.225 -0.2708 -0.2063 -0.5103
11015TIP3    H154536   4.117   1.214  17.137 -1.7082  1.5395  0.2523
11015TIP3    H254537   4.115   1.080  17.208  1.5695  0.0450 -2.3573
11016TIP3   OH254538   4.369   1.969   6.060  0.7187 -0.1086 -0.1159
11016TIP3    H154539   4.304   1.908   6.026  1.1782 -1.2017  0.9414
11016TIP3    H254540   4.437   1.914   6.099  1.9665  1.0362 -0.6204
11017TIP3   OH254541   3.192   1.621   0.605 -0.1648  0.3561  0.2808
11017TIP3    H154542   3.253   1.673   0.552 -0.9300  0.3581 -0.6012
11017TIP3    H254543   3.149   1.685   0.661  0.3671  0.4068  0.6347
11018TIP3   OH254544   4.555   3.354   4.284 -0.5548 -0.1380  0.3765
11018TIP3    H154545   4.538   3.271   4.240  0.0708 -0.0338 -0.0580
11018TIP3    H254546   4.540   3.421   4.218  0.5289  0.0102  0.2698
11019TIP3   OH254547   5.426   5.821  13.310  0.2775 -0.4637  0.4594
11019TIP3    H154548   5.347   5.821  13.364  0.1376  1.7235  0.3154
11019TIP3    H254549   5.395   5.843  13.222  1.0755  0.8938  0.4979
11020TIP3   OH254550   4.644   1.676   4.728  0.1627  0.1970  0.8020
11020TIP3    H154551   4.595   1.647   4.804  0.6032 -1.5803  0.4194
11020TIP3    H254552   4.656   1.770   4.742 -0.5579  0.0582  2.4578
11021TIP3   OH254553   3.042   4.616  16.669 -0.1790  0.0198  0.3469
11021TIP3    H154554   3.010   4.533  16.635  2.9584 -0.1262 -2.4322
11021TIP3    H254555   3.133   4.600  16.692  0.1604  2.4198  0.8331
11022TIP3   OH254556   1.826   4.947  16.249  0.0023 -0.0443 -0.3363
11022TIP3    H154557   1.901   4.948  16.309 -1.3547 -0.5224  1.4184
11022TIP3    H254558   1.752   4.978  16.302 -1.4755 -1.6182 -1.4108
11023TIP3   OH254559   4.475   6.758  17.249 -0.0119  0.1280  0.2030
11023TIP3    H154560   4.531   6.833  17.228  0.9895 -0.3692  1.0345
11023TIP3    H254561   4.386   6.792  17.248  0.3447  1.0422 -0.6652
11024TIP3   OH254562   2.316   4.167   0.531 -0.4133  0.3250  0.2352
11024TIP3    H154563   2.376   4.096   0.509 -0.8143  0.2794 -0.7104
11024TIP3    H254564   2.235   4.146   0.485 -0.2051  1.9165 -0.9188
11025TIP3   OH254565   6.585   0.349   2.849 -0.1344 -0.3582 -0.3597
11025TIP3    H154566   6.567   0.366   2.942  1.2667 -0.6936 -0.0230
11025TIP3    H254567   6.655   0.411   2.827 -0.1963 -0.5529 -1.0909
11026TIP3   OH254568   0.617   4.835  12.500  0.0590  0.0947 -0.0143
11026TIP3    H154569   0.572   4.864  12.421 -0.1287  1.6682  0.6337
11026TIP3    H254570   0.687   4.777  12.469 -0.6062 -0.0512 -1.2474
11027TIP3   OH254571   3.635   1.535  16.564  0.4370 -0.6737  0.2826
11027TIP3    H154572   3.715   1.561  16.517 -1.4461  1.5425 -1.8074
11027TIP3    H254573   3.640   1.581  16.648  0.3257  1.2423 -0.7362
11028TIP3   OH254574   6.416   5.086  12.837  0.3708  0.1832 -0.1050
11028TIP3    H154575   6.483   5.018  12.840 -2.1375 -2.4290 -0.5292
11028TIP3    H254576   6.422   5.121  12.748 -1.0108 -2.4470 -1.3094
11029TIP3   OH254577   1.929   3.109   2.519  0.3547  0.3460 -0.4044
11029TIP3    H154578   1.916   3.129   2.426 -0.4182  0.3665 -0.2975
11029TIP3    H254579   1.961   3.190   2.558 -1.9826  1.1820 -0.1253
11030TIP3   OH254580   1.047   5.170  13.332  0.4482 -0.2051  0.1232
11030TIP3    H154581   1.038   5.088  13.283 -0.8833  0.4717 -0.7772
11030TIP3    H254582   1.141   5.190  13.328  0.5128 -0.7355 -1.2055
11031TIP3   OH254583   3.168   5.101  15.918  0.2379 -0.0460  0.0468
11031TIP3    H154584   3.090   5.063  15.878 -1.6982  2.0069  1.7130
11031TIP3    H254585   3.200   5.032  15.977  0.0907 -1.1444 -1.1256
11032TIP3   OH254586   1.946   2.388  13.368 -0.2658  0.3691 -0.0592
11032TIP3    H154587   1.898   2.395  13.450  0.1413  1.0187  0.1280
11032TIP3    H254588   1.960   2.294  13.356  2.7188  0.4279  2.4287
11033TIP3   OH254589   1.305   5.602  13.459  0.6581  0.3378 -0.0926
11033TIP3    H154590   1.380   5.644  13.419  0.2116  0.9150 -0.3293
11033TIP3    H254591   1.326   5.597  13.552  0.7880  0.9216 -0.0909
11034TIP3   OH254592   6.657   4.593   2.670  0.3215 -0.3777  0.2444
11034TIP3    H154593   6.658   4.603   2.575  1.4817 -0.4789  0.2309
11034TIP3    H254594   6.650   4.683   2.704  1.5801 -0.1937  0.0615
11035TIP3   OH254595   6.324   1.561  11.286 -0.1496  0.2113 -0.3405
11035TIP3    H154596   6.290   1.493  11.228  0.9117 -0.1577 -0.5485
11035TIP3    H254597   6.259   1.631  11.282 -2.3423 -1.6402  1.5479
11036TIP3   OH254598   2.516   6.301  11.788  0.2096 -0.2788  0.5323
11036TIP3    H154599   2.574   6.340  11.722  0.0800  0.4117  0.8243
11036TIP3    H254600   2.550   6.213  11.801  0.8943 -0.0406  0.3414
11037TIP3   OH254601   1.561   0.786   6.080 -0.0693  0.0232 -0.6632
11037TIP3    H154602   1.507   0.768   6.157 -0.7593 -0.1161 -1.1713
11037TIP3    H254603   1.541   0.878   6.059  0.2100  0.0968 -0.6023
11038TIP3   OH254604   4.438   1.980  13.284 -0.3373  0.2657 -0.1516
11038TIP3    H154605   4.530   1.999  13.298  0.2118 -2.3224 -0.0927
11038TIP3    H254606   4.401   2.063  13.253  1.4063  2.0793  2.4523
11039TIP3   OH254607   5.490   3.153   2.091  0.2701  0.0939  0.2439
11039TIP3    H154608   5.585   3.147   2.098  0.2938  0.6124  0.4424
11039TIP3    H254609   5.458   3.130   2.178  0.1848 -0.6366  0.0180
11040TIP3   OH254610   4.913   2.693   4.908  0.5089 -0.3099  0.0686
11040TIP3    H154611   4.854   2.656   4.842  2.3117  0.3805 -1.9876
11040TIP3    H254612   4.979   2.740   4.858  1.5876  0.7743  2.4123
11041TIP3   OH254613   2.763   2.737   0.437  0.2003 -0.5132  0.0326
11041TIP3    H154614   2.838   2.790   0.464 -0.0917 -0.6060  1.0232
11041TIP3    H254615   2.747   2.764   0.346  0.7352  0.3117  0.1750
11042TIP3   OH254616   6.342   6.335   6.584  0.2478  0.5595  0.1017
11042TIP3    H154617   6.266   6.302   6.631  0.5012 -1.0207 -0.5763
11042TIP3    H254618   6.390   6.387   6.649 -0.4037 -0.0221  1.0505
11043TIP3   OH254619   2.838   1.851   4.964  0.3169 -0.3143 -0.1606
11043TIP3    H154620   2.898   1.838   4.891  0.8636  0.8121  0.0902
11043TIP3    H254621   2.875   1.798   5.035 -0.2894 -1.5172 -0.7271
11044TIP3   OH254622   5.516   2.614   0.110  0.3603 -0.3341 -0.0154
11044TIP3    H154623   5.558   2.601   0.195  1.0423  0.0840 -0.2859
11044TIP3    H254624   5.540   2.703   0.085  1.0921 -0.8418 -1.1611
11045TIP3   OH254625   1.582   2.881   1.758  0.6149  0.2257  0.0480
11045TIP3    H154626   1.644   2.853   1.691 -1.6508  0.1747 -2.1436
11045TIP3    H254627   1.552   2.801   1.800  0.3861  0.0589 -0.4316
11046TIP3   OH254628   3.556   1.228  12.355 -0.3194  0.3411 -0.4139
11046TIP3    H154629   3.533   1.144  12.314  0.2991  0.5291 -1.1537
11046TIP3    H254630   3.490   1.240  12.423 -1.0439 -0.2373 -1.0039
11047TIP3   OH254631   4.538   1.953  12.656 -0.2993  0.1047  0.6550
11047TIP3    H154632   4.567   1.866  12.631 -0.5008 -0.5576  2.6727
11047TIP3    H254633   4.462   1.970  12.601 -1.2144 -1.6518  1.3338
11048TIP3   OH254634   5.825   5.292   4.250  0.4728 -0.4190 -0.5311
11048TIP3    H154635   5.814   5.356   4.179 -1.0072  1.2096  1.1186
11048TIP3    H254636   5.914   5.309   4.283  0.0418  0.8917 -0.0222
11049TIP3   OH254637   0.189   2.675  16.087 -0.1294 -0.1715 -0.1941
11049TIP3    H154638   0.135   2.597  16.086 -1.0393  0.4633 -0.9181
11049TIP3    H254639   0.277   2.644  16.064  0.0044 -1.3202  1.7129
11050TIP3   OH254640   6.628   0.029  12.867  0.4086 -0.0704 -0.2497
11050TIP3    H154641   6.550   0.030  12.923 -0.3171  1.3050 -1.2512
11050TIP3    H254642   6.699   0.000  12.925 -0.6578 -0.3669  0.9216
11051TIP3   OH254643   6.714   1.180   0.957 -0.3336 -0.2387  0.3276
11051TIP3    H154644   6.780   1.182   1.026  0.4462  2.9299 -0.4122
11051TIP3    H254645   6.631   1.193   1.003 -0.0812 -0.6308  0.9000
11052TIP3   OH254646   3.098   5.121   2.662  0.3200  0.2422 -0.0849
11052TIP3    H154647   3.075   5.030   2.642  1.7949 -0.1019 -0.2753
11052TIP3    H254648   3.024   5.172   2.630 -0.8186 -0.9517  0.6260
11053TIP3   OH254649   4.803   4.496   3.544  0.6634  1.0621 -0.3473
11053TIP3    H154650   4.840   4.568   3.493  1.2944  1.9801  1.3582
11053TIP3    H254651   4.780   4.430   3.479  2.4360  1.7559 -1.7297
11054TIP3   OH254652   0.008   6.158  10.504 -0.0673  0.2154  0.0593
11054TIP3    H154653   0.013   6.254  10.496  0.5536  0.1974  0.2009
11054TIP3    H254654   0.091   6.133  10.546 -0.4499 -0.3346  0.5034
11055TIP3   OH254655   2.897   4.778   3.127 -0.1390 -0.3789 -0.0023
11055TIP3    H154656   2.939   4.692   3.122 -0.4722 -0.4257 -2.6947
11055TIP3    H254657   2.964   4.834   3.166  1.2746 -1.1898 -1.1800
11056TIP3   OH254658   5.094   6.267  14.868 -0.5427  0.2635  0.0337
11056TIP3    H154659   5.086   6.181  14.909  0.6073  0.9536  1.7726
11056TIP3    H254660   5.024   6.319  14.907  0.2377  0.7765  0.7796
11057TIP3   OH254661   5.046   6.660  14.948  0.0109 -0.1075 -0.1133
11057TIP3    H154662   5.014   6.570  14.950  1.5617 -0.7314 -1.7407
11057TIP3    H254663   5.066   6.676  14.856  2.0639  1.0569  0.5016
11058TIP3   OH254664   3.837   3.560   4.196 -0.5179  0.6896 -0.1295
11058TIP3    H154665   3.877   3.634   4.152  1.4427 -0.5598 -0.4921
11058TIP3    H254666   3.905   3.493   4.198 -2.3951 -1.2957 -0.2638
11059TIP3   OH254667   5.975   1.037  11.562 -0.5571 -0.4176 -0.4256
11059TIP3    H154668   6.035   1.041  11.487  0.7523  0.9090  0.6566
11059TIP3    H254669   6.008   0.964  11.615  0.4774  0.6734  0.4580
11060TIP3   OH254670   4.246   4.189   3.649 -0.3692 -0.0320 -0.2091
11060TIP3    H154671   4.282   4.114   3.601  0.9358  0.1535  0.4655
11060TIP3    H254672   4.211   4.246   3.580 -0.0048 -0.5430 -0.8330
11061TIP3   OH254673   3.673   3.092   3.210 -0.0429 -0.5147 -0.3464
11061TIP3    H154674   3.666   3.187   3.215 -0.2695 -0.4839 -1.2380
11061TIP3    H254675   3.589   3.063   3.174 -1.0441 -1.2772  2.4172
11062TIP3   OH254676   0.471   3.541  15.021  0.0233 -0.3840 -0.3184
11062TIP3    H154677   0.526   3.496  15.085 -1.0712  0.5525  1.3477
11062TIP3    H254678   0.410   3.473  14.990 -1.4133 -0.2002  1.9394
11063TIP3   OH254679   5.873   1.849  14.075 -0.0102  0.1815  0.2535
11063TIP3    H154680   5.916   1.813  14.152  2.2317 -0.1324 -1.0761
11063TIP3    H254681   5.853   1.940  14.099 -0.1206 -0.1674  1.5057
11064TIP3   OH254682   1.439   4.674   6.041  0.0682  0.5440 -0.0735
11064TIP3    H154683   1.366   4.614   6.026 -1.1530  1.8852  0.3468
11064TIP3    H254684   1.457   4.668   6.135  1.7460 -1.1567 -0.4770
11065TIP3   OH254685   6.407   5.044   3.699  0.3010  0.1375  0.2070
11065TIP3    H154686   6.320   5.083   3.687  0.9948  1.0338 -2.2128
11065TIP3    H254687   6.461   5.117   3.730  0.3703 -0.2558  1.0312
11066TIP3   OH254688   0.006   1.816   2.355  0.6920 -0.3507  0.0937
11066TIP3    H154689  -0.060   1.754   2.325  1.7977 -0.8176 -1.4811
11066TIP3    H254690   0.089   1.776   2.329  1.5554  0.5243  1.4698
11067TIP3   OH254691   3.196   6.569   4.131  0.4147 -0.1166 -0.2451
11067TIP3    H154692   3.207   6.598   4.221 -0.5819  0.3764 -0.2681
11067TIP3    H254693   3.213   6.647   4.078  0.7800 -0.3498 -0.4736
11068TIP3   OH254694   6.279   4.692   2.782 -0.0313  0.3875  0.1943
11068TIP3    H154695   6.305   4.604   2.810 -0.5634  0.3057  0.4422
11068TIP3    H254696   6.183   4.687   2.775  0.0653  0.4812 -1.3846
11069TIP3   OH254697   0.412   6.646   2.984 -0.0888  0.0681  0.4157
11069TIP3    H154698   0.506   6.651   2.966  0.1312 -0.5055  1.3264
11069TIP3    H254699   0.407   6.597   3.067 -1.2225 -0.5612 -0.0139
11070TIP3   OH254700   5.284   5.916   1.237 -0.2139  0.0126 -0.2791
11070TIP3    H154701   5.225   5.961   1.176  2.5224 -0.2815 -3.3130
11070TIP3    H254702   5.365   5.903   1.186  1.3303 -2.4781  2.6648
11071TIP3   OH254703   6.171   2.918  13.767 -0.0758  0.6769  0.1010
11071TIP3    H154704   6.086   2.922  13.810 -0.8575  0.6699 -1.4083
11071TIP3    H254705   6.201   2.828  13.780 -0.1199  0.7825  0.9555
11072TIP3   OH254706   0.343   1.198   4.944  0.0752  0.3547 -0.3907
11072TIP3    H154707   0.274   1.161   4.999  0.3263  0.8668  0.2671
11072TIP3    H254708   0.300   1.268   4.895 -0.0451  0.1873 -0.5250
11073TIP3   OH254709   6.698   2.057  15.794  0.1495 -0.2162  0.5423
11073TIP3    H154710   6.673   1.996  15.725 -0.2883 -0.0444  0.5467
11073TIP3    H254711   6.715   2.139  15.748  1.3021 -0.4934  0.4681
11074TIP3   OH254712   6.553   0.817  14.287  0.5998 -0.0977 -0.4649
11074TIP3    H154713   6.612   0.753  14.247  0.7572 -0.0369 -0.3285
11074TIP3    H254714   6.466   0.778  14.277  0.5237  0.3707 -1.7474
11075TIP3   OH254715   4.327   5.270   0.288  0.3986  0.1422 -0.1466
11075TIP3    H154716   4.274   5.324   0.230 -1.4018  0.5069  1.8005
11075TIP3    H254717   4.319   5.181   0.251  0.1273  0.5327 -1.0431
11076TIP3   OH254718   4.442   4.413  13.530 -0.1357 -0.0948 -0.1600
11076TIP3    H154719   4.507   4.407  13.460  1.5936  2.5707  1.1286
11076TIP3    H254720   4.414   4.322  13.544  1.6741 -1.0359 -2.2745
11077TIP3   OH254721   1.998   5.991   3.584  0.4846 -0.0643  0.5906
11077TIP3    H154722   2.088   5.959   3.575  0.7737  1.2204 -1.2916
11077TIP3    H254723   1.961   5.985   3.496 -1.0177  0.2218  1.1790
11078TIP3   OH254724   3.400   4.692  15.852 -0.2171 -0.0862  0.4601
11078TIP3    H154725   3.451   4.616  15.824  0.7673  0.8402 -0.3092
11078TIP3    H254726   3.326   4.655  15.899  0.1821 -1.5314 -0.0165
11079TIP3   OH254727   0.502   5.371   5.258  0.7487 -0.1843 -0.6986
11079TIP3    H154728   0.465   5.458   5.275  0.1593 -0.6099  0.2348
11079TIP3    H254729   0.584   5.370   5.308  1.4185  0.3049 -1.7666
11080TIP3   OH254730   1.190   2.039  14.931 -0.4087 -0.0901  0.7682
11080TIP3    H154731   1.252   2.030  14.859  0.9720 -0.9517  2.0446
11080TIP3    H254732   1.189   2.133  14.949 -1.0355  0.1810 -0.5865
11081TIP3   OH254733   0.437   6.482   2.032  0.5200  0.3775  0.0540
11081TIP3    H154734   0.414   6.498   2.123  1.3342  1.3443  0.1014
11081TIP3    H254735   0.374   6.416   2.002  0.5983 -0.3606  1.4747
11082TIP3   OH254736   2.215   3.078  15.868  0.2238 -0.5115 -0.0438
11082TIP3    H154737   2.271   3.134  15.922 -0.6226 -0.3985  0.7394
11082TIP3    H254738   2.241   2.989  15.890 -0.2131 -0.4699  0.6729
11083TIP3   OH254739   4.058   1.311  16.989  0.5108  0.1902 -0.0204
11083TIP3    H154740   4.068   1.388  16.933 -0.1587  0.8523  0.7666
11083TIP3    H254741   4.029   1.242  16.929  1.3757  0.4693 -0.7801
11084TIP3   OH254742   3.991   0.109  14.499  0.0979  0.1929 -0.1248
11084TIP3    H154743   4.002   0.090  14.406  0.2554 -0.2317 -0.0173
11084TIP3    H254744   4.004   0.025  14.543 -0.8370  0.2162  0.2128
11085TIP3   OH254745   5.746   2.735  12.600  0.3711  0.1372  0.5875
11085TIP3    H154746   5.678   2.734  12.667  0.6215 -0.0695  0.8403
11085TIP3    H254747   5.824   2.768  12.646  0.9185 -1.3856  0.7655
11086TIP3   OH254748   1.720   2.279  15.510 -0.2943  0.0862 -0.0474
11086TIP3    H154749   1.797   2.315  15.465 -0.3872  1.9341  1.2330
11086TIP3    H254750   1.751   2.259  15.598 -0.7271 -1.2536 -0.1881
11087TIP3   OH254751   6.160   6.111   3.991 -0.5030  0.3282 -0.5700
11087TIP3    H154752   6.230   6.055   4.025 -0.9224 -0.4895 -1.0537
11087TIP3    H254753   6.192   6.200   4.007  1.1399 -0.0161 -1.7500
11088TIP3   OH254754   6.179   0.545  11.438  0.1218  0.6471  0.0837
11088TIP3    H154755   6.142   0.605  11.373 -0.0324  0.5468  0.0764
11088TIP3    H254756   6.271   0.571  11.445  0.2302  0.4165 -0.4466
11089TIP3   OH254757   1.114   2.985   6.011 -0.5256  0.2321 -0.0118
11089TIP3    H154758   1.200   2.999   5.971  1.1765 -2.3553  2.4948
11089TIP3    H254759   1.069   2.926   5.951  0.5133 -0.5301 -0.0617
11090TIP3   OH254760   1.617   3.773  12.825  0.3700 -0.5511 -0.5273
11090TIP3    H154761   1.706   3.762  12.856  0.3394 -1.3057 -0.7047
11090TIP3    H254762   1.573   3.823  12.894  1.2095  0.7856 -0.9314
11091TIP3   OH254763   1.255   0.556   4.611  0.2782 -0.7239 -0.0603
11091TIP3    H154764   1.209   0.615   4.671 -0.6161  1.7808 -3.1044
11091TIP3    H254765   1.190   0.532   4.546  1.2939 -3.2153 -0.2009
11092TIP3   OH254766   5.882   0.678  11.476  0.7483 -0.5675 -0.1844
11092TIP3    H154767   5.884   0.723  11.391  1.9079 -2.5622 -1.2696
11092TIP3    H254768   5.887   0.585  11.453 -0.2447 -1.1965  2.0371
11093TIP3   OH254769   4.825   5.554   3.662 -0.4818 -0.3784  0.4949
11093TIP3    H154770   4.758   5.502   3.707 -1.7621  0.6658 -0.1921
11093TIP3    H254771   4.891   5.569   3.730 -0.9276 -1.4010  1.1881
11094TIP3   OH254772   1.866   2.228  12.974 -0.2642  0.2044  0.0184
11094TIP3    H154773   1.909   2.151  12.938 -2.9544 -1.5716  0.5151
11094TIP3    H254774   1.935   2.273  13.023  1.2030 -2.2197  0.2594
11095TIP3   OH254775   2.010   0.131  13.421  0.7188 -0.1358 -1.3405
11095TIP3    H154776   2.026   0.225  13.430 -0.1115 -0.1708  0.7090
11095TIP3    H254777   2.042   0.093  13.503  2.3461 -1.8272 -2.7281
11096TIP3   OH254778   1.515   1.603   0.508  0.2604  0.0079  0.1228
11096TIP3    H154779   1.431   1.644   0.489  0.5611  1.4913  1.8139
11096TIP3    H254780   1.580   1.671   0.488  0.9294 -0.4642  0.6479
11097TIP3   OH254781   2.918   1.410   4.591 -0.1706  0.0864 -0.5602
11097TIP3    H154782   2.940   1.467   4.517  0.0111  0.0330 -0.5478
11097TIP3    H254783   2.838   1.365   4.563  0.0499 -0.1376 -0.8369
11098TIP3   OH254784   0.023   2.726   2.379  0.1086 -0.4523 -0.1594
11098TIP3    H154785   0.045   2.705   2.288 -1.1098 -2.4020 -0.0193
11098TIP3    H254786  -0.014   2.814   2.375  0.9486 -0.1430 -1.4159
11099TIP3   OH254787   4.555   5.031  11.300 -0.2151 -0.1202 -0.1592
11099TIP3    H154788   4.651   5.028  11.298 -0.1909  0.9180 -3.6821
11099TIP3    H254789   4.527   4.948  11.262 -0.6082  1.3235 -3.1701
11100TIP3   OH254790   2.626   4.671  12.070  0.2698 -0.7732  0.0675
11100TIP3    H154791   2.573   4.750  12.060  1.6395  0.2367  0.6114
11100TIP3    H254792   2.677   4.666  11.989  0.7743 -0.6549  0.3783
11101TIP3   OH254793   6.030   1.122  16.989  0.3338 -0.1103  0.1385
11101TIP3    H154794   6.020   1.176  17.067 -0.8217  2.1999 -1.5641
11101TIP3    H254795   5.977   1.044  17.007 -0.0993  0.5026  1.5550
11102TIP3   OH254796   3.218   1.026   0.345 -0.5689 -0.4675 -0.3818
11102TIP3    H154797   3.250   0.960   0.284 -0.9890 -3.0304  2.0699
11102TIP3    H254798   3.123   1.020   0.340 -0.6069 -0.3323  0.0988
11103TIP3   OH254799   5.956   1.835   4.895  0.0310 -0.0427 -0.2661
11103TIP3    H154800   5.985   1.849   4.805 -0.6408 -1.3899 -0.7213
11103TIP3    H254801   5.882   1.894   4.906  0.3517  0.3975 -0.4793
11104TIP3   OH254802   6.819   1.495  15.604  0.0053  0.4042 -0.4874
11104TIP3    H154803   6.910   1.524  15.597  0.0358  0.6244  0.7910
11104TIP3    H254804   6.773   1.570  15.641 -0.2737 -0.5022  1.0365
11105TIP3   OH254805   4.488   4.573  15.068 -0.4691 -0.2295  0.1485
11105TIP3    H154806   4.462   4.664  15.051 -0.3252 -0.3662 -0.8629
11105TIP3    H254807   4.446   4.551  15.151 -2.6981 -0.0891 -0.9057
11106TIP3   OH254808   5.541   2.095   1.398  0.6583  0.0447  0.7348
11106TIP3    H154809   5.568   2.006   1.376 -1.8216  0.3030 -3.7515
11106TIP3    H254810   5.621   2.147   1.387  0.6185 -0.6261 -3.3403
11107TIP3   OH254811   6.088   5.997  10.923 -0.0239  0.5883 -0.3729
11107TIP3    H154812   6.144   5.931  10.883  2.4194  2.6302 -0.4269
11107TIP3    H254813   6.061   5.958  11.006  0.9598 -0.6593 -0.6271
11108TIP3   OH254814   5.085   2.862  14.584 -0.0480  0.4951  0.0153
11108TIP3    H154815   4.995   2.835  14.563  0.7123 -2.1855  0.1096
11108TIP3    H254816   5.137   2.829  14.512  1.0294  1.1457  0.4892
11109TIP3   OH254817   4.512   2.062  16.813  0.5811 -0.3824  0.0145
11109TIP3    H154818   4.596   2.035  16.776  0.2728 -0.3398 -0.7183
11109TIP3    H254819   4.500   2.152  16.784  0.9558  0.1067  1.3243
11110TIP3   OH254820   6.545   3.687  15.923  0.0816  0.1861  0.5614
11110TIP3    H154821   6.592   3.679  16.007 -0.9306 -0.2878  1.0855
11110TIP3    H254822   6.457   3.715  15.948 -0.2139  0.0644 -0.3512
11111TIP3   OH254823   0.979   3.800  15.066 -0.2892  0.3407  0.4129
11111TIP3    H154824   0.905   3.783  15.008 -0.4453  0.2065  0.6488
11111TIP3    H254825   0.939   3.824  15.150 -0.0896  2.5442 -0.0810
11112TIP3   OH254826   1.758   0.077  16.649  0.4576 -0.1840 -0.2384
11112TIP3    H154827   1.742   0.080  16.743 -2.7340 -2.7228 -0.5871
11112TIP3    H254828   1.799  -0.008  16.634 -1.0218 -0.7394 -1.3232
11113TIP3   OH254829   2.086   4.591  15.633  0.2029 -0.1169 -0.0303
11113TIP3    H154830   2.151   4.522  15.619  1.7392  1.1427  0.7042
11113TIP3    H254831   2.103   4.622  15.721 -1.2840  0.3845  0.0952
11114TIP3   OH254832   5.795   5.414  15.570 -0.3039  0.1772 -0.4397
11114TIP3    H154833   5.815   5.463  15.650  0.5462  0.3534 -0.7523
11114TIP3    H254834   5.702   5.429  15.555 -0.1484  1.3468 -0.2881
11115TIP3   OH254835   3.973   4.192   5.032  0.3602  0.5044  0.4631
11115TIP3    H154836   4.028   4.262   4.997  0.3583 -0.0499 -0.6755
11115TIP3    H254837   3.884   4.218   5.009  0.4209 -0.2370 -0.6156
11116TIP3   OH254838   0.931   2.219  12.411 -0.5960 -0.3197  0.1228
11116TIP3    H154839   0.851   2.249  12.369 -0.3375  0.8585  0.4427
11116TIP3    H254840   1.000   2.235  12.345 -0.7212 -2.1634 -0.5022
11117TIP3   OH254841   1.149   1.030   1.420  0.4695 -0.3528 -0.0017
11117TIP3    H154842   1.202   0.952   1.438  2.1555  1.1228  1.5340
11117TIP3    H254843   1.131   1.067   1.507  0.7727  1.6891 -0.8044
11118TIP3   OH254844   1.177   0.789  14.127 -0.2950 -0.8954 -0.0213
11118TIP3    H154845   1.126   0.829  14.197  1.1018  2.0923 -0.6558
11118TIP3    H254846   1.125   0.805  14.048  0.1587 -0.5073 -0.2437
11119TIP3   OH254847   2.486   1.417  15.548  0.7042 -0.4403 -0.6242
11119TIP3    H154848   2.473   1.329  15.582 -1.6758  0.0300 -0.1784
11119TIP3    H254849   2.535   1.463  15.616 -0.3793 -0.6844  0.3405
11120TIP3   OH254850   5.844   3.310  13.748  0.1161  0.1601  0.0706
11120TIP3    H154851   5.875   3.292  13.659  0.9408  1.5765  0.0550
11120TIP3    H254852   5.903   3.378  13.780 -0.0919 -0.4367  1.7585
11121TIP3   OH254853   6.244   3.612  10.974 -0.1738 -0.9399  0.8788
11121TIP3    H154854   6.335   3.629  11.002  0.3520 -0.0951 -1.2294
11121TIP3    H254855   6.253   3.576  10.885 -1.8501 -2.3120  1.2494
11122TIP3   OH254856   0.352   3.308   4.645  0.6592 -0.6236  0.5126
11122TIP3    H154857   0.313   3.387   4.607  0.2107 -1.3257 -0.5101
11122TIP3    H254858   0.324   3.310   4.737  2.5903  1.6225  1.1088
11123TIP3   OH254859   6.416   6.226   0.617 -0.3435  0.1318 -0.2285
11123TIP3    H154860   6.433   6.285   0.691 -1.0293 -0.1993  0.1927
11123TIP3    H254861   6.341   6.174   0.645 -2.7087  2.2073 -2.4045
11124TIP3   OH254862   5.010   2.051  12.304 -0.0308 -0.0751  0.1575
11124TIP3    H154863   5.023   2.115  12.374  1.5426  0.9717 -1.0533
11124TIP3    H254864   5.093   2.052  12.256 -1.2743 -0.4139 -2.0184
11125TIP3   OH254865   6.786   0.851  15.998  0.5950  0.3176  0.3716
11125TIP3    H154866   6.752   0.790  16.063 -0.4567 -0.5444 -0.9859
11125TIP3    H254867   6.807   0.797  15.922  1.3247  1.3989 -0.2098
11126TIP3   OH254868   3.155   2.011  16.293  0.1263  0.2142  0.0842
11126TIP3    H154869   3.085   2.058  16.247 -0.5313 -0.4382  0.3968
11126TIP3    H254870   3.222   2.078  16.309 -0.8295  1.0745  0.6048
11127TIP3   OH254871   2.723   5.419  15.130  0.0572 -0.0013  0.0354
11127TIP3    H154872   2.640   5.373  15.139 -0.8005  1.5901  0.6324
11127TIP3    H254873   2.763   5.382  15.052 -1.0830 -0.9851 -0.1074
11128TIP3   OH254874   2.425   2.768   2.900 -0.4365 -0.3377 -0.3549
11128TIP3    H154875   2.451   2.775   2.992 -1.2488  0.0397 -0.1472
11128TIP3    H254876   2.331   2.784   2.901 -0.5703 -1.0790 -1.1644
11129TIP3   OH254877   5.254   2.343  12.694  0.0128 -0.6114  0.6398
11129TIP3    H154878   5.232   2.410  12.759  0.8451  0.9095 -0.5895
11129TIP3    H254879   5.349   2.348  12.687 -0.0789 -0.6846 -0.7546
11130TIP3   OH254880   1.458   4.005  14.415  0.6523 -0.1163 -0.3026
11130TIP3    H154881   1.396   3.932  14.423  0.3481  0.1007 -0.6754
11130TIP3    H254882   1.537   3.973  14.458 -0.5631  0.6040  2.5427
11131TIP3   OH254883   2.799   4.890  14.439  0.2698  0.6883 -0.3318
11131TIP3    H154884   2.812   4.850  14.353  0.2724 -0.6431  0.2823
11131TIP3    H254885   2.741   4.829  14.485 -1.0836  2.2060  0.0356
11132TIP3   OH254886   4.161   3.285  15.280 -0.0632 -0.0463  0.2455
11132TIP3    H154887   4.251   3.309  15.298  0.4203 -1.2081 -0.5079
11132TIP3    H254888   4.146   3.206  15.333 -0.6280  0.1410  0.3672
11133TIP3   OH254889   4.541   4.548   5.416 -0.0127  0.1934 -0.2192
11133TIP3    H154890   4.500   4.464   5.395  1.9673 -0.9709  0.3774
11133TIP3    H254891   4.487   4.584   5.487 -0.2592 -1.0890  0.2570
11134TIP3   OH254892   0.392   4.441   4.822 -0.3428 -0.2995  0.3863
11134TIP3    H154893   0.386   4.479   4.735  0.6028  0.9499  0.8583
11134TIP3    H254894   0.364   4.350   4.811 -0.9130  0.0500 -1.0766
11135TIP3   OH254895   6.100   3.527  10.759 -0.0668  0.6796 -0.1121
11135TIP3    H154896   6.017   3.570  10.737  0.0697  0.6733 -0.6414
11135TIP3    H254897   6.131   3.490  10.676  1.0228  1.6426 -0.1605
11136TIP3   OH254898   6.639   6.817  16.916  0.4152  0.9800 -0.2605
11136TIP3    H154899   6.653   6.858  16.830 -1.4063  0.4642 -0.8322
11136TIP3    H254900   6.688   6.735  16.911  0.0201  0.7748 -0.9708
11137TIP3   OH254901   2.765   0.503  15.865  0.0454 -0.5672  0.6520
11137TIP3    H154902   2.825   0.568  15.828  1.0220 -1.0682  1.3313
11137TIP3    H254903   2.755   0.437  15.796 -1.1851  0.4497 -0.1488
11138TIP3   OH254904   3.066   2.976   1.125 -0.4417 -0.4047  0.4001
11138TIP3    H154905   3.006   2.957   1.197  1.4948  0.3825  2.2703
11138TIP3    H254906   3.148   2.935   1.150  1.0044  2.0773 -0.1147
11139TIP3   OH254907   1.293   3.481  12.981  0.1438  0.1618  0.2880
11139TIP3    H154908   1.317   3.427  13.057 -2.4536 -4.0032 -1.6969
11139TIP3    H254909   1.211   3.523  13.006 -0.0027 -0.1266  0.2932
11140TIP3   OH254910   6.612   2.248  10.482  0.0750  0.0406 -0.2912
11140TIP3    H154911   6.534   2.210  10.442  0.8440 -0.0130 -1.7646
11140TIP3    H254912   6.578   2.308  10.549 -1.1593 -2.7370  1.6330
11141TIP3   OH254913   2.089   3.977   1.756 -0.0732 -0.4341  0.1466
11141TIP3    H154914   2.107   4.023   1.838 -1.0919  0.4440 -0.1176
11141TIP3    H254915   2.156   4.008   1.695  0.6557 -1.0506  0.6247
11142TIP3   OH254916   2.459   6.663  13.637 -0.3943  1.0126  0.8061
11142TIP3    H154917   2.426   6.583  13.679  0.4414 -0.4103 -1.1630
11142TIP3    H254918   2.390   6.727  13.650 -1.4072 -0.2436  1.7849
11143TIP3   OH254919   4.841   5.919   1.072  0.0728 -0.3066 -0.1009
11143TIP3    H154920   4.792   5.963   1.141 -1.2267  0.3195 -1.4079
11143TIP3    H254921   4.925   5.964   1.070 -0.1075  0.0645  0.6558
11144TIP3   OH254922   2.649   2.957  11.965  0.1331  0.1616 -0.0388
11144TIP3    H154923   2.636   2.877  12.016  0.2380  0.6584  0.7762
11144TIP3    H254924   2.609   3.026  12.017  2.3046  1.0601  0.5288
11145TIP3   OH254925   0.793   6.250  13.640 -0.4409 -0.1106  0.2469
11145TIP3    H154926   0.801   6.239  13.545  0.3325 -2.6872  0.5739
11145TIP3    H254927   0.699   6.247  13.657 -0.6122  0.8526 -0.4648
11146TIP3   OH254928   4.102   2.315   1.247 -0.0071 -0.1263 -0.8250
11146TIP3    H154929   4.091   2.382   1.316 -3.1869 -0.1573 -1.2367
11146TIP3    H254930   4.096   2.364   1.165  3.1720 -0.1863 -1.1698
11147TIP3   OH254931   5.018   4.057   5.700 -0.0264  0.2358  0.0184
11147TIP3    H154932   4.966   4.137   5.700  0.0988  0.3171  0.0849
11147TIP3    H254933   4.989   4.009   5.622 -1.8465 -0.8027  1.3243
11148TIP3   OH254934   4.092   5.673  11.440 -0.1344 -0.3877 -0.3140
11148TIP3    H154935   4.154   5.603  11.460  0.3852 -0.1693 -1.0862
11148TIP3    H254936   4.013   5.651  11.489 -0.0606 -1.6419 -0.7315
11149TIP3   OH254937   4.959   2.896   1.662  0.1813 -0.1402  0.8138
11149TIP3    H154938   5.043   2.863   1.631  0.8680  2.3496 -0.0878
11149TIP3    H254939   4.981   2.973   1.714 -1.3410 -1.3000  3.2904
11150TIP3   OH254940   0.128   2.477  10.781  0.3032 -0.1628 -0.2551
11150TIP3    H154941   0.180   2.397  10.777 -0.6947 -0.9238  1.4130
11150TIP3    H254942   0.165   2.526  10.855  0.0809  0.3294 -0.4681
11151TIP3   OH254943   1.445   3.440   4.387 -0.1401  0.4178  0.0807
11151TIP3    H154944   1.356   3.444   4.350  0.5741  2.4390 -1.5305
11151TIP3    H254945   1.436   3.388   4.467 -2.5016 -0.6321 -0.8171
11152TIP3   OH254946   4.264   0.158  15.392  0.0067  0.1392  0.6750
11152TIP3    H154947   4.344   0.191  15.432  0.1754  1.1645 -0.4667
11152TIP3    H254948   4.205   0.234  15.390 -0.9314 -0.5595  1.3558
11153TIP3   OH254949   2.487   0.713   6.663 -0.1030  0.0285  0.2768
11153TIP3    H154950   2.423   0.757   6.719  0.7987  1.7024  0.0227
11153TIP3    H254951   2.564   0.770   6.665  0.4117 -0.5712 -1.6058
11154TIP3   OH254952   3.390   4.949  13.916 -0.4611  0.1904 -0.2422
11154TIP3    H154953   3.418   4.970  13.827  0.3362 -0.3061 -0.1134
11154TIP3    H254954   3.392   5.033  13.962  1.1774  0.1076 -0.1435
11155TIP3   OH254955   2.148   4.976   0.048  0.0513  0.0111 -0.7024
11155TIP3    H154956   2.215   4.931  -0.003  0.8655  1.7842 -1.2466
11155TIP3    H254957   2.087   5.011  -0.017  0.5460  1.4177 -0.4403
11156TIP3   OH254958   1.704   4.526   5.444 -0.0284  0.2001  0.6615
11156TIP3    H154959   1.763   4.464   5.487 -0.2673 -0.5033 -0.0210
11156TIP3    H254960   1.617   4.504   5.479 -0.2149 -0.3357 -0.1308
11157TIP3   OH254961   4.525   3.830   0.184  0.2537  0.0329  1.1725
11157TIP3    H154962   4.616   3.817   0.211  0.3156  0.4647  1.1851
11157TIP3    H254963   4.482   3.866   0.262  0.1754  0.2290  1.0401
11158TIP3   OH254964   0.296   1.993   0.900 -0.7599 -0.0440  0.1474
11158TIP3    H154965   0.344   1.993   0.983  2.4677 -0.0393 -1.6459
11158TIP3    H254966   0.325   2.074   0.857  0.3383 -1.7781 -2.4661
11159TIP3   OH254967   3.436   4.214  12.429  0.5646  0.1606 -0.1055
11159TIP3    H154968   3.396   4.290  12.388 -1.0886 -0.5515  0.1313
11159TIP3    H254969   3.363   4.152  12.440  1.6826 -1.0434  0.6233
11160TIP3   OH254970   1.658   4.503   2.122  0.4945  0.1571 -0.4459
11160TIP3    H154971   1.667   4.408   2.134 -0.8714  0.0368 -0.2945
11160TIP3    H254972   1.678   4.540   2.208  0.8768  0.0046 -0.4646
11161TIP3   OH254973   3.622   1.874   3.407 -0.2131  0.0685 -0.1214
11161TIP3    H154974   3.671   1.936   3.353 -0.3471 -0.4718 -0.8793
11161TIP3    H254975   3.530   1.888   3.384 -0.3730  0.6826  0.8745
11162TIP3   OH254976   0.761   5.676   4.132  0.1017  0.2367  0.3484
11162TIP3    H154977   0.777   5.582   4.132  0.3272  0.2740  0.2471
11162TIP3    H254978   0.847   5.715   4.148 -0.3128  0.3762  2.3044
11163TIP3   OH254979   0.965   3.762  12.121 -0.0299 -0.7448  0.5412
11163TIP3    H154980   0.892   3.765  12.183 -0.6686  4.3908 -0.2385
11163TIP3    H254981   1.040   3.795  12.170  0.5608 -1.0898 -0.1227
11164TIP3   OH254982   2.947   1.465  15.288  0.6475 -0.0874  0.9174
11164TIP3    H154983   3.021   1.465  15.348  1.1781  1.0764  0.2715
11164TIP3    H254984   2.881   1.520  15.330 -0.1129 -1.6271  1.7876
11165TIP3   OH254985   3.957   4.885   2.497  0.0532  0.1058  0.3051
11165TIP3    H154986   3.948   4.976   2.523  2.5223 -0.1968  2.3468
11165TIP3    H254987   4.021   4.886   2.426 -0.2743 -0.0089  0.0021
11166TIP3   OH254988   5.424   6.354  11.081 -0.6348  0.0173 -0.4354
11166TIP3    H154989   5.445   6.267  11.048 -0.6754  0.3432 -1.3343
11166TIP3    H254990   5.329   6.359  11.078 -0.7639 -0.6991  1.6836
11167TIP3   OH254991   4.566   2.123  15.899  0.1029 -0.1472 -0.1999
11167TIP3    H154992   4.501   2.179  15.942  2.6004  1.7710  1.1898
11167TIP3    H254993   4.650   2.150  15.937  1.8314 -1.9380 -2.6119
11168TIP3   OH254994   0.723   5.913   0.336  0.6018 -0.2105 -0.5933
11168TIP3    H154995   0.789   5.925   0.268  2.0330  0.5295  0.9090
11168TIP3    H254996   0.688   6.001   0.351 -0.4494 -0.5382 -1.1077
11169TIP3   OH254997   0.488   6.329  14.276  0.1750 -0.1306 -0.4278
11169TIP3    H154998   0.413   6.312  14.219  1.4004  0.5575 -2.2840
11169TIP3    H254999   0.481   6.263  14.345 -2.4061  0.2478 -0.2870
11170TIP3   OH255000   0.600   4.437   5.498 -0.4240 -0.3613  0.0259
11170TIP3    H155001   0.547   4.501   5.545  0.9713  1.6470 -1.0175
11170TIP3    H255002   0.689   4.474   5.499  0.5217 -2.5353 -0.1706
11171TIP3   OH255003   0.584   2.472  12.914 -0.5174 -0.2826 -0.9784
11171TIP3    H155004   0.571   2.397  12.972 -3.8462  0.9632  0.0045
11171TIP3    H255005   0.655   2.522  12.955  0.8091 -2.1463 -0.9246
11172TIP3   OH255006   4.264   3.000  16.227  0.0518 -0.0281 -0.6788
11172TIP3    H155007   4.322   2.948  16.171  0.8118 -0.2358  0.2823
11172TIP3    H255008   4.312   3.081  16.242 -1.4509  1.3253 -2.7841
11173TIP3   OH255009   2.143   2.864  13.807  0.0624  0.1204  0.0414
11173TIP3    H155010   2.213   2.893  13.749 -0.3744 -0.2648 -0.6923
11173TIP3    H255011   2.156   2.913  13.888  0.6511  0.6986 -0.4036
11174TIP3   OH255012   4.960   3.410   5.343  0.8852 -0.3395  0.2060
11174TIP3    H155013   5.042   3.459   5.345  0.8505 -0.1487 -1.6780
11174TIP3    H255014   4.897   3.471   5.304  0.2828 -1.0880 -0.0119
11175TIP3   OH255015   5.803   1.553  15.006 -0.0997 -0.0934  0.2181
11175TIP3    H155016   5.861   1.628  14.991 -0.9119  0.4590 -0.1998
11175TIP3    H255017   5.842   1.482  14.956  1.4411 -0.3406  1.7250
11176TIP3   OH255018   5.335   0.584  17.158 -0.0188  0.1214  0.1976
11176TIP3    H155019   5.256   0.624  17.195 -0.2515  0.4571 -0.6607
11176TIP3    H255020   5.305   0.535  17.082  0.1777 -2.1895  1.5535
11177TIP3   OH255021   6.312   6.690  13.569 -0.1064  0.3902 -0.1727
11177TIP3    H155022   6.348   6.607  13.539 -2.3968 -0.7475  0.0768
11177TIP3    H255023   6.327   6.691  13.663 -1.3314 -0.4306  0.0467
11178TIP3   OH255024   3.692   4.934  12.549 -0.5183  0.7129  0.5889
11178TIP3    H155025   3.701   5.029  12.549 -2.3465  0.9186 -0.7255
11178TIP3    H255026   3.677   4.912  12.640  1.7195  1.4720  1.1730
11179TIP3   OH255027   5.173   0.963   3.831 -0.1326 -0.3566  0.1309
11179TIP3    H155028   5.197   0.983   3.921 -0.6476 -0.4055  0.2808
11179TIP3    H255029   5.225   1.022   3.778 -1.1496  0.9130  0.5326
11180TIP3   OH255030   5.865   5.825   2.927  0.2218  0.3520  0.0719
11180TIP3    H155031   5.924   5.877   2.982  1.7942 -1.2460 -0.0727
11180TIP3    H255032   5.880   5.734   2.955 -3.4317  0.0373  1.2476
11181TIP3   OH255033   1.555   5.410   3.112 -0.5624 -0.0741  0.1483
11181TIP3    H155034   1.568   5.341   3.178  0.7217 -0.5401 -0.5712
11181TIP3    H255035   1.618   5.478   3.136  0.1438 -0.3917 -0.7852
11182TIP3   OH255036   0.418   2.318   5.054  0.1171  0.3219 -0.7553
11182TIP3    H155037   0.380   2.266   4.983  0.1303  1.1949 -1.4067
11182TIP3    H255038   0.419   2.408   5.020 -0.4026  0.8320  0.5612
11183TIP3   OH255039   1.797   0.610  12.558 -0.3710  0.3418 -0.6312
11183TIP3    H155040   1.786   0.584  12.649 -0.0587  0.8452 -0.4475
11183TIP3    H255041   1.771   0.702  12.556 -0.3151  0.3503 -1.0357
11184TIP3   OH255042   4.941   4.260  10.463 -0.5028 -0.2816 -0.2706
11184TIP3    H155043   5.020   4.219  10.429 -0.3904 -0.6528  0.4329
11184TIP3    H255044   4.886   4.274  10.386  0.2268 -0.0583 -0.7541
11185TIP3   OH255045   6.512   1.875   6.473  0.5957  0.4355 -0.3418
11185TIP3    H155046   6.474   1.945   6.526  1.0246 -0.1103  0.7084
11185TIP3    H255047   6.461   1.797   6.496  1.4100  0.0002 -0.0124
11186TIP3   OH255048   2.603   4.951   1.137 -0.5401  0.1814 -0.0177
11186TIP3    H155049   2.607   4.873   1.082  0.3163 -0.5951  1.1254
11186TIP3    H255050   2.612   5.024   1.075 -1.5559 -0.6018 -1.1130
11187TIP3   OH255051   6.218   0.700   5.299 -0.1964 -1.2210 -0.2358
11187TIP3    H155052   6.157   0.771   5.321  2.7108  1.4032 -0.2286
11187TIP3    H255053   6.201   0.682   5.207  0.7830  1.3604 -0.9599
11188TIP3   OH255054   6.212   5.289  15.886  0.0489 -0.1672 -0.6328
11188TIP3    H155055   6.293   5.334  15.864  0.1886 -0.0016  0.2226
11188TIP3    H255056   6.194   5.313  15.977 -0.0372 -1.5856 -0.2590
11189TIP3   OH255057   4.623   6.507  12.493 -0.7706 -0.1486  0.1380
11189TIP3    H155058   4.607   6.460  12.575 -2.7633 -0.1120 -0.2138
11189TIP3    H255059   4.608   6.442  12.424  2.6603 -0.6923 -0.2251
11190TIP3   OH255060   1.371   4.562  13.957 -0.4466 -0.3682 -0.1677
11190TIP3    H155061   1.366   4.468  13.974  0.5763 -0.6559 -1.3596
11190TIP3    H255062   1.282   4.594  13.969 -1.0425 -1.7044 -0.9067
11191TIP3   OH255063   0.232   3.298  10.821  0.1230  0.1227 -0.3678
11191TIP3    H155064   0.228   3.222  10.764 -1.3503  0.2963 -0.5148
11191TIP3    H255065   0.144   3.336  10.817  0.3786  0.8933  0.9834
11192TIP3   OH255066   6.207   2.768  14.850 -0.1465  0.3574  0.7896
11192TIP3    H155067   6.174   2.821  14.778  0.5654 -0.3641 -0.0868
11192TIP3    H255068   6.302   2.774  14.842 -0.0570 -1.1592  0.5847
11193TIP3   OH255069   2.267   5.274  11.241 -0.8325  0.0671  0.4598
11193TIP3    H155070   2.177   5.284  11.208 -1.1417 -0.3563  1.1698
11193TIP3    H255071   2.269   5.186  11.280 -0.0834  0.0395  0.3657
11194TIP3   OH255072   5.372   6.430  17.222 -0.1992  0.2347  0.3817
11194TIP3    H155073   5.351   6.345  17.184 -2.1313  1.4929 -1.4859
11194TIP3    H255074   5.383   6.413  17.316 -3.1271 -1.6520  0.4334
11195TIP3   OH255075   4.745   6.132   0.548  0.5348 -0.5132 -0.2729
11195TIP3    H155076   4.832   6.114   0.513  1.2528 -0.4851  1.4409
11195TIP3    H255077   4.739   6.077   0.626  0.1607  1.6000  1.2480
11196TIP3   OH255078   0.801   4.462  10.779 -0.2118 -0.0618 -0.1008
11196TIP3    H155079   0.880   4.511  10.801 -1.0381  1.1320  0.2874
11196TIP3    H255080   0.755   4.517  10.715 -2.1852  0.7028  1.8988
11197TIP3   OH255081   1.100   6.297  13.274 -0.1152 -0.0946 -0.2897
11197TIP3    H155082   1.029   6.232  13.277 -1.8994  1.8432  0.5075
11197TIP3    H255083   1.078   6.352  13.199  0.3474  0.7576  0.2023
11198TIP3   OH255084   2.684   0.245   4.711  0.7760 -0.3169  0.2766
11198TIP3    H155085   2.765   0.289   4.686  0.3425  1.2387  1.5156
11198TIP3    H255086   2.655   0.199   4.632  1.2460  1.6287 -1.0473
11199TIP3   OH255087   5.700   4.540   4.959 -0.0996 -0.0653 -0.0567
11199TIP3    H155088   5.691   4.452   4.995 -0.4696 -0.9022 -2.1111
11199TIP3    H255089   5.794   4.556   4.956 -0.0905  1.2247  3.9854
11200TIP3   OH255090   1.507   4.101  16.041  0.3520 -0.3913  0.5342
11200TIP3    H155091   1.500   4.196  16.049  0.8056 -0.3354  0.2892
11200TIP3    H255092   1.574   4.087  15.974 -0.0519 -0.8805  0.2218
11201TIP3   OH255093   1.102   3.283  11.323 -0.2737  0.4629 -0.2845
11201TIP3    H155094   1.051   3.222  11.270  0.3911  0.7879 -1.3162
11201TIP3    H255095   1.101   3.245  11.411  1.6506 -2.0034 -1.2788
11202TIP3   OH255096   6.264   0.303   3.340 -0.5271 -0.0936  0.2247
11202TIP3    H155097   6.255   0.382   3.287  0.2721  0.6159  1.1468
11202TIP3    H255098   6.231   0.328   3.427 -0.2085 -0.7567  0.5404
11203TIP3   OH255099   3.671   3.642  12.729 -0.0769  0.0305 -0.3941
11203TIP3    H155100   3.690   3.579  12.798 -2.3359  0.8151  0.9930
11203TIP3    H255101   3.752   3.648  12.679  0.7987 -2.4774  0.6326
11204TIP3   OH255102   2.901   4.309   5.742 -0.3630  0.2115  0.0026
11204TIP3    H155103   2.882   4.298   5.836 -1.0116  0.4550 -0.0957
11204TIP3    H255104   2.835   4.371   5.712 -0.1924  0.0833 -0.6316
11205TIP3   OH255105   3.273   4.877  17.182 -0.1084 -0.2830 -0.1743
11205TIP3    H155106   3.252   4.968  17.160  0.5035 -0.3153 -0.9125
11205TIP3    H255107   3.366   4.880  17.206  0.3598 -0.9932 -1.8405
11206TIP3   OH255108   5.297   0.515   3.013 -0.0055 -0.1651 -0.3400
11206TIP3    H155109   5.236   0.470   3.070  0.3767  0.5672  0.6628
11206TIP3    H255110   5.357   0.447   2.983 -1.2964 -0.8806 -1.3264
11207TIP3   OH255111   6.600   4.119   0.830  0.5400  0.1407  0.2164
11207TIP3    H155112   6.691   4.122   0.801  0.3161 -1.7308 -0.7078
11207TIP3    H255113   6.552   4.169   0.765  0.7599  0.2823  0.1626
11208TIP3   OH255114   5.082   1.445   4.595 -0.3229  0.0483  0.5432
11208TIP3    H155115   5.092   1.496   4.675 -0.8282  0.8598  0.1026
11208TIP3    H255116   5.032   1.368   4.622  1.6678 -0.9159  1.4843
11209TIP3   OH255117   1.748   3.174  12.041  0.3063 -0.0253  0.4283
11209TIP3    H155118   1.829   3.122  12.039 -0.7725 -1.7585 -0.3077
11209TIP3    H255119   1.680   3.111  12.016 -0.8249  2.1715 -2.2392
11210TIP3   OH255120   0.459   0.922  11.580 -0.2626 -0.0977 -0.0164
11210TIP3    H155121   0.459   0.964  11.666  0.9846 -1.8510  0.8845
11210TIP3    H255122   0.436   0.831  11.598  1.2378 -0.7765 -1.3733
11211TIP3   OH255123   1.634   3.827  14.020 -0.4439  0.3291 -0.6174
11211TIP3    H155124   1.697   3.827  14.092 -0.3804  0.3728 -0.6739
11211TIP3    H255125   1.655   3.748  13.970  0.1342  0.8081 -1.1335
11212TIP3   OH255126   0.855   6.061  16.855 -0.0930 -0.0134 -0.1429
11212TIP3    H155127   0.949   6.065  16.867  0.0587  0.5598 -1.4871
11212TIP3    H255128   0.821   6.035  16.941  1.3968 -1.8653 -0.0784
11213TIP3   OH255129   3.291   4.737  13.543 -0.4334  0.4264  0.1540
11213TIP3    H155130   3.346   4.767  13.471  0.1538  1.5684  1.0526
11213TIP3    H255131   3.245   4.660  13.509  0.7132  0.2634 -1.0397
11214TIP3   OH255132   3.494   6.693  15.034  0.2183 -0.5459 -0.0155
11214TIP3    H155133   3.548   6.767  15.004 -0.0083 -0.4871 -0.2806
11214TIP3    H255134   3.415   6.699  14.981 -0.1226 -0.5352  0.4963
11215TIP3   OH255135   1.780   4.209   0.130 -0.0186 -0.1282 -0.2927
11215TIP3    H155136   1.786   4.116   0.154 -0.8079 -0.7418 -2.4122
11215TIP3    H255137   1.701   4.215   0.078  0.7427  1.5111 -1.2823
11216TIP3   OH255138   1.676   6.780   6.015  0.1946  0.0397 -0.3012
11216TIP3    H155139   1.704   6.747   6.100  2.1509  0.3662 -0.7978
11216TIP3    H255140   1.709   6.716   5.952  2.4129  1.9137 -1.1197
11217TIP3   OH255141   5.288   4.646  16.440  0.6777  0.0035 -0.0231
11217TIP3    H155142   5.341   4.619  16.365  0.3889 -1.6421  0.3509
11217TIP3    H255143   5.295   4.742  16.440  3.3405 -0.1318 -0.2160
11218TIP3   OH255144   6.395   3.059  13.130 -0.5502  0.1081  0.3272
11218TIP3    H155145   6.445   3.012  13.197 -0.2176 -0.4543 -0.3096
11218TIP3    H255146   6.308   3.071  13.169 -0.3810 -0.2733  0.8301
11219TIP3   OH255147   6.265   2.571   5.169  0.0077 -0.1908  0.3987
11219TIP3    H155148   6.199   2.632   5.137 -0.1870 -0.1804  0.8144
11219TIP3    H255149   6.216   2.502   5.213  0.2445 -0.4877  0.2046
11220TIP3   OH255150   3.033   3.853   1.083 -0.2644  0.4176 -0.2203
11220TIP3    H155151   3.068   3.765   1.073  0.6083  0.7729 -0.3174
11220TIP3    H255152   3.109   3.911   1.072 -0.9200  1.2044 -0.6934
11221TIP3   OH255153   0.300   3.928  11.612  0.4448 -0.0871 -0.0322
11221TIP3    H155154   0.372   3.987  11.636  1.2300 -0.5819 -1.1317
11221TIP3    H255155   0.338   3.869  11.547  0.3481 -3.3239  2.7415
11222TIP3   OH255156   4.917   1.244  15.220  0.7045  0.5293 -0.2680
11222TIP3    H155157   4.994   1.291  15.189  0.8127  0.4956 -0.0557
11222TIP3    H255158   4.888   1.293  15.297  0.2260  0.8173 -0.6258
11223TIP3   OH255159   5.134   4.369   6.099  0.2859 -0.9904  0.1130
11223TIP3    H155160   5.048   4.349   6.061 -0.1274  2.3196 -0.8372
11223TIP3    H255161   5.116   4.433   6.168  1.9551 -0.5453  0.1599
11224TIP3   OH255162   3.400   3.792   2.824  0.1618  0.5740 -0.2234
11224TIP3    H155163   3.405   3.888   2.825 -1.4567  0.6542  1.4536
11224TIP3    H255164   3.326   3.773   2.767  0.2597  0.3108 -0.2620
11225TIP3   OH255165   5.414   0.979   3.522 -0.4215  0.4703  0.2651
11225TIP3    H155166   5.356   0.911   3.490  0.2798 -1.3226  2.6527
11225TIP3    H255167   5.479   0.990   3.453  0.5267 -2.6430  0.5845
11226TIP3   OH255168   0.713   5.616  16.473 -0.1674  0.0853  0.0654
11226TIP3    H155169   0.757   5.700  16.484 -1.5152  0.9619 -1.1614
11226TIP3    H255170   0.630   5.637  16.430  0.8130 -2.1283 -3.1310
11227TIP3   OH255171   4.681   1.256   6.225 -0.2227 -0.7805  0.0598
11227TIP3    H155172   4.710   1.319   6.159  0.7559 -0.9891  0.2845
11227TIP3    H255173   4.620   1.305   6.280  0.5747 -0.0132  0.2668
11228TIP3   OH255174   5.669   3.559  12.276 -0.2609  0.4980  0.0320
11228TIP3    H155175   5.583   3.553  12.233 -0.4428 -0.9010  0.5506
11228TIP3    H255176   5.711   3.476  12.257  2.2520  2.3346 -2.7676
11229TIP3   OH255177   3.282   1.516  12.397  0.3776  0.8841  0.9201
11229TIP3    H155178   3.275   1.588  12.334  1.3897  1.3050  1.2688
11229TIP3    H255179   3.194   1.505  12.432  0.1342  1.6686  0.5523
11230TIP3   OH255180   4.056   1.500  13.821 -0.3772 -0.2793 -0.5210
11230TIP3    H155181   4.061   1.558  13.897  0.3590  1.9162 -2.1813
11230TIP3    H255182   4.112   1.426  13.844 -1.4573 -0.4531  1.7030
11231TIP3   OH255183   6.366   0.053  14.177 -0.3529  0.4494  0.5960
11231TIP3    H155184   6.417   0.044  14.258 -1.4168  1.2104  1.3714
11231TIP3    H255185   6.358   0.147  14.164 -0.1797  0.3259 -0.4038
11232TIP3   OH255186   3.197   1.170   2.795  0.2535 -0.5719 -0.2404
11232TIP3    H155187   3.174   1.077   2.786  1.2116 -0.8716  0.3864
11232TIP3    H255188   3.113   1.216   2.792 -0.0728 -1.2592 -2.9851
11233TIP3   OH255189   2.248   6.560   3.317  0.6404 -0.3649 -0.3755
11233TIP3    H155190   2.318   6.500   3.288  1.9187 -0.5866  2.9152
11233TIP3    H255191   2.221   6.525   3.402 -1.1887  1.6554 -0.0968
11234TIP3   OH255192   3.976   3.167   0.196  0.4156 -0.0366  0.1477
11234TIP3    H155193   3.908   3.223   0.159  0.6917 -0.1171 -0.4913
11234TIP3    H255194   3.944   3.078   0.181  0.0029 -0.0567  1.1123
11235TIP3   OH255195   1.880   5.603  13.270 -0.3016 -0.5313  0.3519
11235TIP3    H155196   1.869   5.656  13.349 -1.3099 -0.9095  0.4790
11235TIP3    H255197   1.817   5.639  13.208  0.7913  0.0355 -0.4356
11236TIP3   OH255198   0.492   2.167  11.844 -0.2666  0.5431 -0.5053
11236TIP3    H155199   0.560   2.146  11.781  0.1981  2.0953 -0.5566
11236TIP3    H255200   0.517   2.253  11.878 -1.9777  0.9521 -0.2217
11237TIP3   OH255201   0.183   0.824  12.967 -0.0578 -0.0982 -0.1300
11237TIP3    H155202   0.182   0.919  12.960  0.5727 -0.1072 -0.3883
11237TIP3    H255203   0.209   0.794  12.880 -0.1374 -0.5047 -0.0144
11238TIP3   OH255204   1.716   4.893  14.960 -0.0538  0.2521 -0.6969
11238TIP3    H155205   1.770   4.928  14.889  0.2987 -1.3343 -1.2126
11238TIP3    H255206   1.696   4.970  15.014  0.8159  1.2381 -1.7457
11239TIP3   OH255207   3.087   3.014  14.252 -0.1206  0.0151  0.5623
11239TIP3    H155208   3.090   3.107  14.230 -1.5612  0.2267  1.1826
11239TIP3    H255209   3.134   2.971  14.180 -0.6200  1.1079 -0.4468
11240TIP3   OH255210   6.558   2.560   5.895  0.5342 -0.5595  0.2808
11240TIP3    H155211   6.549   2.475   5.939 -2.6287 -1.0695 -1.2141
11240TIP3    H255212   6.542   2.624   5.964  1.5571 -1.1886  1.1201
11241TIP3   OH255213   0.131   4.390  15.568 -0.5733  0.0528  0.3101
11241TIP3    H155214   0.040   4.368  15.586 -0.0167 -1.6438  1.1808
11241TIP3    H255215   0.140   4.380  15.473 -1.8123  2.3064 -0.0541
11242TIP3   OH255216   4.652   4.349  14.701  0.1237  0.1486  0.8719
11242TIP3    H155217   4.698   4.429  14.723  0.4992 -0.2641  1.6246
11242TIP3    H255218   4.605   4.326  14.782 -1.1502  0.3979  0.2151
11243TIP3   OH255219   4.140   2.967   0.936  0.4436  0.0912  0.1797
11243TIP3    H155220   4.138   3.056   0.970  1.4806  0.6533 -1.1622
11243TIP3    H255221   4.090   2.971   0.854  2.6515  0.0433 -1.2052
11244TIP3   OH255222   3.314   5.890   4.130  0.3894  0.5077 -0.1663
11244TIP3    H155223   3.240   5.835   4.105  1.0780 -0.1661 -0.7279
11244TIP3    H255224   3.304   5.969   4.078 -0.4550  0.8171  0.4502
11245TIP3   OH255225   0.303   3.919   2.326 -0.5696  0.0776 -0.3002
11245TIP3    H155226   0.280   4.010   2.308  0.0446 -0.3004 -3.3376
11245TIP3    H255227   0.253   3.869   2.263  1.2687 -1.4626 -0.5829
11246TIP3   OH255228   0.109   0.297   6.060 -0.0486 -0.5025 -0.2347
11246TIP3    H155229   0.026   0.335   6.087 -1.0448 -0.4991 -3.1503
11246TIP3    H255230   0.175   0.342   6.114 -1.8244  0.1465  1.4515
11247TIP3   OH255231   0.480   4.896   2.624  0.1349  0.2081  0.4352
11247TIP3    H155232   0.526   4.979   2.619  1.6299 -0.5706  1.0849
11247TIP3    H255233   0.504   4.860   2.709 -0.5354 -0.8768  0.1792
11248TIP3   OH255234   0.646   0.644   2.443  0.2409 -0.0932  0.2293
11248TIP3    H155235   0.662   0.621   2.352  0.8436 -0.0418  0.3157
11248TIP3    H255236   0.617   0.563   2.484 -1.7474  0.2834 -0.3854
11249TIP3   OH255237   5.278   0.872  15.491  0.4158  0.6329  0.4089
11249TIP3    H155238   5.354   0.889  15.546 -0.4156  0.8868  1.4977
11249TIP3    H255239   5.260   0.779  15.503  1.9252  0.0229 -1.6519
11250TIP3   OH255240   3.901   3.019  16.735 -0.1163  0.3380 -0.5472
11250TIP3    H155241   3.815   2.982  16.757  0.8526 -1.7878 -0.2158
11250TIP3    H255242   3.936   2.961  16.668  2.1106 -0.2792  1.0855
11251TIP3   OH255243   3.677   3.894  13.816 -0.1928 -0.7394  0.7837
11251TIP3    H155244   3.648   3.806  13.839  0.4619 -1.0501  0.4630
11251TIP3    H255245   3.699   3.935  13.899  0.0613 -1.0897  0.8941
11252TIP3   OH255246   5.073   0.866  17.055  0.5187  0.0938 -0.2514
11252TIP3    H155247   5.071   0.772  17.076  0.2597  0.3263  0.8187
11252TIP3    H255248   4.980   0.892  17.054  0.6028  0.3908 -0.2781
11253TIP3   OH255249   5.296   3.261  14.882  0.1337  0.1650  0.6471
11253TIP3    H155250   5.210   3.300  14.900 -0.8827 -1.1379 -1.2436
11253TIP3    H255251   5.344   3.331  14.837 -0.3150  0.5463  0.7531
11254TIP3   OH255252   4.933   6.783   3.517 -0.2588  0.4147 -0.5460
11254TIP3    H155253   4.878   6.717   3.475  0.6280 -0.4276 -0.4030
11254TIP3    H255254   4.897   6.792   3.605 -1.0971  0.9769 -0.9383
11255TIP3   OH255255   0.002   0.934   5.920  0.7785 -0.4263 -0.4043
11255TIP3    H155256  -0.082   0.948   5.877  0.8821 -1.2968 -0.9171
11255TIP3    H255257   0.067   0.950   5.851  1.1630  2.4972  0.5600
11256TIP3   OH255258   4.290   5.321   3.689  0.1576  0.2574  0.2311
11256TIP3    H155259   4.289   5.416   3.702  2.3812  0.1862  1.1697
11256TIP3    H255260   4.318   5.286   3.774  1.4074 -1.0880 -0.7067
11257TIP3   OH255261   6.319   2.044   5.063 -0.0391  0.4781  0.4703
11257TIP3    H155262   6.223   2.044   5.071 -0.0385 -1.4825  0.5281
11257TIP3    H255263   6.341   2.137   5.056 -1.9588  0.9538  0.2526
11258TIP3   OH255264   3.947   6.319  13.988  0.1461  0.2184 -0.0688
11258TIP3    H155265   3.941   6.224  13.985  1.2278  0.1737 -0.7578
11258TIP3    H255266   3.910   6.348  13.905 -3.7726  0.6082  1.6758
11259TIP3   OH255267   5.540   0.255   2.337  0.1668  0.3599  0.7764
11259TIP3    H155268   5.557   0.172   2.292  0.2676  1.2539 -0.8667
11259TIP3    H255269   5.604   0.258   2.407  1.1045 -0.3018 -0.0447
11260TIP3   OH255270   4.907   1.838   3.670 -0.1446 -0.4468 -0.2083
11260TIP3    H155271   4.817   1.826   3.640 -0.8270  2.3792  0.5450
11260TIP3    H255272   4.899   1.866   3.761  1.5091 -0.7135  0.0329
11261TIP3   OH255273   1.723   4.752  12.652 -0.1398 -0.2720 -0.2181
11261TIP3    H155274   1.774   4.786  12.725 -0.9188 -0.4008  0.3859
11261TIP3    H255275   1.672   4.827  12.620 -1.2385 -0.6535  0.5944
11262TIP3   OH255276   1.468   0.248   0.229 -0.0964  0.0349  0.4895
11262TIP3    H155277   1.426   0.258   0.144  1.1065  2.2596  0.1061
11262TIP3    H255278   1.435   0.165   0.263 -3.0544  0.6542 -0.7459
11263TIP3   OH255279   2.379   2.894   0.195  0.2772  0.3748  0.7691
11263TIP3    H155280   2.425   2.844   0.127  0.3578  0.1274  1.0007
11263TIP3    H255281   2.449   2.936   0.245  0.1703  1.3145  0.1209
11264TIP3   OH255282   6.329   2.995  15.857 -0.1876  0.0593  0.2671
11264TIP3    H155283   6.286   3.008  15.773  0.1801 -1.5028 -0.1603
11264TIP3    H255284   6.297   2.910  15.888  0.4202  0.1837  1.2564
11265TIP3   OH255285   6.134   5.082  13.083  0.4095 -0.0638  0.1348
11265TIP3    H155286   6.229   5.089  13.072  0.2560  1.5929 -0.3114
11265TIP3    H255287   6.099   5.102  12.996 -0.3861  0.6896  0.6223
11266TIP3   OH255288   6.255   4.374   4.479  0.2161  0.3697 -0.0508
11266TIP3    H155289   6.283   4.330   4.398  0.2483 -0.5048  0.4280
11266TIP3    H255290   6.326   4.358   4.541  0.0135  0.7102  0.2728
11267TIP3   OH255291   4.099   2.576   0.042 -0.0540  0.4585 -0.5572
11267TIP3    H155292   4.078   2.542  -0.045 -1.4056 -1.0023  0.3229
11267TIP3    H255293   4.044   2.525   0.102  1.2251  1.1053  1.2028
11268TIP3   OH255294   5.835   2.531  13.840 -0.0100  0.6337 -0.1575
11268TIP3    H155295   5.761   2.479  13.871 -0.1733  2.1447  2.0739
11268TIP3    H255296   5.795   2.603  13.790  0.0968  0.1137 -1.0109
11269TIP3   OH255297   5.113   5.332  11.130 -0.3240  0.6649  0.1293
11269TIP3    H155298   5.126   5.237  11.122  0.6892  0.5100  2.9562
11269TIP3    H255299   5.018   5.344  11.128 -0.5019 -0.5458  0.8744
11270TIP3   OH255300   2.564   1.374   3.380  0.0745  0.0032 -0.1537
11270TIP3    H155301   2.556   1.446   3.443  3.0265  1.2411 -1.1368
11270TIP3    H255302   2.608   1.305   3.429 -1.2160 -0.5382  0.2757
11271TIP3   OH255303   0.217   5.804   5.231 -0.0444  0.1660  0.1680
11271TIP3    H155304   0.278   5.786   5.160 -0.2509  0.3627 -0.0615
11271TIP3    H255305   0.138   5.754   5.208 -0.9466  2.0588 -0.9348
11272TIP3   OH255306   3.070   1.145  16.755  0.2638  0.1826 -0.2307
11272TIP3    H155307   3.109   1.068  16.796  2.1373  0.2754 -1.7533
11272TIP3    H255308   3.128   1.164  16.681 -0.7546  2.4252 -0.4883
11273TIP3   OH255309   1.293   6.367  17.032  0.1531 -0.4561  0.0363
11273TIP3    H155310   1.315   6.318  17.111  1.8612 -0.5082 -0.4462
11273TIP3    H255311   1.318   6.308  16.960 -0.7542 -0.1440 -0.5354
11274TIP3   OH255312   2.468   3.594   5.153 -0.5315 -0.0526  0.0903
11274TIP3    H155313   2.533   3.621   5.218 -2.2068 -1.3769  2.3956
11274TIP3    H255314   2.419   3.673   5.132  0.3766  0.4912 -0.0019
11275TIP3   OH255315   5.025   5.762   4.661 -0.5089  0.1066  0.1763
11275TIP3    H155316   5.061   5.756   4.572  0.1538 -1.3568  0.5321
11275TIP3    H255317   5.102   5.769   4.718 -0.9423  1.4279  0.6254
11276TIP3   OH255318   6.281   1.252  11.664 -0.1122  0.0688 -0.1900
11276TIP3    H155319   6.330   1.185  11.616  1.4954  1.6234 -0.7544
11276TIP3    H255320   6.222   1.290  11.599 -0.7614 -0.5392  0.0413
11277TIP3   OH255321   4.596   0.262  14.131 -0.4513  0.3598  0.1642
11277TIP3    H155322   4.546   0.334  14.170 -0.2839  1.4949 -1.6497
11277TIP3    H255323   4.613   0.291  14.041  2.9379 -0.2541  0.5508
11278TIP3   OH255324   4.769   0.893  11.796  0.5917 -0.0643  0.1536
11278TIP3    H155325   4.774   0.913  11.703  1.2449 -0.7823  0.0259
11278TIP3    H255326   4.844   0.939  11.834 -0.0161  0.7144  0.4191
11279TIP3   OH255327   5.666   0.278   0.086  0.1964  0.6233  0.2831
11279TIP3    H155328   5.681   0.278   0.181 -0.5644  1.0894  0.4154
11279TIP3    H255329   5.623   0.194   0.069  2.0734 -0.3012  0.0453
11280TIP3   OH255330   2.848   6.155  11.015 -0.3298  0.1725 -0.2420
11280TIP3    H155331   2.842   6.068  10.976 -1.1137 -0.4228  1.1931
11280TIP3    H255332   2.783   6.207  10.969 -0.2170 -0.1321 -0.7475
11281TIP3   OH255333   1.949   3.327   2.870 -0.0985 -0.0862  0.3518
11281TIP3    H155334   1.906   3.304   2.788 -2.5733  0.6372  1.4008
11281TIP3    H255335   1.883   3.313   2.937  1.4579  0.6153  2.0941
11282TIP3   OH255336   6.110   6.631  13.984  0.6545  0.6608  0.1691
11282TIP3    H155337   6.061   6.556  13.952 -1.1780  2.0371 -0.3078
11282TIP3    H255338   6.083   6.704  13.928  2.8777  1.5627  0.2166
11283TIP3   OH255339   6.516   4.693   1.354 -0.3544  0.1258  0.2951
11283TIP3    H155340   6.581   4.624   1.356 -0.6191 -0.1497 -0.4449
11283TIP3    H255341   6.436   4.650   1.323  0.3209  1.4293 -3.4936
11284TIP3   OH255342   0.775   4.064  14.454  0.1671  0.5331  0.0300
11284TIP3    H155343   0.789   4.147  14.500  0.5532  0.2544  0.4269
11284TIP3    H255344   0.863   4.034  14.432  0.0378  0.1302  0.0609
11285TIP3   OH255345   5.114   3.622   1.147  0.5288  0.3098  0.1012
11285TIP3    H155346   5.098   3.631   1.241 -0.1545 -2.7093  0.3053
11285TIP3    H255347   5.029   3.595   1.111  1.0540  0.4036 -1.2323
11286TIP3   OH255348   3.737   5.980   5.029 -0.8000 -0.4772  0.2989
11286TIP3    H155349   3.760   6.000   4.938 -0.7162  2.6611  0.9511
11286TIP3    H255350   3.815   5.935   5.063 -0.9562 -1.9852 -1.2236
11287TIP3   OH255351   5.771   6.700  10.633 -0.1456  0.2592  0.1093
11287TIP3    H155352   5.835   6.666  10.572 -0.0372  0.2570  0.2240
11287TIP3    H255353   5.823   6.738  10.704 -0.2654  0.7541 -0.0694
11288TIP3   OH255354   5.153   5.257   5.029  0.5395  0.2257  1.0293
11288TIP3    H155355   5.062   5.266   5.001  1.1959  1.0655 -0.8776
11288TIP3    H255356   5.149   5.198   5.104 -1.4618 -0.5451  0.3425
11289TIP3   OH255357   0.547   1.241   4.729  0.1794 -0.2109 -0.3018
11289TIP3    H155358   0.489   1.229   4.804  0.7015 -0.2136  0.1012
11289TIP3    H255359   0.562   1.153   4.695 -0.9362 -0.1158 -1.0820
11290TIP3   OH255360   1.218   0.888  12.020 -0.1256  0.6688  0.2835
11290TIP3    H155361   1.192   0.889  11.928  1.1859  1.3022 -0.1013
11290TIP3    H255362   1.208   0.979  12.049 -0.8651  0.4073  0.8761
11291TIP3   OH255363   0.049   3.605  14.820  0.4573  0.1360 -0.8208
11291TIP3    H155364   0.128   3.658  14.811  0.0885  0.5933 -1.3935
11291TIP3    H255365  -0.022   3.662  14.789 -0.6086  0.9933  2.9239
11292TIP3   OH255366   0.928   2.046  15.735  0.5371  0.4654 -0.0571
11292TIP3    H155367   0.906   2.116  15.673 -0.0087  1.1871  0.9478
11292TIP3    H255368   0.844   2.013  15.764  0.7764  1.1612  1.4613
11293TIP3   OH255369   3.846   1.044  10.569  0.2222 -0.6139  0.0181
11293TIP3    H155370   3.917   1.045  10.504 -0.0540  0.2687 -0.2725
11293TIP3    H255371   3.772   1.005  10.522 -0.1323  0.5064 -0.3699
11294TIP3   OH255372   1.374   1.285  15.342  0.0918 -0.2225 -0.5399
11294TIP3    H155373   1.318   1.267  15.267  0.9944  1.2056 -1.5870
11294TIP3    H255374   1.336   1.364  15.382  0.4576 -0.1398 -0.3522
11295TIP3   OH255375   1.805   0.403  14.277 -0.0985  0.2816  0.3560
11295TIP3    H155376   1.711   0.390  14.273 -0.0165 -0.2205  0.0586
11295TIP3    H255377   1.836   0.342  14.344  0.2903 -1.1409 -1.0923
11296TIP3   OH255378   6.519   3.830  16.532  0.3846  0.5237 -0.0980
11296TIP3    H155379   6.489   3.907  16.483 -1.5277  0.1861  0.5250
11296TIP3    H255380   6.522   3.760  16.467 -0.7474  0.4160 -0.0290
11297TIP3   OH255381   4.280   4.730  10.939 -0.4463 -0.2977 -0.4439
11297TIP3    H155382   4.319   4.796  10.882 -0.4629 -0.2656 -0.4179
11297TIP3    H255383   4.317   4.647  10.909  0.8188 -0.1113  0.5729
11298TIP3   OH255384   5.871   1.102   1.365 -0.4301  0.1490  0.3324
11298TIP3    H155385   5.943   1.146   1.410 -2.1013  1.7183  1.5384
11298TIP3    H255386   5.914   1.047   1.300  1.8997  0.1959  1.7724
11299TIP3   OH255387   0.559   3.169   3.791 -0.6544 -0.3034  0.3885
11299TIP3    H155388   0.581   3.083   3.828  1.1574  0.5966  1.4604
11299TIP3    H255389   0.545   3.152   3.698  0.1063 -1.6862  0.5173
11300TIP3   OH255390   1.233   2.586   2.860 -0.6401  0.5280  0.2652
11300TIP3    H155391   1.214   2.644   2.786  1.6120 -1.4785 -1.9624
11300TIP3    H255392   1.169   2.515   2.851  0.5324 -0.4374 -0.6278
11301TIP3   OH255393   4.978   5.623   4.997  0.7534 -0.2741 -0.1482
11301TIP3    H155394   4.885   5.637   4.980  1.0149 -0.3305 -1.6690
11301TIP3    H255395   5.011   5.582   4.917  1.5089 -2.8690  1.4278
11302TIP3   OH255396   0.279   0.271  12.290  0.0478  0.0617  0.1177
11302TIP3    H155397   0.233   0.189  12.311 -1.0491  0.6006 -0.1680
11302TIP3    H255398   0.270   0.324  12.369  1.1816 -0.2715  0.4810
11303TIP3   OH255399   0.954   5.575   6.193 -0.6190  0.4221  0.2216
11303TIP3    H155400   0.894   5.569   6.267 -2.1147  0.7930 -0.9423
11303TIP3    H255401   0.937   5.661   6.154 -1.7533 -0.8020 -2.1202
11304TIP3   OH255402   2.937   0.378  13.640 -0.4131  0.6591 -0.2418
11304TIP3    H155403   2.872   0.423  13.587 -0.1388 -0.1939 -1.3296
11304TIP3    H255404   2.919   0.285  13.626  1.1055  0.4133 -0.6406
11305TIP3   OH255405   6.474   4.673   5.107 -0.0801  0.2505  0.6606
11305TIP3    H155406   6.510   4.761   5.115  1.3038 -0.3281  0.9780
11305TIP3    H255407   6.469   4.642   5.198 -0.5278 -0.0043  0.5474
11306TIP3   OH255408   2.876   4.008  16.046  0.2572 -0.3470  0.8557
11306TIP3    H155409   2.949   3.961  16.085  0.6769  1.9681  3.0236
11306TIP3    H255410   2.889   3.999  15.952  2.8123 -0.7932  1.2064
11307TIP3   OH255411   0.440   2.098  13.822  0.3035 -0.0990 -0.2183
11307TIP3    H155412   0.530   2.069  13.833  0.3216 -0.8786 -2.2868
11307TIP3    H255413   0.448   2.188  13.790  0.3496 -0.3821 -0.9969
11308TIP3   OH255414   5.811   5.743  16.627  0.3831  0.7809 -0.2710
11308TIP3    H155415   5.792   5.651  16.645  1.6512  0.3607 -0.9659
11308TIP3    H255416   5.801   5.787  16.711  0.5644 -0.1380  0.2362
11309TIP3   OH255417   0.973   5.769   1.637 -0.2535 -0.3884  0.7380
11309TIP3    H155418   1.007   5.691   1.679  0.0785 -0.3163  0.6066
11309TIP3    H255419   0.878   5.760   1.642 -0.2163 -0.1469  1.9390
11310TIP3   OH255420   4.920   6.337   1.772  0.4320 -0.3331 -0.1190
11310TIP3    H155421   4.905   6.249   1.738  0.7026  0.2327 -1.7424
11310TIP3    H255422   4.933   6.325   1.866 -1.8213 -1.7558  0.0342
11311TIP3   OH255423   5.115   1.379   0.822 -0.3249  0.2190 -0.1897
11311TIP3    H155424   5.167   1.368   0.902 -0.4845 -1.4323 -0.2989
11311TIP3    H255425   5.088   1.471   0.824  1.2286  0.6761  0.6920
11312TIP3   OH255426   0.349   5.024   5.012 -0.1166 -0.3715  0.4856
11312TIP3    H155427   0.389   5.111   5.009  0.2535 -0.4915  1.6045
11312TIP3    H255428   0.382   4.986   5.094 -1.6724 -0.8884  0.8746
11313TIP3   OH255429   3.843   2.042   0.716 -0.2414 -0.2049  0.5665
11313TIP3    H155430   3.793   2.100   0.773 -0.3101 -0.3210  0.6246
11313TIP3    H255431   3.790   2.035   0.637  0.0404  0.2719  0.3273
11314TIP3   OH255432   5.614   0.665   2.921 -0.6527  0.0137  0.0623
11314TIP3    H155433   5.696   0.709   2.943 -0.1104 -0.5709 -0.7438
11314TIP3    H255434   5.588   0.621   3.003 -0.1201  0.1278  0.2963
11315TIP3   OH255435   4.934   0.023   3.145  0.5505  0.0609 -0.4469
11315TIP3    H155436   4.845   0.045   3.115  0.3884 -0.1706 -0.1480
11315TIP3    H255437   4.934   0.047   3.238  0.0256 -2.1313  0.1631
11316TIP3   OH255438   1.567   2.970  14.335  0.1083 -0.8766 -0.2299
11316TIP3    H155439   1.660   2.948  14.335  0.0826 -0.9920  0.0714
11316TIP3    H255440   1.524   2.894  14.297  0.1404 -0.7973 -0.4309
11317TIP3   OH255441   1.827   3.795  14.192  0.0567  0.0159 -0.3081
11317TIP3    H155442   1.808   3.760  14.278 -0.8832  1.0525 -0.0774
11317TIP3    H255443   1.912   3.758  14.169  0.3299 -0.2360  1.0701
11318TIP3   OH255444   2.192   2.243   1.939  0.5826 -0.1637  0.2116
11318TIP3    H155445   2.147   2.315   1.895  0.4413  0.3731  1.2328
11318TIP3    H255446   2.143   2.229   2.020  1.3690 -0.5616  0.6229
11319TIP3   OH255447   0.917   4.035   3.642  0.2045  0.3552  0.1981
11319TIP3    H155448   0.825   4.064   3.637 -0.1125 -0.9139 -1.5925
11319TIP3    H255449   0.964   4.111   3.677 -1.7705  0.4581  2.8230
11320TIP3   OH255450   6.721   1.754   2.866  0.2251  0.5296 -0.3469
11320TIP3    H155451   6.784   1.826   2.854 -0.6167  1.1701 -0.9926
11320TIP3    H255452   6.770   1.675   2.844  0.9846  0.9638 -0.2347
11321TIP3   OH255453   1.999   3.164  13.444  0.1838  0.3981  0.0657
11321TIP3    H155454   2.033   3.164  13.354  0.3160  1.3038  0.1084
11321TIP3    H255455   1.922   3.222  13.440 -1.7489 -2.1223 -0.1731
11322TIP3   OH255456   2.519   4.398   3.967  0.1389 -0.1021 -0.0856
11322TIP3    H155457   2.513   4.461   4.039  1.2754 -1.1038  0.9077
11322TIP3    H255458   2.612   4.396   3.946 -0.1512 -0.0383 -1.4088
11323TIP3   OH255459   5.204   3.535   3.187 -0.3298 -0.2440 -0.0557
11323TIP3    H155460   5.207   3.462   3.249 -0.5337 -1.0568 -0.9850
11323TIP3    H255461   5.170   3.609   3.238  1.1416 -0.4358  1.2283
11324TIP3   OH255462   5.686   2.424   4.583 -0.0078 -0.1564 -0.3820
11324TIP3    H155463   5.704   2.368   4.659  2.0124  0.6777 -0.2160
11324TIP3    H255464   5.682   2.363   4.509 -0.7405 -0.8382  0.2099
11325TIP3   OH255465   1.324   5.120   1.784  0.0113  0.1068  0.4440
11325TIP3    H155466   1.350   5.166   1.864  3.1257  1.2742 -1.1541
11325TIP3    H255467   1.353   5.030   1.797  1.1229  0.4490  0.3858
11326TIP3   OH255468   2.830   0.575   2.887  0.6334 -0.3245  0.2143
11326TIP3    H155469   2.900   0.641   2.891  0.1095  0.2000  0.6849
11326TIP3    H255470   2.752   0.624   2.862  0.6106 -1.0578 -1.2081
11327TIP3   OH255471   3.403   4.032  13.381 -0.2458 -0.6397  0.5296
11327TIP3    H155472   3.423   3.963  13.317 -0.7294 -0.3324  0.0382
11327TIP3    H255473   3.452   4.007  13.459  0.2758 -1.0767  0.0691
11328TIP3   OH255474   2.886   4.468  14.656 -0.2341  0.1149 -0.0658
11328TIP3    H155475   2.949   4.435  14.720 -0.4255 -0.5147 -0.2002
11328TIP3    H255476   2.938   4.522  14.597  0.1669 -0.3095 -0.1097
11329TIP3   OH255477   6.353   3.749   1.110  0.3126 -0.1913  0.0016
11329TIP3    H155478   6.262   3.780   1.107  0.6169  0.9419  1.7321
11329TIP3    H255479   6.350   3.663   1.068 -2.1615 -1.5312  2.6640
11330TIP3   OH255480   0.026   6.704   0.573  0.3457 -1.0874 -0.1514
11330TIP3    H155481  -0.067   6.724   0.576  0.2902 -1.2274 -0.8339
11330TIP3    H255482   0.030   6.609   0.578  0.4846 -1.0396  0.5880
11331TIP3   OH255483   2.216   3.420   3.325  0.5509 -0.0801  0.1184
11331TIP3    H155484   2.162   3.392   3.400  1.6040 -1.5234  0.3620
11331TIP3    H255485   2.299   3.447   3.365  0.4656  0.9186 -0.3732
11332TIP3   OH255486   5.009   5.324  12.338 -0.5162  0.0732  0.1819
11332TIP3    H155487   5.050   5.288  12.259  0.1574  0.4210  0.3650
11332TIP3    H255488   5.030   5.417  12.335 -0.0459 -0.0016  1.0400
11333TIP3   OH255489   2.497   4.630   5.333  0.6194 -0.3094 -0.0856
11333TIP3    H155490   2.506   4.535   5.344  0.7952 -0.2315  0.4750
11333TIP3    H255491   2.527   4.666   5.416 -1.2562  0.1424  0.4166
11334TIP3   OH255492   5.979   2.934  12.226  0.3539 -0.7735  0.0865
11334TIP3    H155493   5.975   3.011  12.282 -2.6188 -1.0901  0.3746
11334TIP3    H255494   5.986   2.860  12.287 -0.1827 -0.9460 -0.0573
11335TIP3   OH255495   3.416   4.396  14.871 -0.2601  0.1233 -0.1860
11335TIP3    H155496   3.344   4.402  14.934  0.9909  2.5810  1.0566
11335TIP3    H255497   3.401   4.469  14.810 -0.9808 -1.7134 -2.2888
11336TIP3   OH255498   3.371   0.880   2.002 -0.0251  0.4219 -1.1962
11336TIP3    H155499   3.301   0.930   1.961  0.6963  1.6686 -0.9069
11336TIP3    H255500   3.331   0.795   2.021 -1.9138  1.6205  0.3603
11337TIP3   OH255501   0.919   5.404  16.801  0.0626  0.0728 -0.0198
11337TIP3    H155502   0.987   5.342  16.825 -0.4075 -1.3311 -2.1935
11337TIP3    H255503   0.938   5.482  16.854  1.7626 -1.2322  1.3479
11338TIP3   OH255504   4.957   5.761   1.472  0.7458 -0.1315 -0.5764
11338TIP3    H155505   5.032   5.758   1.413  1.7267 -0.4638  0.6451
11338TIP3    H255506   4.922   5.850   1.462 -0.1071 -0.7049 -2.8397
11339TIP3   OH255507   2.416   0.070  14.904  0.7723  0.3263 -0.3767
11339TIP3    H155508   2.409   0.040  14.994  0.6676  0.6758 -0.2700
11339TIP3    H255509   2.328   0.058  14.868  0.5440  1.1968 -0.1193
11340TIP3   OH255510   0.137   6.150   0.003  0.0803 -0.1784  0.0023
11340TIP3    H155511   0.151   6.059  -0.025  0.1620 -0.3451  0.5913
11340TIP3    H255512   0.057   6.177  -0.043 -0.3389 -0.7741  0.3772
11341TIP3   OH255513   0.731   1.598  16.699  0.5721  0.7402 -0.2112
11341TIP3    H155514   0.708   1.683  16.662 -0.2454  0.4034 -0.4934
11341TIP3    H255515   0.654   1.574  16.752  1.6965  1.1975  1.6677
11342TIP3   OH255516   2.810   6.000   6.514  0.3240 -0.1651 -0.2396
11342TIP3    H155517   2.799   5.909   6.487 -0.7025  0.0029 -0.4117
11342TIP3    H255518   2.898   6.023   6.486  0.1602 -0.7523 -1.2635
11343TIP3   OH255519   6.667   1.369  12.231  0.6825 -0.1708 -0.0825
11343TIP3    H155520   6.755   1.388  12.261  1.2508 -3.0937  0.3193
11343TIP3    H255521   6.675   1.285  12.185 -1.6172  0.2561 -1.3721
11344TIP3   OH255522   4.749   4.630  13.170 -0.2811  0.7438  0.1055
11344TIP3    H155523   4.686   4.679  13.118  0.0385  2.2171  1.0823
11344TIP3    H255524   4.831   4.679  13.162  0.0191  0.4369  1.1955
11345TIP3   OH255525   3.196   0.287   4.992  0.0462 -0.0272 -0.1980
11345TIP3    H155526   3.220   0.365   5.043  1.7441 -0.8538  0.2881
11345TIP3    H255527   3.156   0.323   4.912  0.1600  1.3345  0.3353
11346TIP3   OH255528   5.064   3.526   5.659 -0.3110  0.4777 -0.0040
11346TIP3    H155529   5.005   3.599   5.681 -0.6235  0.4405 -0.6719
11346TIP3    H255530   5.104   3.553   5.576  0.8747  0.6513  0.6194
11347TIP3   OH255531   2.321   5.867   3.120 -0.4793 -0.1430 -0.0905
11347TIP3    H155532   2.260   5.939   3.131 -1.4748 -0.5580 -2.6814
11347TIP3    H255533   2.342   5.840   3.210 -0.9253  2.6081  0.9072
11348TIP3   OH255534   0.169   2.241   3.311 -0.0273  0.3170 -0.1202
11348TIP3    H155535   0.118   2.180   3.365  1.0447  0.2148  0.7938
11348TIP3    H255536   0.169   2.323   3.360  1.4766  0.0481  0.3866
11349TIP3   OH255537   1.674   3.721   5.700 -0.4888 -0.6899 -0.5861
11349TIP3    H155538   1.590   3.691   5.734 -0.3477  0.6416  1.0230
11349TIP3    H255539   1.736   3.702   5.770  0.4396 -1.0671 -1.4968
11350TIP3   OH255540   0.442   1.117   4.177  0.0082  0.0680 -0.5023
11350TIP3    H155541   0.486   1.202   4.184  0.6621 -0.3455  0.4840
11350TIP3    H255542   0.353   1.139   4.149 -0.1688  1.1807  0.8845
11351TIP3   OH255543   0.681   2.094  10.356 -0.0650 -0.0279 -0.2359
11351TIP3    H155544   0.718   2.181  10.368 -1.1737  0.2253  1.5266
11351TIP3    H255545   0.756   2.037  10.345  0.6734  1.1373 -1.4402
11352TIP3   OH255546   6.537   5.805   4.741 -0.3781 -0.0732  0.3643
11352TIP3    H155547   6.533   5.878   4.679 -0.7371  0.2951  0.8118
11352TIP3    H255548   6.467   5.824   4.804  1.3931  0.7101  2.1559
11353TIP3   OH255549   2.316   3.761  11.725 -0.4575  0.1378  0.4156
11353TIP3    H155550   2.275   3.821  11.663  0.9083  0.1395 -0.5199
11353TIP3    H255551   2.396   3.733  11.681 -0.8754 -2.0685  1.0236
11354TIP3   OH255552   1.114   5.804   5.535  0.0827  0.3551  0.1679
11354TIP3    H155553   1.083   5.832   5.621  0.0837 -1.4364  0.7642
11354TIP3    H255554   1.085   5.713   5.527 -2.0096  1.2045 -2.7316
11355TIP3   OH255555   5.764   5.018  15.359  0.8091  0.5950 -0.2299
11355TIP3    H155556   5.676   5.008  15.323  1.2908 -0.8777 -1.0596
11355TIP3    H255557   5.750   5.058  15.445 -0.6221  0.8874 -0.5784
11356TIP3   OH255558   6.714   2.735  13.521 -0.4660  0.3145  0.2228
11356TIP3    H155559   6.738   2.827  13.523 -0.4943  0.3538 -1.1546
11356TIP3    H255560   6.665   2.721  13.602 -1.2488  1.7231 -0.0099
11357TIP3   OH255561   2.517   3.976   1.804 -0.4691 -0.0404 -0.3132
11357TIP3    H155562   2.549   4.054   1.758  0.8409  0.2286  1.0487
11357TIP3    H255563   2.484   4.009   1.888 -0.7389 -0.8473 -0.0979
11358TIP3   OH255564   5.033   4.778  15.211  0.0634  0.1963  0.3047
11358TIP3    H155565   5.009   4.686  15.223 -0.9011  0.4415  0.3148
11358TIP3    H255566   4.950   4.825  15.212  0.4348  0.9269 -0.9930
11359TIP3   OH255567   5.711   0.515  15.180 -0.3928 -0.2937 -0.2643
11359TIP3    H155568   5.660   0.596  15.174 -0.8252 -0.5382  0.0711
11359TIP3    H255569   5.800   0.545  15.199 -0.7533  0.0700  0.8929
11360TIP3   OH255570   6.041   5.576  15.208  0.7719 -0.4762 -0.3426
11360TIP3    H155571   6.056   5.614  15.121  0.3505 -0.0623 -0.2406
11360TIP3    H255572   5.958   5.615  15.236  0.6939 -0.9388  0.0634
11361TIP3   OH255573   3.845   0.620  12.971 -0.1124  0.1651  0.4473
11361TIP3    H155574   3.938   0.638  12.980 -0.1516  0.9554 -0.6221
11361TIP3    H255575   3.801   0.694  13.014 -0.2563  1.4752 -1.8969
11362TIP3   OH255576   6.219   6.680  12.195  0.4082  0.1273 -0.4236
11362TIP3    H155577   6.289   6.619  12.217 -0.6535 -0.8360  0.3691
11362TIP3    H255578   6.237   6.706  12.105 -0.1635 -2.8266 -1.4466
11363TIP3   OH255579   3.128   5.302   5.470  0.2040  0.0767  0.2199
11363TIP3    H155580   3.200   5.316   5.532  1.2474  1.8901 -1.3672
11363TIP3    H255581   3.162   5.236   5.409 -0.8201 -1.7003  1.4980
11364TIP3   OH255582   4.551   3.177   5.206  0.4674  0.2351 -0.1674
11364TIP3    H155583   4.626   3.143   5.256  0.2517  0.3427  0.2314
11364TIP3    H255584   4.560   3.138   5.120  0.7086 -0.1489  0.0296
11365TIP3   OH255585   1.228   0.365  15.421 -0.2801  0.3326 -0.2418
11365TIP3    H155586   1.171   0.419  15.367  1.5409  2.3128 -0.2361
11365TIP3    H255587   1.288   0.324  15.359  0.1547  0.5644  0.0230
11366TIP3   OH255588   3.810   5.615   3.981  0.3047  0.0030  0.8251
11366TIP3    H155589   3.829   5.630   3.889  0.8124 -1.3785  0.6997
11366TIP3    H255590   3.743   5.547   3.981  2.4758 -2.2433  1.5093
11367TIP3   OH255591   0.779   1.363   3.570 -0.2870  0.8037 -0.6453
11367TIP3    H155592   0.830   1.443   3.581 -1.1380  0.9743  2.3620
11367TIP3    H255593   0.711   1.368   3.637 -0.5923 -2.2526 -0.6650
11368TIP3   OH255594   5.264   4.008   6.027  0.0646  0.5062 -0.4396
11368TIP3    H155595   5.182   3.971   5.995 -0.1861  1.7261 -1.2798
11368TIP3    H255596   5.267   3.984   6.120 -1.0760  0.1521 -0.4836
11369TIP3   OH255597   2.500   0.710  13.288 -0.4225 -0.1238 -0.0234
11369TIP3    H155598   2.556   0.637  13.263 -1.2734 -0.2836 -1.5198
11369TIP3    H255599   2.419   0.668  13.318 -0.0991  0.1382  1.2655
11370TIP3   OH255600   6.124   3.274   0.225 -0.3902  0.0144 -0.7170
11370TIP3    H155601   6.193   3.212   0.245 -0.6020 -0.3689 -1.1654
11370TIP3    H255602   6.164   3.360   0.238 -0.6850 -0.2061  1.9280
11371TIP3   OH255603   4.732   4.827  15.244 -0.4697 -0.2655  0.1350
11371TIP3    H155604   4.730   4.913  15.202  3.1380 -0.1796 -0.0673
11371TIP3    H255605   4.728   4.846  15.337 -0.0701  0.1409  0.0748
11372TIP3   OH255606   0.841   2.736   3.069 -0.0615  0.3643  0.3147
11372TIP3    H155607   0.798   2.816   3.098 -0.3647  0.0894  0.6179
11372TIP3    H255608   0.795   2.712   2.988  0.7443  1.0953 -0.3705
11373TIP3   OH255609   5.245   5.121  11.407  0.8420 -0.4567  0.1312
11373TIP3    H155610   5.318   5.098  11.351 -0.1388 -3.4751 -0.0232
11373TIP3    H255611   5.273   5.096  11.495  0.2794 -1.0040  0.1634
11374TIP3   OH255612   3.147   6.089   3.393 -0.0365 -0.2988  0.4157
11374TIP3    H155613   3.064   6.068   3.436  0.3257 -0.3956  1.0688
11374TIP3    H255614   3.192   6.006   3.385 -1.1455 -0.7033 -2.4264
11375TIP3   OH255615   0.715   1.830  13.217  0.2471 -0.6147  0.4087
11375TIP3    H155616   0.721   1.801  13.126  0.4050  0.3500  0.0994
11375TIP3    H255617   0.804   1.826  13.250  0.4064  0.2873  0.1115
11376TIP3   OH255618   6.199   4.614  14.467 -0.4813  0.1381 -0.4859
11376TIP3    H155619   6.202   4.566  14.384  0.4253  1.4807 -1.2337
11376TIP3    H255620   6.289   4.611  14.499 -0.2815  1.9071 -0.8670
11377TIP3   OH255621   5.612   3.577  14.036 -0.5565  0.4451  0.6832
11377TIP3    H155622   5.653   3.496  14.067 -0.6416  0.1597  0.0473
11377TIP3    H255623   5.655   3.646  14.086 -0.7086 -0.0128  1.4655
11378TIP3   OH255624   5.988   1.541   2.750  0.6000  0.3938 -0.6555
11378TIP3    H155625   6.038   1.533   2.669  0.1334 -0.9543 -0.8171
11378TIP3    H255626   5.943   1.457   2.760 -0.7758  1.1817  0.0534
11379TIP3   OH255627   0.819   2.425   6.303 -0.2862  0.4006  0.3019
11379TIP3    H155628   0.813   2.435   6.398  0.2291  2.6036  0.1375
11379TIP3    H255629   0.769   2.500   6.268  0.3602  0.1675 -1.1585
11380TIP3   OH255630   1.133   4.216   5.732 -0.2229 -0.0665  0.1177
11380TIP3    H155631   1.188   4.238   5.807  0.0139  0.0709 -0.0963
11380TIP3    H255632   1.188   4.233   5.656 -0.3257 -0.5876 -0.0770
11381TIP3   OH255633   2.016   3.014  11.707 -0.2559 -0.8390 -0.2292
11381TIP3    H155634   1.938   2.991  11.757 -0.6162 -0.0107 -0.4108
11381TIP3    H255635   1.999   3.102  11.674  1.4019  0.0044  1.0660
11382TIP3   OH255636   3.493   2.083   5.018  0.4246 -0.3848  0.0898
11382TIP3    H155637   3.476   2.152   5.082 -0.8618 -0.7447  0.1535
11382TIP3    H255638   3.529   2.011   5.068 -0.5646 -0.6599  0.4094
11383TIP3   OH255639   0.191   5.710   0.802 -0.2100 -0.1760  0.3207
11383TIP3    H155640   0.223   5.635   0.853 -1.0322 -0.7061  0.0709
11383TIP3    H255641   0.120   5.746   0.855  0.1856  0.4280  0.4384
11384TIP3   OH255642   0.394   2.221  14.949 -0.3998 -0.1890 -0.5623
11384TIP3    H155643   0.314   2.175  14.974 -0.4329 -0.4480 -1.1471
11384TIP3    H255644   0.456   2.199  15.019 -0.6881 -0.3773 -0.3604
11385TIP3   OH255645   1.072   5.411   1.523 -0.1831  0.3787 -0.4368
11385TIP3    H155646   1.047   5.338   1.467  1.0845  1.5528 -2.5828
11385TIP3    H255647   1.116   5.473   1.465  1.5415  1.4633  1.9201
11386TIP3   OH255648   1.509   6.495  16.842 -0.4410  0.4416  0.3091
11386TIP3    H155649   1.474   6.539  16.919  0.7485 -0.6426  1.4900
11386TIP3    H255650   1.534   6.566  16.783 -1.5498  1.2741  0.8330
11387TIP3   OH255651   5.488   2.709   5.625  0.0221  0.1133 -0.0507
11387TIP3    H155652   5.491   2.661   5.708 -2.9222 -0.7069 -0.3608
11387TIP3    H255653   5.572   2.754   5.621  0.4340 -0.2042  3.1607
11388TIP3   OH255654   0.695   2.884  12.438  0.2892 -0.2685  0.2672
11388TIP3    H155655   0.603   2.870  12.459  0.2231  0.9128  0.8417
11388TIP3    H255656   0.734   2.916  12.520  0.8724  0.7054 -0.3714
11389TIP3   OH255657   4.851   0.571   4.577 -0.5432  0.4298  0.0023
11389TIP3    H155658   4.904   0.520   4.638  0.0422 -0.5283 -1.2922
11389TIP3    H255659   4.908   0.645   4.554 -1.0937  1.2784  1.2613
11390TIP3   OH255660   5.852   5.631   0.935 -0.4190 -0.4378 -0.0350
11390TIP3    H155661   5.888   5.543   0.924  0.2009 -0.3488  1.1725
11390TIP3    H255662   5.928   5.689   0.934 -0.8178  0.0938 -0.7717
11391TIP3   OH255663   6.779   6.380  13.877  0.6793  0.3692 -0.0596
11391TIP3    H155664   6.783   6.423  13.792 -1.1146 -0.1522 -0.4389
11391TIP3    H255665   6.723   6.304  13.863 -0.7472  0.9984  1.8600
11392TIP3   OH255666   2.981   1.335   5.799 -0.3629 -0.0931 -0.5860
11392TIP3    H155667   3.071   1.368   5.789  0.1008 -0.2152  2.6597
11392TIP3    H255668   2.991   1.250   5.841 -2.0193 -0.2624 -0.5176
11393TIP3   OH255669   6.458   4.234   5.380  0.3994 -0.1347  0.6518
11393TIP3    H155670   6.544   4.227   5.339  0.0901 -1.5852  0.1879
11393TIP3    H255671   6.404   4.281   5.316  0.8186  0.6777  0.8967
11394TIP3   OH255672   3.414   1.331  12.561  0.3969 -0.3585  0.6255
11394TIP3    H155673   3.348   1.267  12.587 -0.2508  0.2996  0.6163
11394TIP3    H255674   3.369   1.388  12.498  0.7948  0.4533  1.0641
11395TIP3   OH255675   6.006   1.195   6.239 -0.3060 -1.3659 -0.1962
11395TIP3    H155676   5.997   1.210   6.334 -1.5236 -2.5386 -0.1135
11395TIP3    H255677   6.097   1.217   6.220 -0.7915  1.7465  0.7050
11396TIP3   OH255678   1.675   0.700  15.759 -0.0829  0.3221 -0.1054
11396TIP3    H155679   1.769   0.705  15.777  0.3453 -0.4607 -2.0927
11396TIP3    H255680   1.669   0.661  15.672 -2.2788 -0.2345  0.2817
11397TIP3   OH255681   4.336   4.502   3.428 -0.3664  0.4316  0.5160
11397TIP3    H155682   4.381   4.437   3.483 -1.3923 -0.8247 -0.0880
11397TIP3    H255683   4.404   4.537   3.372 -0.3143 -2.4291 -1.3306
11398TIP3   OH255684   4.504   1.557  15.276 -0.3061  0.7636 -0.6942
11398TIP3    H155685   4.546   1.634  15.238  0.1478  0.1147 -1.5276
11398TIP3    H255686   4.430   1.538  15.219 -0.3921  0.5638 -0.5184
11399TIP3   OH255687   4.421   2.163   0.571 -0.0295  0.2665  0.1467
11399TIP3    H155688   4.463   2.248   0.555 -0.2136 -0.0137 -1.8827
11399TIP3    H255689   4.332   2.173   0.538 -1.0613  0.2650  2.7898
11400TIP3   OH255690   5.036   1.929  15.729 -0.0083 -0.4511  0.2402
11400TIP3    H155691   5.114   1.932  15.674 -0.0024 -2.2597  0.1058
11400TIP3    H255692   5.024   2.018  15.760  0.8010  0.3107 -1.5664
11401TIP3   OH255693   1.616   6.010  15.939  0.5154  0.4876 -0.1261
11401TIP3    H155694   1.599   5.932  15.887 -0.5289  0.3642  0.4012
11401TIP3    H255695   1.696   6.047  15.901  0.8015 -0.6270 -0.6072
11402TIP3   OH255696   2.642   6.082   3.814  0.1040 -0.0439 -0.4133
11402TIP3    H155697   2.661   5.994   3.782  1.9137  0.1091  0.1566
11402TIP3    H255698   2.614   6.130   3.736  2.4408 -0.2242 -1.4132
11403TIP3   OH255699   2.868   3.359   5.933 -1.0572  0.4513 -0.0957
11403TIP3    H155700   2.795   3.334   5.991  0.1580  0.2531  1.3878
11403TIP3    H255701   2.945   3.358   5.990 -0.2016  2.6794 -1.1690
11404TIP3   OH255702   5.108   1.947  16.142 -0.1647  0.4905  0.0216
11404TIP3    H155703   5.187   1.932  16.090 -0.7244  0.2832 -0.7737
11404TIP3    H255704   5.050   1.874  16.120  0.2268 -0.5081  2.1805
11405TIP3   OH255705   2.752   6.186   4.036 -0.7826 -0.4391 -0.3221
11405TIP3    H155706   2.837   6.224   4.014  0.0336 -1.2231  1.3809
11405TIP3    H255707   2.708   6.175   3.952  1.3439 -1.2862 -1.3571
11406TIP3   OH255708   1.623   6.108   0.064  0.1330  0.1244 -0.3970
11406TIP3    H155709   1.547   6.052   0.046 -0.8165  0.8465  1.1796
11406TIP3    H255710   1.685   6.087  -0.005 -1.9696  0.3882 -2.4259
11407TIP3   OH255711   2.280   3.482  13.234  0.1334  0.0161 -0.1295
11407TIP3    H155712   2.300   3.519  13.320  2.2237 -0.2430 -0.4842
11407TIP3    H255713   2.242   3.555  13.185  5.1047  2.1345 -1.1472
11408TIP3   OH255714   5.905   1.534  13.631 -0.8805  0.8958  0.3766
11408TIP3    H155715   5.876   1.541  13.722  1.5780 -0.0955  1.2665
11408TIP3    H255716   5.956   1.613  13.616  2.8318 -1.1856  1.4552
11409TIP3   OH255717   0.315   2.130  14.700 -0.5586  0.6887 -0.2968
11409TIP3    H155718   0.313   2.192  14.627  0.4829 -1.1523 -1.9286
11409TIP3    H255719   0.347   2.182  14.774 -0.3987  2.2753 -1.4475
11410TIP3   OH255720   6.367   6.152  11.071 -0.2147 -0.1248 -0.0357
11410TIP3    H155721   6.356   6.108  11.155  1.7895  0.3143  0.4861
11410TIP3    H255722   6.461   6.146  11.053 -0.4269  0.9597 -1.5987
11411TIP3   OH255723   3.685   5.535   0.696 -0.0571  0.0388  0.4411
11411TIP3    H155724   3.705   5.455   0.745  1.0068 -0.3994 -0.6866
11411TIP3    H255725   3.661   5.506   0.609  1.5471  0.9901 -0.3483
11412TIP3   OH255726   0.146   2.963  12.176  0.3042 -0.2583  0.1600
11412TIP3    H155727   0.199   3.007  12.110  2.7127 -3.4681 -0.1449
11412TIP3    H255728   0.200   2.965  12.255 -0.9469  0.1840  1.0175
11413TIP3   OH255729   2.617   3.054  15.379 -0.0465 -0.1274  0.5894
11413TIP3    H155730   2.585   2.988  15.317  0.1067 -1.0797  1.4970
11413TIP3    H255731   2.707   3.072  15.351  0.2049 -0.9558  0.8535
11414TIP3   OH255732   4.607   3.666  11.044 -0.0456  0.2703 -0.7556
11414TIP3    H155733   4.698   3.690  11.024 -0.6817  2.3175 -1.2476
11414TIP3    H255734   4.614   3.608  11.120  1.8432 -1.5728 -2.2663
11415TIP3   OH255735   4.980   5.018  15.623  0.0498  0.1324  0.4683
11415TIP3    H155736   5.033   5.093  15.650  1.4483 -0.2542 -1.1047
11415TIP3    H255737   4.914   5.009  15.692  0.1190  2.5308  0.8994
11416TIP3   OH255738   6.295   4.367  15.846 -1.0699  0.7810  0.3248
11416TIP3    H155739   6.329   4.446  15.889  0.9308  0.9284 -1.4536
11416TIP3    H255740   6.260   4.399  15.763 -0.7174 -0.1310 -0.1740
11417TIP3   OH255741   5.765   3.750   1.548 -0.2808 -0.0579 -0.3665
11417TIP3    H155742   5.744   3.660   1.524 -1.3412  0.3912 -1.1372
11417TIP3    H255743   5.683   3.798   1.538 -0.0091  0.7758  1.1577
11418TIP3   OH255744   0.046   2.628  15.079 -0.3725  0.0260 -0.1299
11418TIP3    H155745   0.080   2.636  15.168  0.6832 -1.5634 -0.3656
11418TIP3    H255746   0.077   2.707  15.034 -0.4658  0.5757  0.7655
11419TIP3   OH255747   3.734   3.241   2.807 -0.1268  0.5027 -0.5356
11419TIP3    H155748   3.795   3.228   2.880 -0.2891 -1.5586 -0.7359
11419TIP3    H255749   3.648   3.247   2.849  0.0918  2.5039 -0.3270
11420TIP3   OH255750   4.553   4.898   2.865  0.1084 -0.6511  0.1205
11420TIP3    H155751   4.495   4.837   2.909 -0.3351  0.2891  0.8590
11420TIP3    H255752   4.559   4.973   2.925 -0.3323  0.5531 -1.3049
11421TIP3   OH255753   4.008   6.002   5.484  0.7065 -0.2282  0.1759
11421TIP3    H155754   4.041   5.928   5.432  0.9336 -1.4135  1.9523
11421TIP3    H255755   3.913   5.994   5.479  0.6867 -2.1684  2.3564
11422TIP3   OH255756   5.544   5.315   3.673  0.3070  0.7351  0.4630
11422TIP3    H155757   5.470   5.257   3.694  0.2892  0.8085  0.6007
11422TIP3    H255758   5.567   5.292   3.583  0.7581  0.0170  0.7589
11423TIP3   OH255759   5.351   6.453   4.309  0.1859  0.0031 -0.4264
11423TIP3    H155760   5.291   6.478   4.239  0.0370 -2.1344 -1.1257
11423TIP3    H255761   5.434   6.437   4.264  0.5660  0.3838  0.1422
11424TIP3   OH255762   3.228   6.079  17.286  0.4589 -0.1592 -0.0246
11424TIP3    H155763   3.217   6.171  17.312 -0.3778 -0.0535 -0.7204
11424TIP3    H255764   3.293   6.082  17.216  1.1086 -0.2019  0.5745
11425TIP3   OH255765   3.160   3.892   5.554  0.4113  0.3322  0.3052
11425TIP3    H155766   3.081   3.846   5.524  0.1597 -0.6770  2.3860
11425TIP3    H255767   3.167   3.868   5.647  2.0727  1.9926  0.6259
11426TIP3   OH255768   1.787   4.683   4.275  0.3825 -0.0210  0.3297
11426TIP3    H155769   1.823   4.620   4.336  1.2024 -0.3440 -0.4699
11426TIP3    H255770   1.798   4.768   4.318  0.3150 -0.3101  0.9188
11427TIP3   OH255771   5.526   0.124  16.384  0.1716 -0.4328  0.8104
11427TIP3    H155772   5.564   0.052  16.435  2.3728  0.3163  0.2557
11427TIP3    H255773   5.570   0.202  16.417 -1.9505  0.6574  1.1501
11428TIP3   OH255774   6.312   0.075  14.621 -0.2742  0.2724 -0.3729
11428TIP3    H155775   6.336   0.070  14.714 -0.0853 -0.5138 -0.4613
11428TIP3    H255776   6.234   0.021  14.614  0.9309 -1.4382 -1.0652
11429TIP3   OH255777   5.307   3.847  13.312 -0.0028 -0.3395 -0.3194
11429TIP3    H155778   5.369   3.775  13.327  1.3963  1.2350  1.6469
11429TIP3    H255779   5.361   3.919  13.279 -1.1328  0.3665 -0.6707
11430TIP3   OH255780   4.279   2.666  12.522 -0.2399 -0.1890 -0.1022
11430TIP3    H155781   4.231   2.588  12.549  0.1396 -0.6785 -0.8179
11430TIP3    H255782   4.324   2.696  12.600 -0.3220 -0.7338  0.1523
11431TIP3   OH255783   4.017   2.662   0.775  0.2228 -0.8594 -1.0617
11431TIP3    H155784   3.966   2.731   0.733  0.1009 -0.0281  0.4125
11431TIP3    H255785   3.967   2.639   0.853  1.9763 -0.1572  0.3239
11432TIP3   OH255786   0.101   2.488   2.473 -0.8985 -0.0563  0.4318
11432TIP3    H155787   0.123   2.514   2.562  2.0671  1.4692 -0.6741
11432TIP3    H255788   0.059   2.565   2.434 -0.2175  0.0435 -0.1273
11433TIP3   OH255789   3.719   2.408   3.915  0.2796  0.5993 -0.0637
11433TIP3    H155790   3.775   2.454   3.852 -1.6576  0.8256 -1.6580
11433TIP3    H255791   3.642   2.464   3.924 -0.1106 -0.1573  1.4057
11434TIP3   OH255792   1.486   0.470  13.325  0.9067  0.3575  0.0200
11434TIP3    H155793   1.486   0.378  13.300  2.4683  0.4442 -0.3188
11434TIP3    H255794   1.488   0.517  13.242  0.9104  0.6978  0.2110
11435TIP3   OH255795   2.032   1.887  11.923  0.4487 -0.3576 -0.4291
11435TIP3    H155796   1.946   1.889  11.965 -0.3835 -0.5832 -2.0774
11435TIP3    H255797   2.052   1.979  11.907  1.1464 -0.2166  1.1872
11436TIP3   OH255798   3.027   1.053  13.410 -0.4407 -0.8412  0.3132
11436TIP3    H155799   2.944   1.005  13.402  0.0343 -1.2231 -3.2691
11436TIP3    H255800   3.093   0.986  13.426 -0.5407 -0.7463  1.1465
11437TIP3   OH255801   6.489   6.457  13.583 -0.0900 -0.7886  0.3763
11437TIP3    H155802   6.493   6.361  13.577 -1.6660 -0.8398 -0.3003
11437TIP3    H255803   6.459   6.474  13.672  1.4335 -0.8690  0.9146
11438TIP3   OH255804   0.280   3.813  16.486 -0.3886  1.2788  0.6135
11438TIP3    H155805   0.368   3.824  16.523  0.2847  0.2911 -0.6326
11438TIP3    H255806   0.294   3.813  16.391 -1.4655 -0.9180  0.4197
11439TIP3   OH255807   1.591   3.115   3.482  0.4486 -0.1790  0.1891
11439TIP3    H155808   1.554   3.163   3.407  1.2754  1.7672  0.9760
11439TIP3    H255809   1.532   3.135   3.555  0.2116 -1.2352  0.2842
11440TIP3   OH255810   0.630   1.672  13.782 -0.5636 -0.2163  0.0470
11440TIP3    H155811   0.639   1.762  13.749  0.9713 -0.7187 -0.9833
11440TIP3    H255812   0.688   1.670  13.858 -1.6777  0.0460  0.9173
11441TIP3   OH255813   5.116   5.121   2.630  0.0527 -0.0488 -0.4455
11441TIP3    H155814   5.050   5.103   2.697  0.9248  0.1278  0.4697
11441TIP3    H255815   5.065   5.140   2.550 -0.9695 -0.8888  0.0054
11442TIP3   OH255816   0.663   4.536  12.859  0.4040 -0.2921 -0.1807
11442TIP3    H155817   0.753   4.569  12.850  0.4252 -0.0501  0.7677
11442TIP3    H255818   0.639   4.507  12.772  0.4428  2.0964 -1.0021
11443TIP3   OH255819   2.348   6.256   2.951 -0.0791  0.0224 -0.5426
11443TIP3    H155820   2.322   6.310   2.877  0.3407  0.9897 -0.0040
11443TIP3    H255821   2.268   6.210   2.977 -0.4620  0.4520 -0.9617
11444TIP3   OH255822   0.857   4.246   5.685 -0.6127 -0.1422 -0.3855
11444TIP3    H155823   0.951   4.237   5.700 -0.9038 -1.3289  0.8305
11444TIP3    H255824   0.848   4.249   5.590  0.7941  1.7811 -0.4754
11445TIP3   OH255825   2.578   4.279   4.981 -0.1282 -0.3617  0.5096
11445TIP3    H155826   2.525   4.351   5.013 -1.1718 -0.6424 -0.5515
11445TIP3    H255827   2.669   4.309   4.992 -0.4825  0.1170  2.3241
11446TIP3   OH255828   3.893   4.885   1.766 -0.0465 -0.4470 -0.1963
11446TIP3    H155829   3.837   4.956   1.799  0.1267 -0.0526 -0.7454
11446TIP3    H255830   3.833   4.829   1.716  0.0447 -0.0316 -0.7741
11447TIP3   OH255831   5.267   5.936  15.470  0.0183  0.2976  0.3948
11447TIP3    H155832   5.211   5.986  15.411  0.9244 -1.3475 -1.9700
11447TIP3    H255833   5.341   5.995  15.488 -0.7799  1.2001  0.7532
11448TIP3   OH255834   5.657   4.366  15.460  0.2341  0.2503 -0.1558
11448TIP3    H155835   5.584   4.306  15.445  0.3122 -0.1042  0.8185
11448TIP3    H255836   5.660   4.420  15.381 -0.7028 -0.1244 -0.4637
11449TIP3   OH255837   5.224   3.201  14.190  1.0617 -0.5444 -0.0319
11449TIP3    H155838   5.317   3.181  14.190  0.8522 -1.5250  0.0405
11449TIP3    H255839   5.196   3.184  14.281  1.0394  0.8315  0.2369
11450TIP3   OH255840   3.294   5.642   2.644 -0.2583  0.0647  0.2015
11450TIP3    H155841   3.238   5.621   2.569 -1.0973  1.5560  0.3936
11450TIP3    H255842   3.381   5.614   2.617 -0.7083 -0.2315 -0.9745
11451TIP3   OH255843   6.361   4.911   2.927 -0.1049  0.0257 -0.0172
11451TIP3    H155844   6.287   4.924   2.987 -0.1240 -0.4399  0.0633
11451TIP3    H255845   6.336   4.834   2.876  1.4102 -1.6187  1.6713
11452TIP3   OH255846   3.430   6.420   4.059 -0.3098 -0.1494  0.3747
11452TIP3    H155847   3.476   6.488   4.010 -1.4377 -0.5404 -1.2703
11452TIP3    H255848   3.344   6.458   4.078 -1.2096 -1.3719 -1.1942
11453TIP3   OH255849   6.150   5.763   5.093 -0.0973 -0.5299 -0.0214
11453TIP3    H155850   6.145   5.769   5.188 -1.4833  1.4335 -0.1859
11453TIP3    H255851   6.129   5.671   5.074 -1.5133 -0.5422  1.4737
11454TIP3   OH255852   2.776   3.237   2.905  0.4684  0.2270  0.5365
11454TIP3    H155853   2.701   3.177   2.912  0.1880  0.6551  1.3540
11454TIP3    H255854   2.760   3.285   2.823  0.2571 -0.2329  0.3051
11455TIP3   OH255855   1.262   3.631  12.765  0.6172  0.5172 -0.8817
11455TIP3    H155856   1.196   3.686  12.808 -1.1112 -0.7564 -1.8771
11455TIP3    H255857   1.299   3.579  12.837  0.0590  0.7204 -0.4424
11456TIP3   OH255858   1.026   2.733  16.438  0.5320  0.5845 -0.4048
11456TIP3    H155859   1.010   2.643  16.467 -2.2510  1.2327  0.2832
11456TIP3    H255860   1.027   2.728  16.343 -1.5956  0.0594 -0.4376
11457TIP3   OH255861   0.829   1.851  15.472 -0.1950 -0.0005  0.6046
11457TIP3    H155862   0.908   1.812  15.510  0.0952  0.3335  0.3503
11457TIP3    H255863   0.859   1.934  15.435 -0.5022 -0.2415 -0.1977
11458TIP3   OH255864   1.985   2.448   3.889  0.0036 -0.2234 -0.0061
11458TIP3    H155865   1.957   2.357   3.904  0.2204 -0.1592  0.7575
11458TIP3    H255866   2.080   2.441   3.875 -0.0087 -0.1354 -0.1298
11459TIP3   OH255867   1.471   0.347  17.212  0.2961  0.2641 -0.3870
11459TIP3    H155868   1.460   0.425  17.157 -0.4556  1.0244  0.8125
11459TIP3    H255869   1.429   0.277  17.163 -1.7791  1.2512 -0.1031
11460TIP3   OH255870   2.000   3.782  16.006  0.3559  0.4240 -0.0067
11460TIP3    H155871   1.951   3.856  16.043  0.3079 -0.2025  1.2305
11460TIP3    H255872   2.089   3.792  16.040  1.0631  1.4780 -2.1336
11461TIP3   OH255873   4.570   3.652   0.668  0.0105  0.5052  0.1465
11461TIP3    H155874   4.499   3.678   0.609  0.9176  0.1138 -1.1404
11461TIP3    H255875   4.648   3.694   0.632  0.7647 -0.6175  0.4375
11462TIP3   OH255876   4.483   2.432   3.075  0.0297 -0.6593 -0.5746
11462TIP3    H155877   4.541   2.398   3.007  0.2657  0.0881 -0.7556
11462TIP3    H255878   4.492   2.528   3.069 -2.1282 -0.4639 -1.4331
11463TIP3   OH255879   4.866   1.813  15.003  0.2987 -0.2416 -0.1221
11463TIP3    H155880   4.844   1.758  14.928  1.1177 -0.7716  0.0067
11463TIP3    H255881   4.891   1.897  14.965 -0.8378  0.0062 -0.3327
11464TIP3   OH255882   4.560   1.847  16.017 -0.4751  0.4067 -0.4874
11464TIP3    H155883   4.612   1.882  16.089 -1.7419  0.5051  0.4007
11464TIP3    H255884   4.556   1.918  15.953 -1.5762  1.2739  0.5291
11465TIP3   OH255885   0.518   1.326   6.255  0.1103  0.5212  0.5204
11465TIP3    H155886   0.518   1.421   6.258  1.2497  0.5129  0.9228
11465TIP3    H255887   0.580   1.299   6.323  0.2995 -0.4866 -0.0306
11466TIP3   OH255888   0.948   2.221  14.836 -0.3439  0.1590 -0.1655
11466TIP3    H155889   0.990   2.279  14.901  0.3260  0.0510 -0.4945
11466TIP3    H255890   0.959   2.133  14.872  0.1256  0.0892 -0.4749
11467TIP3   OH255891   2.649   1.765   3.904  0.7261  0.5498  0.0748
11467TIP3    H155892   2.608   1.680   3.922  1.1189  0.1083 -1.0630
11467TIP3    H255893   2.720   1.771   3.968 -0.6058  0.9748  1.5486
11468TIP3   OH255894   3.869   3.411  14.899 -0.2777  0.4568  0.3183
11468TIP3    H155895   3.876   3.404  14.804 -0.0198 -0.0928  0.3798
11468TIP3    H255896   3.776   3.432  14.914 -0.3207  0.5374 -0.0489
11469TIP3   OH255897   4.529   0.468  14.753  0.1916  0.5102  0.0741
11469TIP3    H155898   4.532   0.374  14.733 -0.1175  1.0230 -2.5511
11469TIP3    H255899   4.520   0.472  14.848 -1.6950 -2.1546  0.0615
11470TIP3   OH255900   1.145   1.890  11.073 -0.0712 -0.0272  0.5844
11470TIP3    H155901   1.137   1.822  11.007 -0.3041  2.4240 -2.0217
11470TIP3    H255902   1.056   1.924  11.083  0.4809  1.7153 -0.2106
11471TIP3   OH255903   5.164   1.731  13.928 -0.1909  0.1512  0.4161
11471TIP3    H155904   5.239   1.789  13.918  0.2287 -0.3703  0.5294
11471TIP3    H255905   5.163   1.679  13.848  0.8344 -1.3090  1.3236
11472TIP3   OH255906   0.707   1.225   4.337  0.2478 -0.2475 -0.0352
11472TIP3    H155907   0.746   1.282   4.404 -0.4286 -0.0447  0.1927
11472TIP3    H255908   0.748   1.254   4.255 -0.2778  0.7592  0.0407
11473TIP3   OH255909   2.385   3.630  15.898 -0.1034 -0.0434  0.2568
11473TIP3    H155910   2.391   3.648  15.805 -1.2975  1.5336  0.4610
11473TIP3    H255911   2.462   3.577  15.918  0.9528  0.8663 -1.3398
11474TIP3   OH255912   3.082   4.693  12.933 -0.1417  0.1336 -0.2078
11474TIP3    H155913   3.038   4.768  12.894 -0.6357 -0.3975 -0.6675
11474TIP3    H255914   3.067   4.621  12.872  2.0707  0.1383 -0.8147
11475TIP3   OH255915   4.140   3.974   5.607 -0.4348  0.1885 -0.4679
11475TIP3    H155916   4.075   3.933   5.550 -0.8221 -0.9323  0.7497
11475TIP3    H255917   4.115   4.066   5.610 -0.5902  0.1978 -1.8461
11476TIP3   OH255918   2.739   2.703   2.381  0.4717  0.4352  0.4554
11476TIP3    H155919   2.834   2.715   2.377  0.4798 -0.0750 -1.8852
11476TIP3    H255920   2.711   2.756   2.456  2.6387  0.2277  1.4604
11477TIP3   OH255921   3.074   3.573  12.290 -0.1068  0.0125 -0.5933
11477TIP3    H155922   3.042   3.594  12.202  0.4734 -0.3598 -0.8933
11477TIP3    H255923   3.041   3.485  12.308 -0.9954  0.4435 -0.0662
11478TIP3   OH255924   4.263   1.934  14.393  0.1311 -0.4211  0.3588
11478TIP3    H155925   4.252   1.858  14.451  0.4620 -0.2516  0.6397
11478TIP3    H255926   4.311   1.900  14.318 -0.3583 -0.6574  0.1481
11479TIP3   OH255927   2.635   6.471   0.793 -0.7361  0.3844  0.9227
11479TIP3    H155928   2.608   6.463   0.884 -0.7146  0.3861  0.9291
11479TIP3    H255929   2.553   6.475   0.744 -0.8080  2.8160  1.1624
11480TIP3   OH255930   3.455   5.871  12.274  0.1797  0.8172 -0.3845
11480TIP3    H155931   3.526   5.916  12.319 -0.2724  2.5290 -1.3027
11480TIP3    H255932   3.422   5.936  12.210  0.0310 -1.0996 -2.3287
11481TIP3   OH255933   4.484   6.818  12.130 -0.3778 -0.5050 -0.7052
11481TIP3    H155934   4.399   6.816  12.174  0.0553 -2.6212  0.1261
11481TIP3    H255935   4.548   6.811  12.201  0.4686  0.2676 -1.3875
11482TIP3   OH255936   4.247   6.601   1.915 -0.2113  0.7761 -0.4540
11482TIP3    H155937   4.247   6.532   1.849  1.4573  0.3455 -0.0367
11482TIP3    H255938   4.187   6.569   1.983  1.4484 -0.8357  0.2867
11483TIP3   OH255939   3.210   2.553  13.870 -0.0597 -0.4875 -0.2982
11483TIP3    H155940   3.207   2.460  13.851  1.0658 -0.3451 -1.2190
11483TIP3    H255941   3.300   2.580  13.849  0.6622  0.1287  3.1781
11484TIP3   OH255942   2.233   1.452  15.183 -0.2916  0.2240  0.0863
11484TIP3    H155943   2.275   1.374  15.144 -1.2912 -0.3072  0.0696
11484TIP3    H255944   2.177   1.417  15.252 -2.1869  0.7524 -1.1466
11485TIP3   OH255945   3.325   1.802   1.863  0.5568 -0.6564 -0.0932
11485TIP3    H155946   3.364   1.761   1.786 -0.6205 -3.0648  0.5523
11485TIP3    H255947   3.233   1.777   1.860  0.5427 -1.0617  2.2456
11486TIP3   OH255948   1.609   2.989  17.272  0.0302  0.2330 -0.3721
11486TIP3    H155949   1.650   3.054  17.330  1.0378 -1.3502  0.7181
11486TIP3    H255950   1.532   2.959  17.321  0.6214 -0.7606 -0.0390
11487TIP3   OH255951   5.227   0.131   1.333  0.2741 -1.0123 -0.5782
11487TIP3    H155952   5.280   0.161   1.406  1.5032 -0.2828 -1.7425
11487TIP3    H255953   5.173   0.206   1.310  0.8291 -0.8094 -1.2428
11488TIP3   OH255954   0.431   5.088   0.974 -0.4175 -0.0874 -0.2983
11488TIP3    H155955   0.341   5.058   0.983 -0.9604  1.2712 -1.0651
11488TIP3    H255956   0.479   5.012   0.942 -1.8303 -0.0963 -2.5400
11489TIP3   OH255957   3.651   1.239  17.032 -0.4163 -0.4798  0.7015
11489TIP3    H155958   3.683   1.180  16.964 -2.1964  0.7351 -1.2419
11489TIP3    H255959   3.565   1.205  17.055  0.1698 -0.8771  2.3647
11490TIP3   OH255960   1.211   5.117  14.014  0.0752  0.1006  0.0852
11490TIP3    H155961   1.207   5.200  14.061  2.7297 -0.4442  1.3609
11490TIP3    H255962   1.137   5.066  14.049  0.0824  0.9149  1.3182
11491TIP3   OH255963   1.598   2.333   2.428  0.3457  0.1354 -0.3536
11491TIP3    H155964   1.577   2.303   2.340 -1.6842  1.4886 -0.3670
11491TIP3    H255965   1.562   2.421   2.433 -3.1283 -1.3146  3.0781
11492TIP3   OH255966   2.238   4.580   3.675  0.1519  0.0607 -0.0103
11492TIP3    H155967   2.247   4.542   3.588  0.3594  1.5094 -0.6319
11492TIP3    H255968   2.244   4.506   3.735 -2.2150 -1.2367 -1.3289
11493TIP3   OH255969   2.102   5.071   2.547 -0.4306  0.3105  0.1448
11493TIP3    H155970   2.166   5.131   2.507 -0.2921  0.1125  0.0679
11493TIP3    H255971   2.124   4.985   2.511  0.1543  0.0126  1.1938
11494TIP3   OH255972   5.992   6.501  12.326  0.3156  0.2632  0.4872
11494TIP3    H155973   5.967   6.584  12.285  0.0526 -1.2568 -2.5374
11494TIP3    H255974   5.908   6.458  12.344  0.4908 -0.0744  0.4846
11495TIP3   OH255975   0.882   2.355   1.949  0.1439 -0.1690 -0.2030
11495TIP3    H155976   0.961   2.403   1.924  0.1480 -0.5431 -0.9022
11495TIP3    H255977   0.816   2.383   1.885 -0.2921  0.1417  0.3770
11496TIP3   OH255978   4.232   0.694  15.506  0.1166 -0.1873  0.0569
11496TIP3    H155979   4.250   0.786  15.487  0.4312 -0.4562 -0.9769
11496TIP3    H255980   4.176   0.696  15.583  1.3124  0.8211  0.9249
11497TIP3   OH255981   3.814   5.904  13.210 -0.0321  0.7697  0.3037
11497TIP3    H155982   3.786   5.868  13.126  2.3380 -0.0401 -0.1729
11497TIP3    H255983   3.738   5.952  13.242 -1.2728  0.3010 -1.8596
11498TIP3   OH255984   6.577   1.995   1.162 -0.2223 -0.1455  0.3885
11498TIP3    H155985   6.564   2.000   1.257  0.7618 -0.5513  0.5518
11498TIP3    H255986   6.491   2.012   1.125 -1.0113 -1.8304  1.3906
11499TIP3   OH255987   1.950   4.627  13.362 -0.0516  0.1564  0.3836
11499TIP3    H155988   1.886   4.636  13.433 -0.6158  0.4385 -0.1656
11499TIP3    H255989   2.031   4.604  13.407 -1.0188 -2.3859  0.9384
11500TIP3   OH255990   4.408   5.662   1.597  0.1452  0.1372  0.2799
11500TIP3    H155991   4.314   5.679   1.595  0.2253  0.6097  0.4329
11500TIP3    H255992   4.448   5.748   1.614  0.6700  0.1835 -1.0679
11501TIP3   OH255993   4.760   2.068  12.516 -0.2354  0.4045  0.5432
11501TIP3    H155994   4.679   2.081  12.566  0.0774  0.5339  1.0206
11501TIP3    H255995   4.824   2.039  12.581  0.3341  1.1525  0.3290
11502TIP3   OH255996   0.986   4.975   4.083  1.0053 -0.0210  0.3341
11502TIP3    H155997   1.035   4.962   4.001  2.0418 -1.6625  1.1942
11502TIP3    H255998   0.943   4.892   4.099  0.5531  0.3978  1.3109
11503TIP3   OH255999   1.623   5.875   3.540  0.1086  0.3242 -0.2700
11503TIP3    H156000   1.636   5.939   3.469  1.6273  0.4514  0.0953
11503TIP3    H256001   1.529   5.877   3.556  0.1875  3.0113  0.2004
11504TIP3   OH256002   6.376   3.070  11.149 -0.4337 -0.0452  0.4579
11504TIP3    H156003   6.408   3.036  11.066  0.7591  1.7272  0.1666
11504TIP3    H256004   6.298   3.120  11.126  0.1679  0.8440  0.3260
11505TIP3   OH256005   1.555   0.930  15.642 -0.2477  0.0055  0.2654
11505TIP3    H156006   1.557   0.940  15.547 -1.2830 -2.2422 -0.0137
11505TIP3    H256007   1.633   0.879  15.663  0.6763  1.5963  0.7876
11506TIP3   OH256008   4.444   3.498  11.987 -0.2189 -0.4082  0.4114
11506TIP3    H156009   4.355   3.528  12.007  0.0054  0.6781 -0.1626
11506TIP3    H256010   4.500   3.570  12.018  0.3289 -0.1530 -1.1394
11507TIP3   OH256011   0.656   3.948   5.137  0.3805 -0.1904  0.4060
11507TIP3    H156012   0.661   3.871   5.080  3.2904 -0.7795  1.3750
11507TIP3    H256013   0.567   3.948   5.170 -0.1043 -2.2634 -0.8343
11508TIP3   OH256014   6.167   4.685  10.503 -0.7103 -0.0283 -0.5497
11508TIP3    H156015   6.075   4.712  10.515 -0.5726 -0.1725  0.9460
11508TIP3    H256016   6.162   4.591  10.489 -0.8750  0.1386 -1.6624
11509TIP3   OH256017   5.909   2.542   1.040  0.3285  0.1330 -0.3738
11509TIP3    H156018   5.814   2.550   1.041  0.2098 -1.1815 -0.1821
11509TIP3    H256019   5.934   2.559   0.949 -0.0406  0.9628 -0.3236
11510TIP3   OH256020   6.616   1.021   1.759  0.4084 -0.7115 -0.0912
11510TIP3    H156021   6.631   1.033   1.665 -0.1341 -2.7666 -0.4645
11510TIP3    H256022   6.567   1.098   1.785  3.6607  1.6704 -0.7130
11511TIP3   OH256023   2.563   3.661  11.324  0.1140 -0.0767  0.0066
11511TIP3    H156024   2.491   3.639  11.382 -0.8601  1.0033 -0.7824
11511TIP3    H256025   2.604   3.577  11.304 -0.8037 -0.6728  0.5924
11512TIP3   OH256026   1.490   1.128   0.196 -0.3266  0.6426 -0.1282
11512TIP3    H156027   1.524   1.162   0.278 -1.6977 -0.9940  1.1321
11512TIP3    H256028   1.440   1.201   0.159 -2.0488  0.4897  1.8649
11513TIP3   OH256029   6.322   4.651   0.773 -0.1336 -0.0438  0.7300
11513TIP3    H156030   6.378   4.711   0.822 -0.3089  0.6948  0.0342
11513TIP3    H256031   6.348   4.662   0.682 -1.0450 -0.0800  0.4540
11514TIP3   OH256032   1.250   5.659   1.730 -0.1441 -0.2569  0.0875
11514TIP3    H156033   1.298   5.583   1.761 -0.3138  0.3782  1.9765
11514TIP3    H256034   1.304   5.695   1.660  1.0306 -0.8521  0.6745
11515TIP3   OH256035   0.421   4.992   4.093  0.7677 -0.1463  0.1917
11515TIP3    H156036   0.377   4.907   4.103 -1.0034  1.0577  3.7193
11515TIP3    H256037   0.489   4.990   4.160  0.2797  1.4601  0.7435
11516TIP3   OH256038   2.819   1.945   5.445  0.3622  0.4117  0.3124
11516TIP3    H156039   2.784   2.031   5.470 -1.1192 -0.0863 -0.0116
11516TIP3    H256040   2.751   1.907   5.389  0.4150 -1.5316  1.5422
11517TIP3   OH256041   5.657   5.872  12.373 -0.3212 -0.2012 -0.1518
11517TIP3    H156042   5.668   5.872  12.468  2.7951  0.5502 -0.4511
11517TIP3    H256043   5.611   5.953  12.353 -0.3642 -0.0261  0.6798
11518TIP3   OH256044   0.438   6.474   4.709  0.2579  0.7758  0.2199
11518TIP3    H156045   0.522   6.443   4.677  0.4283  0.1289  1.2656
11518TIP3    H256046   0.460   6.545   4.771  0.0627  0.3307  0.8040
11519TIP3   OH256047   6.195   4.383  11.802 -0.1396  0.2279 -0.0384
11519TIP3    H156048   6.192   4.288  11.788  1.8516 -0.0618  1.2161
11519TIP3    H256049   6.209   4.419  11.714 -0.1861 -0.6978 -0.4376
11520TIP3   OH256050   4.455   0.190  17.097  0.1280 -0.2053 -0.1531
11520TIP3    H156051   4.370   0.156  17.123  0.2173 -0.6144 -0.3948
11520TIP3    H256052   4.438   0.281  17.072 -0.2615 -0.3278 -0.3319
11521TIP3   OH256053   6.341   5.744   3.635  0.0118  0.1694  0.3452
11521TIP3    H156054   6.270   5.718   3.692 -1.2391 -1.1629 -1.7370
11521TIP3    H256055   6.299   5.788   3.561  1.0296 -2.7607 -2.1166
11522TIP3   OH256056   4.850   6.071  10.973 -0.0154 -0.3212  0.2978
11522TIP3    H156057   4.945   6.084  10.979  0.2000 -1.3440 -0.6055
11522TIP3    H256058   4.822   6.134  10.906 -0.4813  2.1840  2.7567
11523TIP3   OH256059   0.668   3.511  12.459  0.0807 -0.5170  0.5214
11523TIP3    H156060   0.705   3.433  12.418 -0.3525 -1.1331  1.2865
11523TIP3    H256061   0.691   3.583  12.400  0.6222 -1.1991 -0.1018
11524TIP3   OH256062   1.646   4.595   4.926  0.5009 -1.5035  0.0812
11524TIP3    H156063   1.685   4.584   5.013  2.7979 -2.0956 -0.9778
11524TIP3    H256064   1.687   4.526   4.873  2.2663  1.4171 -2.4977
11525TIP3   OH256065   6.621   3.384   4.489  0.3057  0.8416 -0.5199
11525TIP3    H156066   6.602   3.311   4.429  1.4167  0.6707 -0.6695
11525TIP3    H256067   6.705   3.418   4.459  0.1941  1.6555  0.0815
11526TIP3   OH256068   3.618   6.802  15.765 -0.2928  0.5663  0.5404
11526TIP3    H156069   3.688   6.840  15.817  0.1943 -1.2178  1.2212
11526TIP3    H256070   3.538   6.819  15.816  0.0976 -0.5669  1.5582
11527TIP3   OH256071   0.009   3.856  16.291  0.0585  0.0342 -0.2174
11527TIP3    H156072   0.098   3.828  16.308 -0.0673  0.2005  0.7309
11527TIP3    H256073  -0.002   3.935  16.344 -0.3231  0.5940 -1.1081
11528TIP3   OH256074   0.360   0.719   0.154  0.3422  0.9282 -0.5210
11528TIP3    H156075   0.324   0.711   0.065  0.3762 -0.9205 -0.3846
11528TIP3    H256076   0.321   0.800   0.188  0.5903  1.8357 -2.3354
11529TIP3   OH256077   5.974   2.988   2.588 -0.8430  0.5732 -0.4399
11529TIP3    H156078   6.048   2.956   2.640 -2.6285 -1.0350  1.2103
11529TIP3    H256079   5.964   3.080   2.613 -1.9032 -0.2713  2.4074
11530TIP3   OH256080   4.076   2.911   4.119 -0.3139 -0.2079  0.1867
11530TIP3    H156081   4.017   2.963   4.065 -1.8885 -0.2598  1.8243
11530TIP3    H256082   4.063   2.821   4.088 -1.1717 -0.2324  0.6299
11531TIP3   OH256083   5.056   3.653   0.861 -0.9310 -0.3930 -0.1883
11531TIP3    H156084   5.073   3.656   0.955  0.5740 -0.0674 -0.4616
11531TIP3    H256085   5.143   3.650   0.820 -1.4717  2.2767 -1.6634
11532TIP3   OH256086   5.438   1.351   0.143 -0.0409 -0.0039  0.3339
11532TIP3    H156087   5.379   1.280   0.118 -1.1359  0.6863  0.9043
11532TIP3    H256088   5.405   1.428   0.096  1.7158 -0.0543 -1.0479
11533TIP3   OH256089   5.725   6.005  11.651  0.4976  0.6958 -0.2319
11533TIP3    H156090   5.640   6.045  11.664  0.8969  1.1225  1.1935
11533TIP3    H256091   5.782   6.076  11.622 -0.1208 -0.0283 -3.3562
11534TIP3   OH256092   2.463   1.823   3.500 -0.0475  0.6949  0.3300
11534TIP3    H156093   2.509   1.806   3.582  0.3197  0.7683  0.1391
11534TIP3    H256094   2.498   1.907   3.470 -0.0801  0.5994  0.0282
11535TIP3   OH256095   0.420   1.994   0.074 -0.0712 -0.3879 -0.4231
11535TIP3    H156096   0.448   1.962   0.160  1.4245  0.1251 -0.7039
11535TIP3    H256097   0.423   1.917   0.018  0.9976 -0.2974 -0.4984
11536TIP3   OH256098   2.075   2.896   3.337 -0.1366 -0.2192  0.5901
11536TIP3    H156099   1.999   2.841   3.321 -0.0406  0.0127 -0.6979
11536TIP3    H256100   2.150   2.839   3.322 -0.0045  0.6975 -2.5845
11537TIP3   OH256101   3.010   0.603  12.080  0.2476 -0.1094  0.1026
11537TIP3    H156102   3.075   0.658  12.122  0.4131 -0.6326  0.5371
11537TIP3    H256103   3.011   0.522  12.130 -0.2980 -0.3496 -0.2695
11538TIP3   OH256104   4.109   2.585   3.847 -0.4710 -0.0106 -0.0458
11538TIP3    H156105   4.152   2.667   3.821  0.9063 -0.5873  0.3286
11538TIP3    H256106   4.032   2.578   3.791  0.5862  0.4719 -1.5726
11539TIP3   OH256107   5.372   4.425   4.919  0.1689 -0.4474  0.4726
11539TIP3    H156108   5.290   4.456   4.957 -1.2623 -2.3505 -0.9742
11539TIP3    H256109   5.426   4.402   4.995 -1.6997 -1.8524  1.4286
11540TIP3   OH256110   4.823   2.230  13.178  0.4744  0.3186  0.1425
11540TIP3    H156111   4.765   2.257  13.107  1.7300  2.5666 -0.0776
11540TIP3    H256112   4.904   2.202  13.134  0.5214 -0.2301  0.5770
11541TIP3   OH256113   2.557   0.298   0.323  0.0771  0.6801 -0.2567
11541TIP3    H156114   2.562   0.203   0.309  1.7435  0.8898 -1.1891
11541TIP3    H256115   2.563   0.308   0.418  1.5817 -0.0797 -0.2452
11542TIP3   OH256116   6.047   2.686  17.177 -0.4794 -0.5533 -0.0016
11542TIP3    H156117   6.083   2.681  17.089 -0.7421 -0.0462 -0.1437
11542TIP3    H256118   6.007   2.600  17.192 -0.8161 -0.4975 -0.5505
11543TIP3   OH256119   3.061   0.579  16.430  0.4147 -0.5217  0.1473
11543TIP3    H156120   3.075   0.645  16.497 -1.6023  0.3974 -0.3125
11543TIP3    H256121   3.059   0.496  16.478  1.0524 -0.0729  0.9514
11544TIP3   OH256122   0.258   6.643   5.039  0.3291  0.6624 -0.3923
11544TIP3    H156123   0.347   6.630   5.007  0.2183  2.1491 -1.3419
11544TIP3    H256124   0.206   6.576   4.993  0.5828  1.2387 -1.5327
11545TIP3   OH256125   6.049   4.584   1.116  0.3039 -0.3073  0.1723
11545TIP3    H156126   5.992   4.650   1.157  1.8989  1.6381 -0.6560
11545TIP3    H256127   5.997   4.550   1.043  0.6965  2.5392 -1.5256
11546TIP3   OH256128   5.513   1.259  11.737 -0.0910  0.2760  0.3700
11546TIP3    H156129   5.464   1.214  11.806  0.6808 -1.1022  0.0237
11546TIP3    H256130   5.569   1.192  11.699  1.0497  1.5175 -0.1861
11547TIP3   OH256131   3.143   1.957   2.329 -0.6575  0.3411  0.3285
11547TIP3    H156132   3.109   1.950   2.239  0.4289  0.6366 -0.1191
11547TIP3    H256133   3.083   2.018   2.372 -2.4093 -1.4030  0.4285
11548TIP3   OH256134   6.037   5.611   1.681  0.2168 -0.4557  0.3202
11548TIP3    H156135   5.955   5.622   1.728 -0.9773  0.8000 -1.9855
11548TIP3    H256136   6.011   5.593   1.591  2.4604 -0.1508 -0.4212
11549TIP3   OH256137   1.987   0.095  15.749 -0.2181  0.4358 -0.3990
11549TIP3    H156138   2.072   0.121  15.785  0.1801 -0.8844 -0.3730
11549TIP3    H256139   2.008   0.050  15.667 -0.6669 -2.3594  0.9417
11550TIP3   OH256140   3.184   4.711  13.204  0.1540  0.1873  0.4573
11550TIP3    H156141   3.154   4.695  13.114 -3.4778  0.7335  1.5306
11550TIP3    H256142   3.266   4.760  13.192  0.0254 -0.2068 -2.5508
11551TIP3   OH256143   4.112   4.474  15.939 -0.4031 -0.3458 -0.2010
11551TIP3    H156144   4.095   4.393  15.891 -0.0963 -0.9803  0.7596
11551TIP3    H256145   4.026   4.516  15.947 -0.6049 -0.7160 -0.4327
11552TIP3   OH256146   2.577   4.625  16.558 -0.4489 -0.0861  0.0411
11552TIP3    H156147   2.547   4.715  16.573 -2.3481 -0.9845  1.9623
11552TIP3    H256148   2.507   4.570  16.596  2.2320 -2.3272  1.9208
11553TIP3   OH256149   1.106   3.412   1.931  0.1677  0.8722 -0.2229
11553TIP3    H156150   1.197   3.441   1.942  0.4999 -0.2372  0.0876
11553TIP3    H256151   1.072   3.405   2.020 -0.6494  2.5831 -0.3980
11554TIP3   OH256152   5.148   2.161   2.115 -0.5251  0.5138 -0.2401
11554TIP3    H156153   5.151   2.067   2.100 -0.4299  0.2197  1.4869
11554TIP3    H256154   5.239   2.189   2.115 -0.6019  0.8250 -1.9233
11555TIP3   OH256155   5.868   4.515  12.514 -0.7850  0.1522  0.2193
11555TIP3    H156156   5.783   4.535  12.475 -1.4271 -0.8826  1.0774
11555TIP3    H256157   5.863   4.422  12.538  0.2467  0.3235  1.1444
11556TIP3   OH256158   0.704   3.987   4.266 -0.5194 -0.1428  0.3429
11556TIP3    H156159   0.678   4.072   4.230  2.1082 -0.1348 -1.6820
11556TIP3    H256160   0.621   3.946   4.292 -2.0770  1.9256 -1.1238
11557TIP3   OH256161   1.604   5.435  16.950 -0.0606 -0.4180 -0.4826
11557TIP3    H156162   1.611   5.393  16.864  0.6605 -0.3217 -0.4690
11557TIP3    H256163   1.657   5.380  17.008 -0.8425 -0.6913 -0.0154
11558TIP3   OH256164   2.420   1.262   4.439  0.0307 -0.7291 -0.5368
11558TIP3    H156165   2.359   1.191   4.421 -1.3529 -0.2607  2.1397
11558TIP3    H256166   2.365   1.340   4.445  1.3753  0.3731 -1.9950
11559TIP3   OH256167   5.231   2.996  15.688 -0.2401  0.2940  0.3332
11559TIP3    H156168   5.155   2.940  15.670 -0.9585  2.0564 -2.2472
11559TIP3    H256169   5.219   3.072  15.632  1.5979  2.2937  2.5832
11560TIP3   OH256170   5.720   4.607   3.439 -0.4244  0.1931 -0.3666
11560TIP3    H156171   5.629   4.607   3.410 -0.8514 -2.0544  0.8911
11560TIP3    H256172   5.758   4.527   3.402  0.7305  0.5024  0.1070
11561TIP3   OH256173   1.596   5.142  16.286 -0.1058  0.3090  0.2748
11561TIP3    H156174   1.612   5.173  16.198 -0.2415  0.8989  0.4558
11561TIP3    H256175   1.530   5.073  16.275  1.3093 -0.9796 -0.2902
11562TIP3   OH256176   0.103   5.152   0.874  0.1831 -0.3337 -0.6655
11562TIP3    H156177   0.119   5.071   0.825  2.3309 -1.2303  1.4174
11562TIP3    H256178   0.052   5.124   0.950 -1.3221  0.7120 -1.2688
11563TIP3   OH256179   0.306   6.502   1.351  0.1182  0.2229  0.2475
11563TIP3    H156180   0.342   6.480   1.265  1.6268  1.3211  0.5811
11563TIP3    H256181   0.225   6.550   1.332  0.4238  0.4242 -0.5536
11564TIP3   OH256182   1.835   6.343  14.170  0.0720 -0.2125  0.4884
11564TIP3    H156183   1.852   6.271  14.110 -1.0865 -2.9472  3.2629
11564TIP3    H256184   1.830   6.421  14.115 -3.6794 -2.9194 -3.3112
11565TIP3   OH256185   4.016   0.549  11.888 -0.3911  0.0345 -0.1986
11565TIP3    H156186   4.005   0.620  11.825 -0.0014 -0.1804 -0.5093
11565TIP3    H256187   4.066   0.587  11.960  1.7909 -0.5241 -1.3910
11566TIP3   OH256188   0.946   1.908   3.725 -0.0602  0.2312 -0.1432
11566TIP3    H156189   0.997   1.961   3.664  0.4107  0.2068  0.2318
11566TIP3    H256190   0.862   1.894   3.680 -0.3572  1.6547 -0.0705
11567TIP3   OH256191   4.373   0.726   1.210  0.3912  0.2200 -0.5685
11567TIP3    H156192   4.343   0.810   1.245  1.1097  0.7135 -1.1517
11567TIP3    H256193   4.410   0.747   1.125  1.2812 -0.5779 -0.3798
11568TIP3   OH256194   4.390   4.936  16.707  0.2963 -0.3299  0.4300
11568TIP3    H156195   4.312   4.963  16.754  0.9842  1.8807  0.3777
11568TIP3    H256196   4.361   4.921  16.617 -0.6282 -2.5683  1.0741
11569TIP3   OH256197   1.455   5.996  11.636  0.2065 -0.0097  0.0583
11569TIP3    H156198   1.422   6.046  11.562 -0.0998 -2.6446 -1.6615
11569TIP3    H256199   1.413   6.036  11.712 -0.8225  1.6534 -1.3456
11570TIP3   OH256200   2.626   5.794  16.855  0.5088 -0.1103 -0.2601
11570TIP3    H156201   2.676   5.716  16.831 -0.6703 -0.8719 -0.3016
11570TIP3    H256202   2.645   5.857  16.786  0.0019 -1.0177 -1.2374
11571TIP3   OH256203   4.468   1.853   5.084  0.3045 -0.2340  0.1298
11571TIP3    H156204   4.399   1.801   5.043 -0.9194  1.2925  0.1685
11571TIP3    H256205   4.447   1.851   5.177  0.0854  0.5243  0.1039
11572TIP3   OH256206   3.869   4.941  12.784 -0.2712 -0.1991  0.4062
11572TIP3    H156207   3.780   4.910  12.800 -0.5719  0.6468  0.4023
11572TIP3    H256208   3.861   5.036  12.775  0.7843  0.0040  1.4346
11573TIP3   OH256209   4.530   1.551   3.530  0.7021 -0.2859 -0.1780
11573TIP3    H156210   4.453   1.495   3.542  0.3306  0.4075  0.7450
11573TIP3    H256211   4.598   1.511   3.584  0.8969 -0.7091 -0.7300
11574TIP3   OH256212   5.149   2.010  14.544  0.4691  0.3971 -0.0505
11574TIP3    H156213   5.125   2.036  14.633  0.6427  2.4825 -0.5813
11574TIP3    H256214   5.232   2.054  14.528  0.5809 -0.1880 -1.1471
11575TIP3   OH256215   0.982   4.270  14.090 -0.2017  0.4355  0.0772
11575TIP3    H156216   1.059   4.311  14.050  1.1681 -0.8389  1.3287
11575TIP3    H256217   0.926   4.246  14.016  1.3723 -0.0983 -0.9774
11576TIP3   OH256218   6.423   5.600   2.182 -0.4871 -0.7531  0.6947
11576TIP3    H156219   6.381   5.513   2.179  2.2776 -2.1109 -0.1862
11576TIP3    H256220   6.468   5.602   2.266 -0.4671 -0.1984  0.6718
11577TIP3   OH256221   0.288   4.791  13.714 -0.2068  0.6031  0.1878
11577TIP3    H156222   0.287   4.881  13.747  0.5716  1.2133 -1.4117
11577TIP3    H256223   0.200   4.778  13.677  0.7358  1.8913 -2.6245
11578TIP3   OH256224   4.287   0.018   6.161 -0.1207  0.1021 -0.0570
11578TIP3    H156225   4.194   0.036   6.145 -0.4663 -1.0349  0.6058
11578TIP3    H256226   4.299  -0.072   6.131  0.6619  0.0895  0.2993
11579TIP3   OH256227   5.564   5.829  15.132  0.0989  0.5919  0.2119
11579TIP3    H156228   5.618   5.858  15.059 -0.2372  1.8944  0.4685
11579TIP3    H256229   5.546   5.737  15.114 -1.9226  1.4652 -2.5563
11580TIP3   OH256230   3.228   0.907   4.299  0.7480  0.5290  0.1097
11580TIP3    H156231   3.232   0.973   4.230  2.7602 -1.9764 -2.2752
11580TIP3    H256232   3.142   0.865   4.287  0.5997  0.8923 -0.1025
11581TIP3   OH256233   2.414   0.331  15.044  0.6940 -0.2073  0.2091
11581TIP3    H156234   2.375   0.393  14.983 -0.1233  0.9370  1.8360
11581TIP3    H256235   2.437   0.255  14.991 -3.3845 -0.7920 -0.9427
11582TIP3   OH256236   2.419   4.305   1.306  0.5415 -0.0038  0.1322
11582TIP3    H156237   2.394   4.215   1.325  0.2292  0.2121  0.7645
11582TIP3    H256238   2.366   4.358   1.366  1.3260  0.5517  0.3464
11583TIP3   OH256239   5.401   0.475  10.292 -0.7288  0.2072  0.2640
11583TIP3    H156240   5.445   0.392  10.275  1.5882  1.4889 -0.1979
11583TIP3    H256241   5.309   0.458  10.271  0.1037 -1.5614 -2.2629
11584TIP3   OH256242   1.502   5.382   4.310 -0.3985 -0.3131  0.5431
11584TIP3    H156243   1.503   5.473   4.340 -1.6612 -0.3770  0.8474
11584TIP3    H256244   1.412   5.369   4.280  0.0551 -1.1579 -0.4746
11585TIP3   OH256245   4.011   1.673  13.582  0.2297 -0.0162 -0.3055
11585TIP3    H156246   3.928   1.716  13.602 -0.0401 -0.9314  0.5435
11585TIP3    H256247   4.018   1.603  13.647  1.1360 -0.6461 -1.0819
11586TIP3   OH256248   4.871   0.682   2.391 -0.2860 -0.0004 -0.3505
11586TIP3    H156249   4.853   0.593   2.422  0.0728  0.2027  0.4506
11586TIP3    H256250   4.942   0.671   2.328 -0.1031 -0.2536 -0.1005
11587TIP3   OH256251   0.163   1.606   5.695 -0.2659 -0.5090 -0.3740
11587TIP3    H156252   0.117   1.601   5.612 -2.0402 -0.4239  0.5950
11587TIP3    H256253   0.186   1.515   5.715 -0.5075 -0.6146 -0.5779
11588TIP3   OH256254   5.070   6.158  16.264 -0.3003  0.3617 -0.1340
11588TIP3    H156255   5.006   6.153  16.335  0.9581 -0.2703  0.9765
11588TIP3    H256256   5.116   6.240  16.279  1.1248 -0.5920  0.8060
11589TIP3   OH256257   6.126   2.916   1.101  0.6897  0.0513  0.5153
11589TIP3    H156258   6.107   2.844   1.042  0.5309 -0.5483  1.2873
11589TIP3    H256259   6.078   2.990   1.065  0.8439 -0.2291 -0.2740
11590TIP3   OH256260   1.616   4.368  13.761 -0.7415  0.2577  0.4460
11590TIP3    H156261   1.690   4.347  13.704 -1.0462  0.1142  0.0935
11590TIP3    H256262   1.637   4.453  13.797  1.1649 -1.2143  2.9873
11591TIP3   OH256263   5.875   0.238   4.626  0.2977 -0.0349 -0.1038
11591TIP3    H156264   5.811   0.269   4.562  0.8052  1.4834  0.0939
11591TIP3    H256265   5.846   0.149   4.648 -2.5971  1.1095  1.0554
11592TIP3   OH256266   2.363   4.862   0.515  0.5094  0.1212 -0.4881
11592TIP3    H156267   2.453   4.830   0.509  0.4087  0.0638 -1.6992
11592TIP3    H256268   2.344   4.898   0.429 -1.6570 -2.5806 -1.2121
11593TIP3   OH256269   4.710   6.560  17.132 -0.5823 -0.8561 -0.3236
11593TIP3    H156270   4.626   6.561  17.176 -0.7470 -1.1768 -0.6275
11593TIP3    H256271   4.710   6.478  17.082 -0.2716 -0.6467 -0.6697
11594TIP3   OH256272   3.013   2.669   3.292  0.2016 -0.1793 -0.2629
11594TIP3    H156273   2.933   2.676   3.343  1.0917  1.3596  0.9845
11594TIP3    H256274   2.988   2.698   3.204 -0.8628 -0.8429 -0.1842
11595TIP3   OH256275   4.338   5.674   4.409 -0.0119  0.6772 -0.7289
11595TIP3    H156276   4.379   5.631   4.484 -0.3542 -0.4938 -1.2038
11595TIP3    H256277   4.409   5.687   4.347  0.0479  0.5729 -0.6823
11596TIP3   OH256278   0.610   1.443   3.793  0.0813  0.8082  0.3330
11596TIP3    H156279   0.654   1.465   3.875  2.8744 -1.2872 -0.5196
11596TIP3    H256280   0.564   1.361   3.813  2.1583 -0.6266 -0.5973
11597TIP3   OH256281   1.811   2.867  13.581 -0.0067 -0.2758 -0.0986
11597TIP3    H156282   1.843   2.777  13.573 -0.4597 -0.3691 -0.8581
11597TIP3    H256283   1.778   2.889  13.494 -3.0931 -0.5938  0.9379
11598TIP3   OH256284   4.964   1.402  13.238  0.2756 -0.3135 -0.1698
11598TIP3    H156285   4.925   1.316  13.223  1.1440 -0.6549 -0.4855
11598TIP3    H256286   5.057   1.385  13.250  0.3446  0.5105  0.5132
11599TIP3   OH256287   5.660   3.193  12.736 -0.7566 -0.5597  0.0218
11599TIP3    H156288   5.721   3.131  12.776 -0.4607 -0.4434 -0.2482
11599TIP3    H256289   5.712   3.272  12.720 -1.0393 -0.3726  0.0234
11600TIP3   OH256290   5.805   4.249  12.555  1.0667 -0.5222  0.1237
11600TIP3    H156291   5.718   4.219  12.529  0.6619 -0.7376  1.6581
11600TIP3    H256292   5.858   4.170  12.558  0.4204 -0.9140  2.5365
11601TIP3   OH256293   0.485   3.827  11.171 -0.0064 -0.3174 -0.1516
11601TIP3    H156294   0.556   3.881  11.206 -1.8970  1.4202  1.1484
11601TIP3    H256295   0.493   3.837  11.076  0.0703  1.7950  0.0432
11602TIP3   OH256296   1.194   4.632  17.225  0.0628  0.2200  0.8220
11602TIP3    H156297   1.170   4.720  17.195 -0.3225 -0.1675 -0.0309
11602TIP3    H256298   1.241   4.594  17.151 -0.1605 -0.4563  1.0291
11603TIP3   OH256299   4.174   3.311   1.369 -0.2766 -0.3816 -0.0363
11603TIP3    H156300   4.213   3.224   1.378  0.1612 -0.2282 -0.4499
11603TIP3    H256301   4.085   3.294   1.338  0.8168 -0.5498 -3.2172
11604TIP3   OH256302   4.527   5.730  11.413 -0.3414  0.1721 -0.4950
11604TIP3    H156303   4.609   5.776  11.394 -1.1917  1.9053 -0.1073
11604TIP3    H256304   4.554   5.651  11.460  1.1920  0.0073 -1.6035
11605TIP3   OH256305   4.823   6.085   4.501 -0.7692  0.0931 -0.0324
11605TIP3    H156306   4.781   6.002   4.480 -1.1675  0.8624 -2.4919
11605TIP3    H256307   4.917   6.069   4.487 -0.6214 -0.5128  1.5711
11606TIP3   OH256308   6.250   1.114  12.947  0.4920 -0.1329  0.4248
11606TIP3    H156309   6.199   1.161  12.881  0.2217 -0.8861  0.0932
11606TIP3    H256310   6.316   1.066  12.896 -0.3043 -1.4617  0.6162
11607TIP3   OH256311   0.238   3.565   4.611  0.2068  0.1057  0.4551
11607TIP3    H156312   0.163   3.577   4.552  0.9141  0.5464 -0.3683
11607TIP3    H256313   0.199   3.547   4.696 -0.8395  0.6424  0.0967
11608TIP3   OH256314   5.547   3.995   5.710  0.1351 -0.1826 -0.4868
11608TIP3    H156315   5.462   3.987   5.754  1.0782 -1.5870  1.1343
11608TIP3    H256316   5.529   3.968   5.620 -1.1810 -0.3500 -0.1875
11609TIP3   OH256317   5.063   3.283   6.439 -0.3741  0.6053 -0.9727
11609TIP3    H156318   4.982   3.278   6.388  0.0371  0.4708 -1.6103
11609TIP3    H256319   5.038   3.250   6.526 -0.4254 -1.8216 -1.8703
11610TIP3   OH256320   3.121   5.286  10.772  0.0142 -0.3036  0.6120
11610TIP3    H156321   3.168   5.243  10.843  0.1651  0.8940  1.2425
11610TIP3    H256322   3.189   5.323  10.717 -0.1628  0.4586  0.9079
11611TIP3   OH256323   4.869   3.876   0.308 -0.1005 -0.3553 -0.1938
11611TIP3    H156324   4.964   3.890   0.311 -0.1134 -0.1674 -0.5667
11611TIP3    H256325   4.852   3.811   0.375 -0.0575  1.5411  1.6988
11612TIP3   OH256326   5.525   1.371  11.198 -0.3830  0.1125 -0.1632
11612TIP3    H156327   5.502   1.447  11.145 -1.9416  0.2750  0.7155
11612TIP3    H256328   5.442   1.338  11.230  0.3856 -1.2017  0.5114
11613TIP3   OH256329   4.560   2.512  16.949  0.4738 -0.5248 -0.6651
11613TIP3    H156330   4.565   2.598  16.907 -2.1976  0.2998  0.6229
11613TIP3    H256331   4.554   2.531  17.042  0.4168 -2.1525 -0.3217
11614TIP3   OH256332   6.238   3.427   3.064 -0.3194 -0.2729 -0.3111
11614TIP3    H156333   6.265   3.401   2.976 -1.1176 -1.7165 -0.1593
11614TIP3    H256334   6.309   3.481   3.097 -0.0703  0.3836 -1.8902
11615TIP3   OH256335   6.359   4.709   1.806 -0.2451 -0.3145 -0.1577
11615TIP3    H156336   6.387   4.760   1.730 -1.5138 -0.7170 -0.9266
11615TIP3    H256337   6.304   4.769   1.857  0.2764 -0.1654  0.2257
11616TIP3   OH256338   4.476   1.780   1.749 -0.9556  0.1689 -0.1070
11616TIP3    H156339   4.419   1.794   1.824 -1.0875 -0.7120 -0.0409
11616TIP3    H256340   4.439   1.836   1.680 -1.2802  0.3940  0.2509
11617TIP3   OH256341   1.237   1.190   3.160 -0.3360  0.2805  0.2938
11617TIP3    H156342   1.276   1.237   3.086 -0.6629  0.1119  0.0091
11617TIP3    H256343   1.311   1.161   3.212 -0.1303  1.0058  0.4042
11618TIP3   OH256344   6.037   5.781  12.429 -0.1628  0.2247  0.3277
11618TIP3    H156345   6.016   5.765  12.521  0.5313 -2.4572  0.0669
11618TIP3    H256346   5.954   5.766  12.383  0.3751 -2.4539  0.1377
11619TIP3   OH256347   6.301   0.051   0.356 -0.0101  0.6308 -0.0164
11619TIP3    H156348   6.289  -0.022   0.417 -1.7855  1.7009  0.9425
11619TIP3    H256349   6.388   0.085   0.376  0.1458 -0.1584  0.6775
11620TIP3   OH256350   3.900   0.640  10.990  0.6654 -0.0497  0.2907
11620TIP3    H156351   3.866   0.600  10.910 -0.5825  3.0150 -0.8150
11620TIP3    H256352   3.894   0.572  11.056 -1.8388 -1.5131 -1.3738
11621TIP3   OH256353   3.500   4.458  13.558  0.2894 -0.2416 -0.2774
11621TIP3    H156354   3.540   4.545  13.558  0.6402 -0.3844 -1.6969
11621TIP3    H256355   3.445   4.458  13.480  0.0191 -1.1653 -0.0867
11622TIP3   OH256356   5.923   4.481   0.895 -0.0887  0.0795  0.3731
11622TIP3    H156357   5.830   4.461   0.908  0.2173 -0.2542  2.3351
11622TIP3    H256358   5.967   4.396   0.907  0.4631  0.2291 -0.5885
11623TIP3   OH256359   3.348   4.661   3.081  0.0554 -0.1902 -0.1308
11623TIP3    H156360   3.366   4.726   3.149 -0.7355 -0.0087 -0.0952
11623TIP3    H256361   3.377   4.578   3.119  1.7989  0.2342 -0.4680
11624TIP3   OH256362   5.645   4.534  15.244 -0.0049 -0.4017 -0.5568
11624TIP3    H156363   5.737   4.546  15.218 -0.1475 -0.0844 -0.9210
11624TIP3    H256364   5.595   4.569  15.170 -0.4195  0.9047  0.3278
11625TIP3   OH256365   3.315   2.849  13.255  0.2426 -0.3027  0.0752
11625TIP3    H156366   3.383   2.916  13.252  0.3531 -0.4133  0.1139
11625TIP3    H256367   3.273   2.862  13.340 -0.6920  0.6560 -0.5177
11626TIP3   OH256368   2.086   0.895   2.710 -0.0076 -0.2286  0.8570
11626TIP3    H156369   1.997   0.862   2.723 -0.3009  0.7651  1.3904
11626TIP3    H256370   2.113   0.930   2.795  0.1342  1.2749  0.2151
11627TIP3   OH256371   4.258   3.473   2.690  0.0170 -0.6148  0.0628
11627TIP3    H156372   4.242   3.567   2.690 -1.2186 -0.8155  0.1949
11627TIP3    H256373   4.340   3.462   2.641 -1.0347  0.3137 -1.9197
11628TIP3   OH256374   4.282   0.170   6.432  0.0571 -0.0803 -0.4490
11628TIP3    H156375   4.326   0.243   6.475  1.4974 -1.6961  0.8783
11628TIP3    H256376   4.331   0.157   6.351 -0.4373  0.6459 -0.8761
11629TIP3   OH256377   3.990   1.919  14.739 -0.0912 -0.0974 -0.0553
11629TIP3    H156378   4.067   1.969  14.764 -1.2845 -0.1439  4.1488
11629TIP3    H256379   3.928   1.985  14.707  0.0862  0.5293  0.8643
11630TIP3   OH256380   3.104   0.857  11.689 -0.0878  0.3384  1.0776
11630TIP3    H156381   3.132   0.789  11.750 -0.2310  2.1825  3.2934
11630TIP3    H256382   3.045   0.813  11.628 -1.5141 -1.2045  3.4875
11631TIP3   OH256383   6.164   4.793   5.962 -0.4909  0.1637 -0.1115
11631TIP3    H156384   6.168   4.886   5.981  1.1161 -0.0702  0.7668
11631TIP3    H256385   6.254   4.769   5.939 -0.8261 -1.2362 -0.0293
11632TIP3   OH256386   4.836   4.670   2.353  0.5951 -0.2370 -0.7934
11632TIP3    H156387   4.887   4.713   2.421  0.7186  0.1929 -1.1489
11632TIP3    H256388   4.755   4.643   2.396  1.3166 -1.3494 -0.1157
11633TIP3   OH256389   4.447   3.301   2.575 -0.1903 -0.3445  0.2703
11633TIP3    H156390   4.516   3.235   2.564 -1.0826 -1.2335 -0.1649
11633TIP3    H256391   4.371   3.262   2.532 -1.2283  0.1839  1.6132
11634TIP3   OH256392   5.831   6.165   6.068  0.3737 -0.1671  0.2196
11634TIP3    H156393   5.892   6.220   6.118  0.0407  0.2185  0.2014
11634TIP3    H256394   5.846   6.076   6.101  1.2852 -0.1414 -0.1204
11635TIP3   OH256395   0.367   2.232   0.833  0.1785  0.4349  0.3044
11635TIP3    H156396   0.291   2.267   0.787  1.4084  1.3454 -1.1105
11635TIP3    H256397   0.396   2.303   0.890 -0.8664 -0.4103  1.8932
11636TIP3   OH256398   0.548   2.748  14.537  0.3207  0.3157 -0.0998
11636TIP3    H156399   0.481   2.802  14.496  0.4678 -1.0036 -2.1262
11636TIP3    H256400   0.511   2.722  14.621 -1.0009  1.0115 -0.4657
11637TIP3   OH256401   4.364   0.907   3.067 -0.4770 -0.4785  0.6188
11637TIP3    H156402   4.414   0.853   3.007 -1.2869 -1.6618  0.9978
11637TIP3    H256403   4.365   0.859   3.150  0.5339  1.0765  1.5429
11638TIP3   OH256404   2.422   4.600  13.666 -0.2811  0.1172 -0.7546
11638TIP3    H156405   2.458   4.676  13.620  0.3817  0.7639  0.7951
11638TIP3    H256406   2.381   4.637  13.744 -1.5509 -0.9496 -0.9000
11639TIP3   OH256407   2.691   6.502  10.873  0.7255 -0.0926  0.5456
11639TIP3    H156408   2.659   6.416  10.901  0.2445 -0.0023  0.2818
11639TIP3    H256409   2.621   6.562  10.896  0.2768 -0.0249 -0.9231
11640TIP3   OH256410   6.157   6.575   0.447  0.5506 -0.1287  0.0217
11640TIP3    H156411   6.116   6.633   0.512 -0.4324  0.2404 -0.9129
11640TIP3    H256412   6.085   6.548   0.391  1.7407  1.3016 -2.2512
11641TIP3   OH256413   6.433   4.148  11.845 -0.2851 -0.8833  0.3610
11641TIP3    H156414   6.410   4.216  11.909 -2.9913  1.0706 -2.4723
11641TIP3    H256415   6.443   4.196  11.763  0.4114 -3.6314 -1.2138
11642TIP3   OH256416   6.216   0.689  12.072 -0.1422  0.2771  0.5848
11642TIP3    H156417   6.173   0.610  12.105  0.1187 -0.2471 -0.3084
11642TIP3    H256418   6.190   0.694  11.980  2.8349 -0.8628 -0.3845
11643TIP3   OH256419   3.685   3.895  10.794 -0.4679 -0.3171 -0.2981
11643TIP3    H156420   3.675   3.892  10.889  2.1702  0.7601  0.0747
11643TIP3    H256421   3.679   3.989  10.773  2.2912 -0.1863 -0.7212
11644TIP3   OH256422   2.167   6.672   2.891  0.2693  0.5463 -0.1786
11644TIP3    H156423   2.155   6.750   2.837 -0.6218 -0.6716 -1.7854
11644TIP3    H256424   2.135   6.600   2.837  1.2718 -0.9711  1.1890
11645TIP3   OH256425   0.813   0.170  11.660 -0.4661  0.0187 -0.5806
11645TIP3    H156426   0.762   0.097  11.695  1.4796 -1.1817 -0.1717
11645TIP3    H256427   0.813   0.157  11.565 -0.9613  0.0468 -0.5827
11646TIP3   OH256428   3.967   0.823   2.444 -0.1582  0.3969  0.0983
11646TIP3    H156429   4.026   0.898   2.448 -1.4759  1.3592  1.8349
11646TIP3    H256430   3.879   0.861   2.450 -0.8540 -1.2309  0.3762
11647TIP3   OH256431   5.485   5.974  13.548  0.3901  0.0913  0.3798
11647TIP3    H156432   5.572   6.007  13.571 -0.6964  3.9753 -0.5516
11647TIP3    H256433   5.486   5.968  13.453 -0.1673 -0.4532  0.4071
11648TIP3   OH256434   0.128   6.065  11.136 -0.4323  0.2180 -0.1343
11648TIP3    H156435   0.112   6.146  11.185 -0.1730  0.0595  0.2134
11648TIP3    H256436   0.128   6.093  11.045 -1.8793  0.3585 -0.1102
11649TIP3   OH256437   0.329   1.946  14.905  0.9028  0.7050  0.7534
11649TIP3    H156438   0.361   1.856  14.899  1.7729  1.0019  0.8876
11649TIP3    H256439   0.309   1.971  14.815  2.8305  1.1543  0.4326
11650TIP3   OH256440   0.017   0.432   5.305  0.5018 -0.1469  0.0173
11650TIP3    H156441   0.075   0.504   5.284 -0.8291  1.1907  0.8164
11650TIP3    H256442  -0.033   0.417   5.224  0.2151  0.3759  0.0942
11651TIP3   OH256443   6.608   6.427   2.062  0.0512 -0.2807 -0.2865
11651TIP3    H156444   6.630   6.517   2.039  0.5378 -0.5832 -0.9989
11651TIP3    H256445   6.692   6.385   2.081 -0.1807 -0.5677  0.1354
11652TIP3   OH256446   5.404   2.136   4.891 -0.9392 -0.1041  0.4625
11652TIP3    H156447   5.436   2.061   4.840 -3.9558 -2.0865  1.3457
11652TIP3    H256448   5.440   2.122   4.978  1.6843  1.6304 -0.2875
11653TIP3   OH256449   0.277   3.653  13.100 -0.2917 -0.6022  0.1440
11653TIP3    H156450   0.181   3.653  13.102 -0.3623 -1.3459 -2.2302
11653TIP3    H256451   0.302   3.561  13.109  0.1614 -0.5144 -0.1794
11654TIP3   OH256452   6.052   5.360  14.128  0.1084  0.1774 -0.0807
11654TIP3    H156453   6.018   5.289  14.074 -1.4824  0.1975  0.8677
11654TIP3    H256454   5.975   5.398  14.170  1.2564  0.4024  1.9184
11655TIP3   OH256455   1.551   6.244   0.461 -0.7999 -0.1298  0.4059
11655TIP3    H156456   1.524   6.210   0.546  0.0385 -0.7176  0.4354
11655TIP3    H256457   1.580   6.334   0.479  1.1602 -0.8727  1.0661
11656TIP3   OH256458   6.333   3.293  12.768  0.1708 -0.4885 -0.6084
11656TIP3    H156459   6.245   3.330  12.759  0.3933 -0.3090 -2.4462
11656TIP3    H256460   6.380   3.328  12.692  1.8284 -0.5784  0.3618
11657TIP3   OH256461   3.355   0.346  14.647  0.0292 -0.2284 -0.4006
11657TIP3    H156462   3.306   0.274  14.608 -1.4152  1.3502 -1.5336
11657TIP3    H256463   3.345   0.418  14.585 -1.1971  1.9199  2.2253
11658TIP3   OH256464   1.578   2.370   6.289  0.5648  0.4066 -0.1838
11658TIP3    H156465   1.508   2.357   6.353  0.5664 -2.1290 -0.6708
11658TIP3    H256466   1.534   2.366   6.204  1.0459  0.5046 -0.4398
11659TIP3   OH256467   4.899   0.439  12.139 -0.2057 -0.6159  0.1143
11659TIP3    H156468   4.915   0.389  12.059  1.2801  2.1048 -1.3363
11659TIP3    H256469   4.813   0.479  12.126  0.7821  1.2304 -0.9187
11660TIP3   OH256470   4.075   5.335   2.470  0.3910 -0.3477 -0.2486
11660TIP3    H156471   4.082   5.425   2.504  1.4232 -1.0161  1.3921
11660TIP3    H256472   4.062   5.346   2.376 -0.4074  1.5422  0.0453
11661TIP3   OH256473   5.917   2.075   1.160  0.4496  0.0481  0.2728
11661TIP3    H156474   5.888   2.094   1.071  0.5519 -0.8157  0.0555
11661TIP3    H256475   5.875   1.992   1.182 -0.2516  0.6719  1.3384
11662TIP3   OH256476   1.898   6.594  15.872 -0.2665  0.3926 -0.7663
11662TIP3    H156477   1.930   6.678  15.839 -1.4643  0.3072 -2.1965
11662TIP3    H256478   1.933   6.529  15.811 -1.1972  0.0799 -0.9761
11663TIP3   OH256479   1.223   4.864   4.515  0.0049 -0.3482 -0.0392
11663TIP3    H156480   1.280   4.941   4.516 -0.2816 -0.1419  1.2305
11663TIP3    H256481   1.282   4.790   4.502  0.5393 -0.1138  1.0133
11664TIP3   OH256482   5.570   6.384   1.828 -0.2621 -0.0750 -0.4084
11664TIP3    H156483   5.645   6.325   1.829 -1.1636 -1.2444 -0.0188
11664TIP3    H256484   5.564   6.416   1.918 -2.1866 -2.5553  0.3963
11665TIP3   OH256485   3.636   2.010  12.009 -0.1994  0.2068  0.0202
11665TIP3    H156486   3.632   2.094  11.964 -2.6500  1.2171  1.9680
11665TIP3    H256487   3.729   1.989  12.015  0.3475  1.9620 -1.9493
11666TIP3   OH256488   3.170   2.487  12.802  0.2824  0.1104  0.5130
11666TIP3    H156489   3.140   2.413  12.855 -0.4500 -0.8797 -1.2427
11666TIP3    H256490   3.134   2.564  12.846 -3.1072 -0.9122 -0.3514
11667TIP3   OH256491   4.310   1.099  16.614  0.4870 -0.0897  0.1032
11667TIP3    H156492   4.392   1.066  16.650  0.5892 -0.5529 -0.5326
11667TIP3    H256493   4.322   1.194  16.609  0.8404 -0.1189  0.3640
11668TIP3   OH256494   3.634   1.628   0.115 -0.2852  0.1678  0.3772
11668TIP3    H156495   3.610   1.677   0.036  1.4705 -0.5001 -0.5922
11668TIP3    H256496   3.729   1.633   0.118 -0.3403  0.0943  2.4080
11669TIP3   OH256497   6.455   0.023  15.627  0.4097  0.0762  0.1855
11669TIP3    H156498   6.491   0.020  15.715  0.8698  0.3126  0.0071
11669TIP3    H256499   6.532   0.021  15.570  0.0788 -1.4474 -0.2350
11670TIP3   OH256500   4.657   4.132  13.949 -0.3935  0.1806  0.1593
11670TIP3    H156501   4.583   4.161  13.896 -0.4102  3.2117  1.7491
11670TIP3    H256502   4.731   4.132  13.888 -1.0921  0.1027 -0.7051
11671TIP3   OH256503   0.821   3.117   5.624  0.4414  0.4613 -0.2716
11671TIP3    H156504   0.815   3.153   5.712  0.5977 -0.9481  0.3280
11671TIP3    H256505   0.773   3.179   5.569 -0.8351  0.6451  1.0189
11672TIP3   OH256506   0.777   0.021  13.104  0.5632 -0.5135  0.1762
11672TIP3    H156507   0.700   0.074  13.125  1.2945  0.2527  0.9447
11672TIP3    H256508   0.847   0.058  13.157  1.6317 -0.7658 -1.0221
11673TIP3   OH256509   0.940   5.923   0.178 -0.4810 -0.7061 -0.1995
11673TIP3    H156510   0.902   5.931   0.091 -1.0089 -0.3034  0.0613
11673TIP3    H256511   1.011   5.988   0.179  0.3048 -1.5523 -0.7317
11674TIP3   OH256512   1.403   6.120  13.672 -0.2374 -0.4200  0.1328
11674TIP3    H156513   1.371   6.124  13.762  0.1132 -0.6411  0.2665
11674TIP3    H256514   1.354   6.188  13.626  1.4937  1.4893  1.0610
11675TIP3   OH256515   5.180   0.104  14.411  0.2393 -0.2391 -0.1265
11675TIP3    H156516   5.091   0.079  14.435 -1.4144  0.2105 -5.1630
11675TIP3    H256517   5.198   0.181  14.465 -3.0812  0.6632 -0.1491
11676TIP3   OH256518   5.479   6.069  16.182 -0.0394 -0.3665  0.0177
11676TIP3    H156519   5.419   6.015  16.233  0.7406  1.0551  2.5571
11676TIP3    H256520   5.566   6.043  16.214  0.5840 -0.7995 -1.9847
11677TIP3   OH256521   5.824   1.547   1.702 -0.0084 -0.1758 -0.2527
11677TIP3    H156522   5.738   1.505   1.708 -0.6972  1.2222  0.0608
11677TIP3    H256523   5.806   1.633   1.662  1.1497  0.3602  0.3480
11678TIP3   OH256524   4.711   0.810  12.391  0.3428  0.3659  0.3830
11678TIP3    H156525   4.774   0.822  12.319 -1.2656 -1.5834 -1.4045
11678TIP3    H256526   4.754   0.750  12.451  0.8511  0.3063 -0.0365
11679TIP3   OH256527   5.280   2.875   6.662 -0.8477  0.1765 -0.1176
11679TIP3    H156528   5.318   2.911   6.582  0.2192  0.8055  0.6656
11679TIP3    H256529   5.261   2.952   6.716 -3.4384 -0.1063 -0.5734
11680TIP3   OH256530   0.503   0.828  15.152 -0.4199  0.0433 -0.0358
11680TIP3    H156531   0.538   0.832  15.242  0.8166  0.9147 -0.5366
11680TIP3    H256532   0.533   0.744  15.119 -0.3974 -0.0346  0.1791
11681TIP3   OH256533   0.777   1.440   2.151 -0.1230  0.4576  0.0126
11681TIP3    H156534   0.698   1.486   2.180 -0.0774 -0.0275  0.9081
11681TIP3    H256535   0.747   1.387   2.077 -1.0488 -1.1045  1.4802
11682TIP3   OH256536   3.010   2.263  14.436  0.0869  0.4000 -0.6084
11682TIP3    H156537   2.987   2.268  14.343  2.2130  1.3903 -1.1220
11682TIP3    H256538   2.974   2.179  14.465 -0.8507  0.2097 -2.2588
11683TIP3   OH256539   4.919   3.379  14.764  0.4736 -0.1283 -0.6245
11683TIP3    H156540   4.879   3.316  14.704  0.5063  0.5243 -1.3292
11683TIP3    H256541   4.939   3.328  14.843 -1.6524 -0.4892 -0.2953
11684TIP3   OH256542   0.586   3.620  15.637  0.2761  0.0044  0.0092
11684TIP3    H156543   0.528   3.687  15.601  2.0940  1.2981 -0.5930
11684TIP3    H256544   0.663   3.623  15.581  0.8551 -1.8299  0.6756
11685TIP3   OH256545   0.788   1.348  14.724 -0.6308 -0.2202  0.2638
11685TIP3    H156546   0.728   1.414  14.690 -0.6318 -0.4198 -0.1233
11685TIP3    H256547   0.819   1.302  14.646  0.2026  0.0337  0.4394
11686TIP3   OH256548   2.746   4.333   4.251 -0.3699 -0.1178  0.1591
11686TIP3    H156549   2.658   4.326   4.286 -0.0326 -0.8642  0.8785
11686TIP3    H256550   2.789   4.399   4.305 -0.5770  0.4847 -0.3999
11687TIP3   OH256551   2.565   2.019  14.592  0.4934  0.1047  0.2960
11687TIP3    H156552   2.483   2.007  14.544  0.4687 -1.4249  0.6925
11687TIP3    H256553   2.634   1.998  14.529  0.4995 -0.7774  0.5909
11688TIP3   OH256554   3.412   0.688  13.211  0.4547 -0.2078 -0.4896
11688TIP3    H156555   3.491   0.738  13.190  0.2764  0.8556  1.2776
11688TIP3    H256556   3.440   0.626  13.278 -0.4322  0.8797  0.9042
11689TIP3   OH256557   6.754   5.912  13.426 -0.3492 -0.2788  0.0378
11689TIP3    H156558   6.812   5.867  13.488  2.7779  1.7439 -1.3073
11689TIP3    H256559   6.729   5.845  13.363 -1.5140 -1.7534  1.9970
11690TIP3   OH256560   2.061   2.152   0.154 -0.5953  0.3197  0.1168
11690TIP3    H156561   1.988   2.093   0.135  0.3510 -0.8480  0.0482
11690TIP3    H256562   2.138   2.105   0.124  0.0964  1.9990 -0.8227
11691TIP3   OH256563   3.415   2.059  12.629  0.5275 -0.7517 -0.0513
11691TIP3    H156564   3.416   1.964  12.614  0.0490 -0.7433 -0.1697
11691TIP3    H256565   3.352   2.070  12.701 -1.0467 -0.3429 -1.4593
11692TIP3   OH256566   2.907   2.423   2.466  0.3379 -0.6443  0.1350
11692TIP3    H156567   2.922   2.459   2.379  1.1828 -1.2016  0.0515
11692TIP3    H256568   2.814   2.440   2.483  0.8425  2.1541  0.3669
11693TIP3   OH256569   5.749   2.762  10.824 -0.4394 -0.4964 -0.5678
11693TIP3    H156570   5.751   2.852  10.792  0.7977 -0.3739 -0.1569
11693TIP3    H256571   5.708   2.768  10.910  1.6801 -0.0165  0.4201
11694TIP3   OH256572   3.599   0.216   4.114 -0.0654 -0.0396 -0.0116
11694TIP3    H156573   3.671   0.164   4.079 -0.3822  0.0384 -0.7836
11694TIP3    H256574   3.526   0.201   4.053 -0.6730 -0.0377  0.7031
11695TIP3   OH256575   3.519   4.663  17.174  0.2695  0.4546  0.6085
11695TIP3    H156576   3.508   4.742  17.121 -2.1052  0.6199  1.2847
11695TIP3    H256577   3.527   4.696  17.264 -0.5605 -0.0619  0.8720
11696TIP3   OH256578   0.696   0.472   4.618  0.6196  0.4425 -0.5024
11696TIP3    H156579   0.714   0.539   4.684 -0.0587 -0.9287  1.1034
11696TIP3    H256580   0.719   0.389   4.659  0.0609 -0.4571 -1.9345
11697TIP3   OH256581   5.147   4.086   1.882 -0.1890 -0.1031 -1.0422
11697TIP3    H156582   5.147   3.994   1.858  1.0475  0.1318 -1.9788
11697TIP3    H256583   5.057   4.116   1.864 -0.9249 -1.3668  0.3544
11698TIP3   OH256584   3.088   6.363   3.764  0.1304  0.7835 -0.4225
11698TIP3    H156585   3.140   6.443   3.756  1.8539 -0.4450 -2.1030
11698TIP3    H256586   3.045   6.354   3.679  0.2293 -0.2347 -0.3760
11699TIP3   OH256587   4.021   4.067  16.852  0.2742 -0.0524 -0.1877
11699TIP3    H156588   4.107   4.066  16.894 -0.2071  0.4842  0.8175
11699TIP3    H256589   3.984   4.152  16.875 -0.6377 -0.3854 -0.4092
11700TIP3   OH256590   2.979   1.554   4.126  0.6801  0.6255 -0.3513
11700TIP3    H156591   2.980   1.649   4.113  2.4996  0.4684 -1.4062
11700TIP3    H256592   2.922   1.541   4.202  0.6514  2.5695 -0.0261
11701TIP3   OH256593   3.940   1.998  12.934  0.3095 -0.3956  0.1424
11701TIP3    H156594   3.861   2.036  12.897  1.7018 -0.3144 -2.9292
11701TIP3    H256595   4.011   2.051  12.898  1.9441 -2.2518  0.5415
11702TIP3   OH256596   6.742   0.392  11.331  0.1083 -0.2275  0.3149
11702TIP3    H156597   6.826   0.439  11.337 -0.8787  1.7882 -0.9810
11702TIP3    H256598   6.743   0.355  11.242  0.1799 -1.3488  0.7715
11703TIP3   OH256599   2.870   1.886   6.275  0.8566 -0.2132 -0.1784
11703TIP3    H156600   2.786   1.929   6.290  0.8491 -0.1701 -0.3509
11703TIP3    H256601   2.922   1.950   6.227  0.5800 -0.6824 -1.1146
11704TIP3   OH256602   1.660   2.179  13.466  0.0179  0.4139  0.1285
11704TIP3    H156603   1.687   2.178  13.558 -0.6501  0.0693  0.3216
11704TIP3    H256604   1.728   2.128  13.421 -0.9509 -1.5159  0.7932
11705TIP3   OH256605   4.495   1.862  13.803 -0.1350  0.3151  0.2283
11705TIP3    H156606   4.526   1.852  13.713 -2.9187 -0.3972 -0.7018
11705TIP3    H256607   4.486   1.956  13.815  0.1581  0.4070 -0.2672
11706TIP3   OH256608   2.286   2.829  11.274 -0.0427 -0.0478  0.1951
11706TIP3    H156609   2.267   2.736  11.260  3.0641 -0.8486  0.7733
11706TIP3    H256610   2.277   2.841  11.369 -1.0823  0.4142  0.0437
11707TIP3   OH256611   4.972   6.596  11.598 -0.4406 -0.4928 -0.2796
11707TIP3    H156612   5.026   6.597  11.519 -0.0093  0.0312  0.0168
11707TIP3    H256613   4.885   6.570  11.567 -0.2883 -0.2357 -0.9415
11708TIP3   OH256614   5.451   5.780   1.881  0.2276 -0.6109  0.8867
11708TIP3    H156615   5.485   5.817   1.799  1.0810  0.8821  1.8972
11708TIP3    H256616   5.408   5.699   1.854  2.2619 -1.1962 -0.7893
11709TIP3   OH256617   5.035   0.564   0.883  0.0064  0.4257 -0.1145
11709TIP3    H156618   5.014   0.640   0.829 -0.3342 -0.7659 -1.7268
11709TIP3    H256619   4.950   0.530   0.911  0.0737 -0.1948 -0.6315
11710TIP3   OH256620   3.757   1.844  11.370  0.2142  0.0047 -0.2261
11710TIP3    H156621   3.807   1.764  11.353  0.7233  0.6780 -1.8850
11710TIP3    H256622   3.715   1.864  11.287 -0.4155  1.1297  0.3585
11711TIP3   OH256623   0.178   4.525  17.146 -0.3621 -0.4424  0.1848
11711TIP3    H156624   0.240   4.454  17.127  0.9830  0.4564  1.1563
11711TIP3    H256625   0.157   4.514  17.239 -0.1680  0.4263  0.3260
11712TIP3   OH256626   0.775   4.400   2.551  0.4993  0.2086 -0.2292
11712TIP3    H156627   0.730   4.330   2.503 -0.2417  0.0580  0.6756
11712TIP3    H256628   0.726   4.479   2.530 -0.7998 -0.1105  1.5346
11713TIP3   OH256629   0.027   3.101   1.646  0.1366  0.1724  0.4891
11713TIP3    H156630  -0.041   3.130   1.585 -1.3822 -0.2242  1.9361
11713TIP3    H256631  -0.020   3.085   1.728  1.7315 -1.6702  1.0819
11714TIP3   OH256632   2.177   5.607   4.605  0.1796 -1.0367  0.4382
11714TIP3    H156633   2.261   5.653   4.612 -0.1363 -0.3653 -0.1157
11714TIP3    H256634   2.198   5.528   4.556  0.4762 -0.8350  0.2343
11715TIP3   OH256635   5.075   5.836   3.268 -0.0531  0.7167 -0.1528
11715TIP3    H156636   5.131   5.786   3.208  0.5638  0.9905  0.1927
11715TIP3    H256637   5.029   5.898   3.211  0.8174  1.2364 -0.2913
11716TIP3   OH256638   6.228   3.620  15.280  0.7718  0.4486 -0.1330
11716TIP3    H156639   6.153   3.577  15.321  0.7531  1.1716  0.5933
11716TIP3    H256640   6.237   3.577  15.195 -0.7436  0.6888 -0.4177
11717TIP3   OH256641   2.979   3.037   2.619 -0.3825 -0.0967  0.9810
11717TIP3    H156642   3.060   3.066   2.576 -0.7543 -0.8659 -0.2381
11717TIP3    H256643   2.980   3.084   2.703  1.6582 -0.5992  1.2839
11718TIP3   OH256644   4.166   0.422   6.740  0.3182 -0.0346  0.7047
11718TIP3    H156645   4.161   0.351   6.676  0.9164  0.4966  0.0489
11718TIP3    H256646   4.252   0.411   6.781  1.0455  1.1423 -0.4259
11719TIP3   OH256647   0.827   5.040   2.424  0.4115  0.2459 -0.7230
11719TIP3    H156648   0.807   4.958   2.378 -0.6540  0.9395 -1.5089
11719TIP3    H256649   0.902   5.077   2.375  0.8598 -0.2249 -0.3984
11720TIP3   OH256650   1.991   2.190   3.742  0.4060  0.5027  0.5610
11720TIP3    H156651   1.963   2.135   3.815  1.5854 -0.0450  0.6208
11720TIP3    H256652   1.985   2.133   3.665 -0.0729  0.8319  0.3581
11721TIP3   OH256653   0.180   5.346   5.446 -0.5804 -0.1690 -0.3044
11721TIP3    H156654   0.206   5.420   5.502  0.2772 -1.6146  1.2724
11721TIP3    H256655   0.112   5.301   5.497  0.1817 -1.4846 -0.4449
11722TIP3   OH256656   6.627   0.427   1.820  0.2527  0.3812 -0.5396
11722TIP3    H156657   6.671   0.343   1.817  0.1030  0.3204 -1.2133
11722TIP3    H256658   6.600   0.437   1.912  0.3307 -0.2702 -0.4414
11723TIP3   OH256659   0.349   4.599  16.068 -0.2525  0.3792 -0.0574
11723TIP3    H156660   0.345   4.529  16.003 -0.6607 -0.0603  0.4424
11723TIP3    H256661   0.259   4.631  16.074 -0.9223 -1.8825  2.8057
11724TIP3   OH256662   2.175   2.245   2.724  0.1307 -0.7988  0.2325
11724TIP3    H156663   2.171   2.208   2.812  2.4859 -2.0136 -0.1363
11724TIP3    H256664   2.222   2.328   2.734  1.2696 -1.4015  0.0065
11725TIP3   OH256665   6.052   1.551   1.848  0.6160  0.4886 -0.0782
11725TIP3    H156666   6.028   1.606   1.922 -0.7001 -2.1995  1.5509
11725TIP3    H256667   5.979   1.559   1.787  0.9538  1.4050 -0.3781
11726TIP3   OH256668   4.901   2.968   3.679  0.5073 -0.2013 -0.4864
11726TIP3    H156669   4.926   2.934   3.593  0.8540 -0.0598 -0.4433
11726TIP3    H256670   4.875   3.059   3.662  0.6209 -0.1583 -0.4400
11727TIP3   OH256671   1.325   3.194  16.819  0.6866  0.1838  0.0263
11727TIP3    H156672   1.332   3.100  16.807  1.9888  0.4127 -1.0907
11727TIP3    H256673   1.325   3.206  16.914  0.6833 -0.9210  0.1687
11728TIP3   OH256674   1.881   0.120  14.098 -0.2736 -0.0706 -0.1883
11728TIP3    H156675   1.837   0.188  14.148  0.2892  0.7485 -0.7992
11728TIP3    H256676   1.907   0.162  14.016 -1.5433 -1.5001 -1.3745
11729TIP3   OH256677   4.546   0.862  14.429  0.0435  0.1131 -0.6390
11729TIP3    H156678   4.621   0.828  14.380 -1.0242  0.2073 -2.3864
11729TIP3    H256679   4.529   0.948  14.391 -1.8458 -0.5064 -1.2608
11730TIP3   OH256680   5.275   6.633   4.055  0.1392  0.6685 -0.1666
11730TIP3    H156681   5.258   6.581   3.977 -1.3115  0.4479  0.2724
11730TIP3    H256682   5.303   6.718   4.022  0.8187  0.1643 -0.9041
11731TIP3   OH256683   1.585   1.194   4.087 -0.2168  0.1944  0.2500
11731TIP3    H156684   1.589   1.283   4.051  0.4062 -0.5870 -1.6648
11731TIP3    H256685   1.534   1.144   4.023  0.9257 -1.2246  0.4273
11732TIP3   OH256686   5.014   0.313  17.040 -0.0181 -0.7283  0.2082
11732TIP3    H156687   5.085   0.370  17.010 -1.4436 -0.6237 -3.2667
11732TIP3    H256688   5.052   0.225  17.042  0.9837 -0.2742  1.2278
11733TIP3   OH256689   0.550   6.349  15.093 -0.1811 -0.0138 -0.1267
11733TIP3    H156690   0.639   6.351  15.129 -0.2416  0.9683 -0.0185
11733TIP3    H256691   0.508   6.274  15.137  0.6797 -0.6767 -0.4122
11734TIP3   OH256692   4.590   2.909  16.397 -0.7259  0.2868  0.0926
11734TIP3    H156693   4.613   2.916  16.304  1.0537  1.4555  0.5971
11734TIP3    H256694   4.580   2.999  16.426 -1.5081 -0.0838  1.0072
11735TIP3   OH256695   1.683   6.399  13.682  0.3876  0.1236  0.3607
11735TIP3    H156696   1.777   6.412  13.676  0.3636  0.9909  1.6576
11735TIP3    H256697   1.673   6.307  13.709  0.8646  0.1287  0.5474
11736TIP3   OH256698   1.533   1.853   1.313  0.1959 -0.7016 -0.9911
11736TIP3    H156699   1.492   1.852   1.400 -0.7454  0.1152 -1.4151
11736TIP3    H256700   1.619   1.814   1.327  0.7119  0.9448  0.6674
11737TIP3   OH256701   3.763   3.986  13.319 -0.5468 -0.3019 -0.0853
11737TIP3    H156702   3.757   4.065  13.264 -1.3882 -0.0842  0.3132
11737TIP3    H256703   3.748   4.018  13.408 -0.3165 -0.8306  0.1434
11738TIP3   OH256704   0.585   4.677   0.633  0.4072  0.0454  0.2727
11738TIP3    H156705   0.642   4.679   0.556  1.9612 -0.5597  1.3705
11738TIP3    H256706   0.569   4.584   0.649 -2.4484  0.2530 -1.1097
11739TIP3   OH256707   2.556   3.611   1.516  0.4246  0.3461  0.4234
11739TIP3    H156708   2.559   3.589   1.423 -0.9260  0.3676  0.3595
11739TIP3    H256709   2.501   3.689   1.521 -2.3173 -1.5605  1.5437
11740TIP3   OH256710   2.946   3.588  16.266 -0.5759 -0.4567 -0.2898
11740TIP3    H156711   3.024   3.618  16.314 -0.5597 -1.4360  0.3159
11740TIP3    H256712   2.873   3.607  16.325 -0.6408 -0.8821 -0.2289
11741TIP3   OH256713   5.710   4.232  12.242 -0.1334 -0.4652 -0.1395
11741TIP3    H156714   5.668   4.195  12.164  1.0172 -0.9989 -0.5301
11741TIP3    H256715   5.649   4.216  12.313 -1.1620 -0.0492 -0.9219
11742TIP3   OH256716   2.648   5.452  16.202  0.8237 -0.2751 -0.0497
11742TIP3    H156717   2.716   5.497  16.153 -0.1360  0.5775 -0.6162
11742TIP3    H256718   2.567   5.476  16.158  0.0169 -0.1568  1.4797
11743TIP3   OH256719   1.491   0.398  16.261 -0.1084  0.0830 -0.7547
11743TIP3    H156720   1.576   0.355  16.257  0.1409  0.5915 -1.0780
11743TIP3    H256721   1.462   0.387  16.352  0.2729 -0.1566 -0.6628
11744TIP3   OH256722   6.268   1.382   1.258 -0.5822  0.5457 -0.5012
11744TIP3    H156723   6.311   1.439   1.323 -2.2059 -0.9894  2.0339
11744TIP3    H256724   6.179   1.418   1.250 -0.3947  0.7181 -1.8997
11745TIP3   OH256725   1.339   3.917   5.558 -0.5163  0.1839 -0.5854
11745TIP3    H156726   1.267   3.978   5.539 -0.2986 -0.1129 -2.4852
11745TIP3    H256727   1.339   3.857   5.484  2.0762  0.5349 -0.9270
11746TIP3   OH256728   1.768   1.842  12.598  0.6366  0.3425 -0.0706
11746TIP3    H156729   1.862   1.841  12.615  0.5902 -2.8565  0.3027
11746TIP3    H256730   1.733   1.771  12.652 -1.8710  0.8820 -0.9128
11747TIP3   OH256731   5.788   1.671  13.093  0.1706  0.2199  0.4125
11747TIP3    H156732   5.837   1.753  13.099  3.1266 -1.5188  0.7421
11747TIP3    H256733   5.800   1.630  13.179 -1.0932 -0.6750  0.1726
11748TIP3   OH256734   5.067   0.092   4.137 -0.8607 -0.0286  0.4769
11748TIP3    H156735   5.137   0.059   4.192  0.1519 -3.3316 -2.5543
11748TIP3    H256736   5.003   0.130   4.198  1.3849 -1.1478  3.6350
11749TIP3   OH256737   5.539   3.330  15.851 -0.3831  0.5034 -0.0520
11749TIP3    H156738   5.594   3.401  15.885  1.3970 -0.9936  0.2432
11749TIP3    H256739   5.588   3.295  15.777 -0.3050 -1.7151  1.0330
11750TIP3   OH256740   5.934   0.419   4.079 -0.2936  0.5134  0.3723
11750TIP3    H156741   6.015   0.380   4.046  0.3181  0.9690  1.3455
11750TIP3    H256742   5.892   0.349   4.128 -0.7756  0.1060 -0.5943
11751TIP3   OH256743   5.261   2.056   3.540  0.1451  0.2141 -0.9681
11751TIP3    H156744   5.168   2.039   3.553 -0.1545  1.1737 -1.7928
11751TIP3    H256745   5.274   2.050   3.445  1.0541 -0.5446 -0.8049
11752TIP3   OH256746   1.714   2.010   5.326 -0.3197  0.3571  0.0040
11752TIP3    H156747   1.690   1.958   5.249 -0.6926  1.8176 -0.8829
11752TIP3    H256748   1.631   2.044   5.358 -0.0846  0.3354  0.6463
11753TIP3   OH256749   0.469   1.845  11.922 -0.3609  1.0598 -0.0285
11753TIP3    H156750   0.480   1.892  12.005 -1.1717  0.9680  0.1365
11753TIP3    H256751   0.386   1.799  11.932  0.2601 -0.1467 -0.3173
11754TIP3   OH256752   0.903   3.559   0.538  0.0810 -0.1752  0.2649
11754TIP3    H156753   0.941   3.478   0.504  0.5715 -0.0950  0.6082
11754TIP3    H256754   0.920   3.555   0.632  0.0839  0.3108  0.2863
11755TIP3   OH256755   2.954   3.153  13.745 -0.3432  0.0044 -0.3133
11755TIP3    H156756   2.872   3.201  13.763  0.3329  0.6758  1.0548
11755TIP3    H256757   2.989   3.132  13.831  1.0428 -0.0899 -0.8837
11756TIP3   OH256758   2.583   6.387  12.796  0.5636 -0.6032 -0.2374
11756TIP3    H156759   2.513   6.451  12.781  0.5722 -0.2548  1.1465
11756TIP3    H256760   2.636   6.390  12.716 -0.8650 -0.7099 -1.2072
11757TIP3   OH256761   6.414   2.841   1.494 -0.0559 -0.4283  0.3145
11757TIP3    H156762   6.451   2.797   1.418 -0.9348  2.7729 -2.0822
11757TIP3    H256763   6.323   2.811   1.498 -0.3239  0.2248 -0.6150
11758TIP3   OH256764   0.381   3.134  15.424 -0.1637  0.3587 -0.2947
11758TIP3    H156765   0.310   3.138  15.488  1.0687  0.1850  1.1017
11758TIP3    H256766   0.367   3.211  15.368 -1.1382  0.6324  0.3172
11759TIP3   OH256767   2.613   4.983   1.412  0.7500  0.2110  0.3946
11759TIP3    H156768   2.627   4.898   1.454 -1.2017 -0.1721  0.3445
11759TIP3    H256769   2.588   4.961   1.322 -0.2527  0.7956  0.5185
11760TIP3   OH256770   5.329   2.534  11.299 -0.7989 -0.1178  0.2321
11760TIP3    H156771   5.414   2.496  11.274 -1.4056  0.6371 -3.2519
11760TIP3    H256772   5.351   2.597  11.367  2.0537  2.7105 -3.0895
11761TIP3   OH256773   3.259   1.694  15.421 -0.1067 -0.5163  0.6142
11761TIP3    H156774   3.233   1.766  15.363 -0.0186 -2.0018 -1.2895
11761TIP3    H256775   3.222   1.718  15.506 -3.2576 -0.0195 -0.8123
11762TIP3   OH256776   1.422   0.277  15.964  0.5612  0.6109  0.4528
11762TIP3    H156777   1.375   0.264  16.046  1.3306  0.8858  0.9391
11762TIP3    H256778   1.476   0.354  15.979 -1.5552  2.5136 -1.3437
11763TIP3   OH256779   5.284   5.207  15.969 -0.3484 -0.1637  0.0762
11763TIP3    H156780   5.287   5.117  16.002 -0.0562 -0.3967 -0.5801
11763TIP3    H256781   5.374   5.225  15.941 -0.3447  0.4304  0.4466
11764TIP3   OH256782   0.010   3.719  13.139  0.2180  0.0268  0.2451
11764TIP3    H156783  -0.032   3.798  13.104  1.0420  1.1890  1.8315
11764TIP3    H256784  -0.047   3.648  13.111 -0.8055  1.2267 -0.7994
11765TIP3   OH256785   6.103   0.611  17.237  0.2647  0.7956  0.4904
11765TIP3    H156786   6.024   0.556  17.244  0.4482  0.2844 -1.2942
11765TIP3    H256787   6.076   0.695  17.273 -1.0358  0.5614  0.0981
11766TIP3   OH256788   3.921   2.102   3.030 -0.0759 -0.0220  0.1902
11766TIP3    H156789   3.954   2.014   3.010 -1.2296 -0.7845  1.5404
11766TIP3    H256790   3.858   2.120   2.960  0.2933 -0.1864 -0.1915
11767TIP3   OH256791   5.908   3.214   5.894 -0.2856  0.1744  0.1365
11767TIP3    H156792   5.919   3.131   5.847  1.9937 -0.2849  1.4200
11767TIP3    H256793   5.835   3.198   5.954 -0.0593 -0.8183  0.1614
11768TIP3   OH256794   6.159   5.628  12.056 -0.5277 -0.2926  0.4068
11768TIP3    H156795   6.194   5.624  12.145  1.6223 -0.4535 -0.4157
11768TIP3    H256796   6.161   5.538  12.026 -0.2624 -0.0891 -0.1825
11769TIP3   OH256797   5.909   1.217  16.749 -0.3840  0.2201 -0.5931
11769TIP3    H156798   5.966   1.205  16.825  0.2234  1.6694 -0.7962
11769TIP3    H256799   5.837   1.155  16.762  0.2745 -0.2931  0.6183
11770TIP3   OH256800   5.648   2.108  12.531 -0.6263  0.0801 -0.1430
11770TIP3    H156801   5.586   2.048  12.491 -1.2299  0.0288  0.8542
11770TIP3    H256802   5.670   2.170  12.462 -0.5165 -0.8862 -0.9776
11771TIP3   OH256803   1.042   1.953   2.273 -0.1325 -0.1985 -0.1598
11771TIP3    H156804   0.967   1.913   2.316 -1.8419  1.4430 -1.5175
11771TIP3    H256805   1.081   1.883   2.221  0.7294 -1.6685  2.4095
11772TIP3   OH256806   0.416   4.907   1.237  0.2596  0.2309 -0.2892
11772TIP3    H156807   0.326   4.886   1.212 -0.5626  0.2107  2.4503
11772TIP3    H256808   0.468   4.835   1.203 -0.8863 -0.2208 -1.1158
11773TIP3   OH256809   1.213   2.961   6.493  0.1985  0.1864 -0.5815
11773TIP3    H156810   1.286   2.949   6.433  0.2131  2.3131 -1.0524
11773TIP3    H256811   1.254   2.987   6.576  0.0737 -0.6409 -0.2572
11774TIP3   OH256812   5.081   6.041   4.500 -0.3122 -0.4059 -0.1133
11774TIP3    H156813   5.086   6.034   4.595 -3.0003  1.4268  0.2214
11774TIP3    H256814   5.145   6.108   4.477 -0.6045  0.1078  0.5626
11775TIP3   OH256815   6.784   1.567   5.481  0.1428 -0.3311  0.4570
11775TIP3    H156816   6.729   1.507   5.531  1.2214 -0.8753  1.0292
11775TIP3    H256817   6.735   1.649   5.478 -0.7316 -0.8405  0.8587
11776TIP3   OH256818   6.216   0.773  14.575 -0.6837 -0.2612  0.3617
11776TIP3    H156819   6.166   0.772  14.657 -1.4592 -1.3623 -0.1092
11776TIP3    H256820   6.277   0.700  14.583 -1.1721 -0.7432 -0.2839
11777TIP3   OH256821   3.725   1.488  15.662  0.2181 -0.4344 -0.1827
11777TIP3    H156822   3.771   1.408  15.690  0.1445 -0.3214  0.2704
11777TIP3    H256823   3.715   1.538  15.743  0.6047  0.2109 -0.5367
11778TIP3   OH256824   1.380   5.308   0.351  0.0043 -0.2908 -0.6297
11778TIP3    H156825   1.355   5.380   0.408  1.5115  0.0677 -0.4030
11778TIP3    H256826   1.364   5.341   0.262  0.1308  0.1205 -0.5009
11779TIP3   OH256827   1.048   5.077  12.077  0.3355 -0.2076 -0.5610
11779TIP3    H156828   0.992   5.150  12.050 -2.2596 -1.0381  2.2338
11779TIP3    H256829   0.996   4.999  12.056  0.5511 -1.0051  1.6605
11780TIP3   OH256830   2.758   3.307  13.258  0.1306 -0.2205 -0.1420
11780TIP3    H156831   2.811   3.333  13.334  0.0056 -0.2367 -0.0490
11780TIP3    H256832   2.781   3.215  13.245 -0.5139 -0.4652  0.4279
11781TIP3   OH256833   1.794   2.150   6.284 -0.6497  0.1895 -0.4131
11781TIP3    H156834   1.721   2.108   6.238  0.2017 -2.9772  1.0067
11781TIP3    H256835   1.771   2.142   6.377  1.0623 -0.0012 -0.0006
11782TIP3   OH256836   1.201   2.004   0.483  0.0487  0.3820  0.1686
11782TIP3    H156837   1.223   1.951   0.560  1.6202 -0.9156 -1.1195
11782TIP3    H256838   1.198   2.094   0.515  1.1843 -0.0866  1.6480
11783TIP3   OH256839   5.964   5.855   5.707 -0.2708 -0.2198 -0.1385
11783TIP3    H156840   5.982   5.876   5.799 -2.2103 -0.0077  0.2171
11783TIP3    H256841   5.873   5.883   5.694 -0.2629 -0.9911 -1.8969
11784TIP3   OH256842   3.091   0.521   4.385 -0.0043  0.1898  0.4890
11784TIP3    H156843   3.132   0.441   4.352 -0.6127 -1.0378  2.5810
11784TIP3    H256844   3.073   0.573   4.306  2.4404 -0.7152 -0.7192
11785TIP3   OH256845   0.248   6.034   5.902 -0.3799  0.0299  0.1109
11785TIP3    H156846   0.230   6.110   5.848  0.7678  0.6911  0.6233
11785TIP3    H256847   0.235   6.065   5.992 -0.7208 -0.6111  0.2869
11786TIP3   OH256848   2.562   3.523  16.286 -0.9224 -0.1286 -0.3788
11786TIP3    H156849   2.594   3.539  16.197  0.7193 -3.1611 -0.4194
11786TIP3    H256850   2.633   3.552  16.343 -1.3947  0.4896 -0.0948
11787TIP3   OH256851   0.002   5.621  11.705  0.3084  0.1724  0.1818
11787TIP3    H156852  -0.005   5.645  11.612 -0.6258  3.0747  0.9383
11787TIP3    H256853  -0.050   5.541  11.713  0.5265 -0.2002 -1.8184
11788TIP3   OH256854   4.152   5.881  11.280  0.6885 -0.6605 -0.2223
11788TIP3    H156855   4.117   5.807  11.329  1.7951 -0.6973  0.5467
11788TIP3    H256856   4.139   5.858  11.188 -1.6914 -0.4456  0.0489
11789TIP3   OH256857   0.683   1.154  16.594  0.5241  0.5431  0.0691
11789TIP3    H156858   0.739   1.174  16.669  0.7923 -0.0244  0.0212
11789TIP3    H256859   0.602   1.121  16.634  0.7516  0.0245  0.1070
11790TIP3   OH256860   3.920   3.995   2.795 -0.6402 -0.3719 -0.0491
11790TIP3    H156861   3.831   3.966   2.777 -0.6726 -0.1411 -0.2795
11790TIP3    H256862   3.964   3.918   2.830 -1.6982  0.2415  2.7826
11791TIP3   OH256863   3.705   5.434   2.680 -0.4789  0.6331 -0.1067
11791TIP3    H156864   3.716   5.346   2.646  0.5908  0.7883 -0.1732
11791TIP3    H256865   3.610   5.448   2.680 -0.6241 -0.3232 -0.5695
11792TIP3   OH256866   0.803   3.314   4.595 -0.7274  0.7883  0.2048
11792TIP3    H156867   0.732   3.332   4.657 -1.9643 -0.5868 -0.7522
11792TIP3    H256868   0.801   3.219   4.583  3.1270  0.3467  2.2400
11793TIP3   OH256869   6.148   3.968   4.874 -0.1761  0.3471 -0.3926
11793TIP3    H156870   6.136   4.061   4.856 -0.4496  0.1408 -1.3210
11793TIP3    H256871   6.094   3.950   4.951  0.7892  1.2008  0.4918
11794TIP3   OH256872   0.816   3.079   3.604 -0.1945 -0.0406 -0.3267
11794TIP3    H156873   0.885   3.082   3.670 -0.4063 -0.3277 -0.0917
11794TIP3    H256874   0.812   3.168   3.569 -0.6872  0.3327  0.6660
11795TIP3   OH256875   3.542   3.389   1.960  0.0111  0.3891  0.6449
11795TIP3    H156876   3.531   3.328   2.033  0.7807 -1.6964 -0.9208
11795TIP3    H256877   3.527   3.335   1.882  1.8549  1.9620 -0.8214
11796TIP3   OH256878   2.909   4.901   0.952 -0.0509 -0.6480  0.0599
11796TIP3    H156879   2.836   4.844   0.928 -0.8808  0.1624  0.6356
11796TIP3    H256880   2.944   4.932   0.868 -0.7242 -0.6004 -0.2057
11797TIP3   OH256881   3.754   4.679   1.031 -0.5453 -0.4480  0.3808
11797TIP3    H156882   3.716   4.625   0.962 -1.0329 -0.5317  0.7097
11797TIP3    H256883   3.679   4.724   1.071  0.0649  2.3058 -1.4088
11798TIP3   OH256884   0.964   6.584   2.957  0.3483 -0.0229  0.0763
11798TIP3    H156885   1.026   6.515   2.980  0.3649 -0.4118 -1.1329
11798TIP3    H256886   0.900   6.583   3.028  0.7121 -0.8405  0.3974
11799TIP3   OH256887   5.487   0.467   6.729  0.1109 -0.8712 -0.2954
11799TIP3    H156888   5.581   0.476   6.715 -0.4960  1.1557 -3.4782
11799TIP3    H256889   5.478   0.457   6.824  3.5304 -1.5038  0.0260
11800TIP3   OH256890   6.279   0.094  11.943  0.4679 -0.0974 -0.0483
11800TIP3    H156891   6.312   0.177  11.909  0.4351 -0.1446 -0.1970
11800TIP3    H256892   6.350   0.062  12.000  0.9234 -0.4702 -0.8103
11801TIP3   OH256893   0.657   4.316   0.389  0.2443  0.0989 -0.5188
11801TIP3    H156894   0.680   4.234   0.433 -0.4323 -0.2093 -0.7330
11801TIP3    H256895   0.579   4.295   0.338  0.8812  0.5243 -1.6862
11802TIP3   OH256896   0.044   4.002  14.335 -0.4370  0.6539  0.2597
11802TIP3    H156897   0.102   3.926  14.346 -0.6594  0.4437 -0.0280
11802TIP3    H256898   0.102   4.072  14.303 -0.5792  0.0911 -1.2569
11803TIP3   OH256899   5.337   3.949  14.929  0.4285  0.3126  0.2153
11803TIP3    H156900   5.269   3.977  14.990  0.3553  1.5597 -0.4252
11803TIP3    H256901   5.370   4.030  14.890 -0.0239 -0.4914 -1.9267
11804TIP3   OH256902   3.252   5.508   1.681 -0.4348 -0.5657 -0.5718
11804TIP3    H156903   3.315   5.437   1.685 -1.6435 -1.7027 -1.1353
11804TIP3    H256904   3.215   5.512   1.770 -0.2780 -0.5694 -0.5065
11805TIP3   OH256905   1.760   6.349  13.323 -0.2561  0.1388  0.1463
11805TIP3    H156906   1.690   6.355  13.388 -0.9059 -0.0137 -0.5325
11805TIP3    H256907   1.841   6.351  13.374 -0.7870 -1.8558  1.1134
11806TIP3   OH256908   2.928   2.850  12.451 -0.0613 -0.7696  0.3587
11806TIP3    H156909   2.835   2.867  12.467  0.0231 -0.2661  0.3192
11806TIP3    H256910   2.936   2.755  12.453 -0.6132 -0.8161  0.1548
11807TIP3   OH256911   3.411   0.964   3.439  0.0766  0.1760  0.6658
11807TIP3    H156912   3.363   0.886   3.411 -1.0591  0.7062  1.1018
11807TIP3    H256913   3.344   1.019   3.480  0.7844  1.5493  0.0029
11808TIP3   OH256914   6.227   3.814  16.558  0.0391  0.1508 -0.4781
11808TIP3    H156915   6.321   3.796  16.553  0.0468  0.2613 -0.7327
11808TIP3    H256916   6.188   3.757  16.491 -0.1265 -0.2484 -0.0459
11809TIP3   OH256917   5.158   5.283  11.869 -0.2224 -0.0290  0.1757
11809TIP3    H156918   5.193   5.204  11.828 -0.6622 -0.9695  1.5849
11809TIP3    H256919   5.224   5.350  11.851  0.5783 -0.9194 -0.2751
11810TIP3   OH256920   1.511   0.653   0.201  0.3642  0.4345  0.0449
11810TIP3    H156921   1.419   0.627   0.208  0.3175  1.0112  2.1616
11810TIP3    H256922   1.511   0.726   0.139 -0.2733 -0.9786 -1.6569
11811TIP3   OH256923   4.501   5.669   3.441 -0.1227 -0.3783  0.3190
11811TIP3    H156924   4.450   5.685   3.362  0.3268  0.9425  0.2759
11811TIP3    H256925   4.591   5.687   3.415  0.0234  0.0615  1.1319
11812TIP3   OH256926   3.761   3.717  15.803  0.4261 -0.5687 -0.2228
11812TIP3    H156927   3.730   3.662  15.732  1.3844  1.1122 -2.0064
11812TIP3    H256928   3.792   3.656  15.870 -0.8832 -2.1727 -1.0356
11813TIP3   OH256929   5.574   0.180   6.820  0.3464 -0.8490 -0.0426
11813TIP3    H156930   5.584   0.252   6.882  0.9435 -1.5660  0.7084
11813TIP3    H256931   5.480   0.167   6.813  0.2740 -0.7979  0.7536
11814TIP3   OH256932   4.840   2.519  11.573 -0.3340 -0.3658  0.3341
11814TIP3    H156933   4.931   2.548  11.567 -0.3368 -0.3820  0.2225
11814TIP3    H256934   4.824   2.513  11.667 -1.4072  3.3385  0.4653
11815TIP3   OH256935   1.997   6.112  14.277 -0.1651 -0.5325 -0.5949
11815TIP3    H156936   1.978   6.163  14.357  0.2203 -0.4630 -0.5461
11815TIP3    H256937   1.919   6.059  14.264 -0.6045  0.1198 -0.6799
11816TIP3   OH256938   2.392   1.125  13.570 -0.8310 -0.1682 -0.6933
11816TIP3    H156939   2.434   1.169  13.497 -0.3247 -0.7779 -0.7760
11816TIP3    H256940   2.360   1.043  13.533  2.0486 -1.8609  0.4034
11817TIP3   OH256941   6.068   4.574   1.780 -0.0504 -0.3146 -0.1592
11817TIP3    H156942   6.073   4.564   1.875 -0.8354  1.2795  0.0718
11817TIP3    H256943   6.133   4.512   1.746  0.5469 -0.5938  1.4273
11818TIP3   OH256944   5.314   2.609   0.451 -0.4907  0.4732 -0.2928
11818TIP3    H156945   5.407   2.630   0.447 -0.5493  0.5835 -1.3283
11818TIP3    H256946   5.303   2.534   0.393 -0.9248 -0.0187  0.4173
11819TIP3   OH256947   5.415   0.159   0.615  0.2458 -0.2811  0.0783
11819TIP3    H156948   5.443   0.151   0.524  1.2191  1.4399  0.2165
11819TIP3    H256949   5.429   0.251   0.637  0.9435 -0.8816  2.2811
11820TIP3   OH256950   3.529   6.290   2.962 -0.2045  0.4547  0.2579
11820TIP3    H156951   3.500   6.367   2.913 -0.8480 -0.1510 -0.3137
11820TIP3    H256952   3.555   6.227   2.895  0.1106  0.0882  0.7199
11821TIP3   OH256953   0.351   0.700  15.826  0.1098  0.1745  0.0598
11821TIP3    H156954   0.411   0.764  15.865  0.7110 -1.1322  1.3284
11821TIP3    H256955   0.404   0.621  15.813 -0.9616 -0.5245 -0.1591
11822TIP3   OH256956   3.417   5.713  10.948  0.1710 -0.8521  0.2472
11822TIP3    H156957   3.501   5.743  10.914 -0.5751  0.1828 -0.6952
11822TIP3    H256958   3.434   5.622  10.975  1.6587 -0.5618  0.3395
11823TIP3   OH256959   3.954   5.598  14.493  0.2070  1.2680 -0.3409
11823TIP3    H156960   3.893   5.558  14.430 -0.2617  1.4647 -0.0109
11823TIP3    H256961   4.011   5.525  14.520  0.8574  1.3339 -1.5152
11824TIP3   OH256962   0.863   2.675  12.784  0.7163  0.5406 -0.2173
11824TIP3    H156963   0.806   2.632  12.720  0.4852  0.8041 -0.1919
11824TIP3    H256964   0.883   2.606  12.847 -0.7550  0.7974  0.5650
11825TIP3   OH256965   2.391   1.301  11.478  0.0454 -0.1624 -0.4634
11825TIP3    H156966   2.385   1.218  11.526 -0.1989  0.8365  1.2637
11825TIP3    H256967   2.389   1.275  11.385 -3.2089 -1.8638  0.0183
11826TIP3   OH256968   4.504   3.259  14.031  0.7017  0.5355  0.3261
11826TIP3    H156969   4.461   3.174  14.043 -1.5468  1.3385 -1.5532
11826TIP3    H256970   4.432   3.320  14.016  2.2806  2.7948  1.5437
11827TIP3   OH256971   6.254   1.675   2.037 -0.3768 -0.1726  0.6536
11827TIP3    H156972   6.159   1.688   2.031 -0.3358 -0.2470 -0.2737
11827TIP3    H256973   6.290   1.731   1.968  0.4815  2.1579  2.9357
11828TIP3   OH256974   2.733   4.502   5.668  0.0794  0.1108  0.6019
11828TIP3    H156975   2.734   4.512   5.573 -0.3319  1.3644  0.7106
11828TIP3    H256976   2.695   4.584   5.700 -1.2729 -0.9421  1.7769
11829TIP3   OH256977   1.879   3.354  12.755 -0.5570  0.5179  0.1611
11829TIP3    H156978   1.913   3.358  12.665  1.6204  0.2555  0.9348
11829TIP3    H256979   1.917   3.430  12.799 -0.9934  0.2216  1.0655
11830TIP3   OH256980   4.859   4.638   3.037  0.0092  0.0170 -0.4993
11830TIP3    H156981   4.855   4.664   2.945  0.0552  0.8558 -0.2675
11830TIP3    H256982   4.944   4.597   3.047  0.6440  1.3233 -0.4754
11831TIP3   OH256983   3.108   1.575   2.975 -0.0316 -0.1884  0.0435
11831TIP3    H156984   3.175   1.622   2.926 -0.5567  0.4726 -0.0518
11831TIP3    H256985   3.144   1.487   2.987  0.2881 -0.2341 -1.1561
11832TIP3   OH256986   1.530   0.880   0.054  0.1524  0.4860  0.5180
11832TIP3    H156987   1.501   0.919  -0.028  1.7302 -0.2622 -0.4158
11832TIP3    H256988   1.507   0.944   0.121 -0.7992  1.2718 -0.5572
11833TIP3   OH256989   0.280   4.198  13.235 -0.2564  0.1383 -0.8126
11833TIP3    H156990   0.206   4.143  13.261  0.1787 -0.5859 -1.0807
11833TIP3    H256991   0.269   4.279  13.285 -1.6157  0.3183 -1.3792
11834TIP3   OH256992   1.166   0.283  14.674 -0.2757  0.0699 -0.1382
11834TIP3    H156993   1.075   0.285  14.643  0.1391  1.1631 -1.3083
11834TIP3    H256994   1.172   0.357  14.734  0.1193  0.6174 -0.8509
11835TIP3   OH256995   6.308   4.306   4.906  0.6129  0.2870  0.3135
11835TIP3    H156996   6.343   4.325   4.819 -0.6520  0.9856 -0.0543
11835TIP3    H256997   6.380   4.264   4.953  1.8093  1.3645 -0.5493
11836TIP3   OH256998   3.473   1.135  14.333  0.3882 -0.6411 -0.1136
11836TIP3    H156999   3.534   1.084  14.385 -1.2107 -3.2574 -0.7309
11836TIP3    H257000   3.513   1.139  14.246  0.6200 -0.5867 -0.0068
11837TIP3   OH257001   5.381   2.722  12.118  0.2709  0.2816  0.1948
11837TIP3    H157002   5.473   2.722  12.146  0.4218  1.8456 -0.2471
11837TIP3    H257003   5.368   2.808  12.078 -0.8464 -0.7074 -1.6010
11838TIP3   OH257004   5.441   5.939   3.369  0.0529  0.0655  0.0042
11838TIP3    H157005   5.490   5.937   3.287 -0.5720  1.8903 -0.4210
11838TIP3    H257006   5.367   5.998   3.353  0.4155  1.1690  2.1393
11839TIP3   OH257007   2.980   0.702  14.341  0.3280  0.4099 -0.4726
11839TIP3    H157008   2.992   0.741  14.255 -0.2892 -0.1240 -0.8075
11839TIP3    H257009   2.903   0.645  14.331 -0.8852  1.7844  0.9094
11840TIP3   OH257010   3.289   0.246   5.377  0.1646 -0.0077 -0.0632
11840TIP3    H157011   3.291   0.295   5.295  0.8018  0.1928  0.0664
11840TIP3    H257012   3.380   0.248   5.409  0.5268 -2.4990 -0.7817
11841TIP3   OH257013   5.504   5.162  15.714 -0.7209 -0.2819  0.1717
11841TIP3    H157014   5.582   5.123  15.675  0.1700  1.3987  0.2352
11841TIP3    H257015   5.510   5.255  15.692 -1.8428  0.1495  1.6064
11842TIP3   OH257016   4.319   1.034  13.136  0.7986  0.1209 -0.4485
11842TIP3    H157017   4.398   1.087  13.145 -1.1079  2.9880 -0.1401
11842TIP3    H257018   4.284   1.027  13.225  0.2006 -0.3579 -0.7170
11843TIP3   OH257019   5.246   4.544   3.654 -0.0452  0.1669  0.3850
11843TIP3    H157020   5.210   4.599   3.585 -0.4764 -0.5320  0.0487
11843TIP3    H257021   5.205   4.576   3.734 -0.1194  0.4813  0.2217
11844TIP3   OH257022   4.223   3.507  10.862  0.0509  0.4011  0.0763
11844TIP3    H157023   4.130   3.529  10.868 -0.2416 -0.4898 -0.9194
11844TIP3    H257024   4.247   3.530  10.772  1.0354  1.5205  0.6213
11845TIP3   OH257025   6.019   4.921   5.398  0.0077  0.3969  0.2545
11845TIP3    H157026   6.017   4.880   5.485 -0.4093 -0.2490 -0.0543
11845TIP3    H257027   5.928   4.922   5.369 -0.1633  2.7972  0.8149
11846TIP3   OH257028   6.489   1.243   1.858 -0.2140 -0.3591  0.2006
11846TIP3    H157029   6.546   1.254   1.933  0.5191  0.6183 -0.4850
11846TIP3    H257030   6.500   1.324   1.807  0.0642 -1.3993 -1.4532
11847TIP3   OH257031   6.497   4.409  11.187 -0.0036 -0.3621  0.2531
11847TIP3    H157032   6.556   4.483  11.194 -0.1684 -0.4170  2.6545
11847TIP3    H257033   6.436   4.432  11.116  1.0861  0.9527 -0.2535
11848TIP3   OH257034   3.255   6.196  14.235 -0.0671  0.4356  0.1673
11848TIP3    H157035   3.237   6.285  14.206 -1.8650  0.2592  0.6444
11848TIP3    H257036   3.169   6.154  14.238  0.8095 -1.4936 -0.6074
11849TIP3   OH257037   2.332   4.495  16.614 -0.1808  0.1109 -0.1409
11849TIP3    H157038   2.305   4.558  16.547  0.9593 -0.2710 -0.9698
11849TIP3    H257039   2.356   4.417  16.565  0.9855 -0.0580  0.6858
11850TIP3   OH257040   0.315   1.858  15.822 -0.2999 -0.1766 -0.5344
11850TIP3    H157041   0.312   1.939  15.770  0.3609  0.1428 -0.0808
11850TIP3    H257042   0.338   1.887  15.910  1.6543 -1.0355 -0.7357
11851TIP3   OH257043   1.937   3.389   2.126 -0.6532  0.5249  0.0828
11851TIP3    H157044   1.954   3.305   2.083  1.6433  0.7085  0.5657
11851TIP3    H257045   1.843   3.388   2.144 -1.0221 -1.0477 -1.7673
11852TIP3   OH257046   1.391   0.646   0.496  0.3145  0.0130  0.1709
11852TIP3    H157047   1.388   0.564   0.546 -1.7411 -0.7240 -1.0956
11852TIP3    H257048   1.423   0.620   0.409 -0.9600  0.4081 -0.4383
11853TIP3   OH257049   5.193   6.518  15.148  0.2364 -0.0719 -0.1069
11853TIP3    H157050   5.113   6.508  15.199 -0.4424 -0.9988 -1.3147
11853TIP3    H257051   5.164   6.556  15.065  1.2538  0.9714 -0.0008
11854TIP3   OH257052   0.849   6.110  11.434 -0.0598  0.1379  0.1750
11854TIP3    H157053   0.904   6.170  11.383  0.6987  0.0926  0.9258
11854TIP3    H257054   0.872   6.023  11.402  0.7125  0.0818  0.8631
11855TIP3   OH257055   5.371   4.532   2.929  0.1885  0.1488  0.5172
11855TIP3    H157056   5.427   4.493   2.861 -0.9928 -0.8162  0.0839
11855TIP3    H257057   5.344   4.616   2.892 -1.1380 -0.7436 -0.5992
11856TIP3   OH257058   5.371   6.648   4.990 -0.1998 -0.6304 -0.4889
11856TIP3    H157059   5.353   6.742   4.984  0.2769 -0.7615 -5.0249
11856TIP3    H257060   5.295   6.606   4.951  0.3550 -2.1004 -0.0197
11857TIP3   OH257061   2.909   5.519   6.257 -0.2219  0.0038  0.2786
11857TIP3    H157062   3.000   5.495   6.272 -0.1962  1.0623  1.9294
11857TIP3    H257063   2.861   5.436   6.266  0.4412 -0.3404  0.6701
11858TIP3   OH257064   3.093   3.960  13.030 -0.5224  0.1198 -0.0791
11858TIP3    H157065   3.073   4.025  13.097  0.7051  0.1187  0.3008
11858TIP3    H257066   3.035   3.887  13.049 -0.4636  0.2838  0.7358
11859TIP3   OH257067   1.969   2.197   3.033  0.3330 -0.0434 -0.7825
11859TIP3    H157068   1.931   2.234   2.953 -0.8703  1.6264  0.5269
11859TIP3    H257069   1.981   2.104   3.013 -0.7271  0.1797 -2.6079
11860TIP3   OH257070   5.659   0.198   1.044 -0.1032 -0.3049  0.1006
11860TIP3    H157071   5.708   0.192   1.126 -1.2518  1.4202  0.9561
11860TIP3    H257072   5.573   0.160   1.066 -0.5009  0.4131 -0.2226
11861TIP3   OH257073   6.798   6.416   1.494  0.3138 -0.3716 -0.3643
11861TIP3    H157074   6.775   6.508   1.479 -1.3848 -0.7214  0.0167
11861TIP3    H257075   6.800   6.407   1.589 -1.9512 -1.2928 -0.3805
11862TIP3   OH257076   1.314   5.476  16.981 -0.4297 -0.2774  0.3426
11862TIP3    H157077   1.295   5.570  16.982 -0.3991 -0.2134 -1.9892
11862TIP3    H257078   1.409   5.471  16.971 -0.4834 -0.5393 -0.0541
11863TIP3   OH257079   6.447   6.471  11.642  0.4136  0.7241  0.0444
11863TIP3    H157080   6.451   6.403  11.575 -2.2698  0.0951  0.4612
11863TIP3    H257081   6.475   6.551  11.596  1.6856 -0.2632 -0.9522
11864TIP3   OH257082   3.854   5.075  15.424  0.3552 -0.2880 -0.3602
11864TIP3    H157083   3.852   5.128  15.344 -0.0091  0.0341 -0.1405
11864TIP3    H257084   3.935   5.102  15.468  0.4147 -0.2620 -0.4859
11865TIP3   OH257085   2.253   4.940   2.150 -0.3462 -0.3473 -0.2519
11865TIP3    H157086   2.325   4.902   2.199  0.2948  2.0501  0.7426
11865TIP3    H257087   2.175   4.895   2.183  0.2913 -0.2128  1.4852
11866TIP3   OH257088   6.639   5.098   5.352 -0.6593 -0.2350  0.2085
11866TIP3    H157089   6.550   5.092   5.317 -0.2322 -0.1873 -0.9257
11866TIP3    H257090   6.679   5.014   5.330  0.1180  0.3982 -0.8554
11867TIP3   OH257091   3.492   4.556  12.034  0.2331 -0.4206 -0.0171
11867TIP3    H157092   3.423   4.621  12.045  0.8845  0.2070  0.4049
11867TIP3    H257093   3.491   4.506  12.116  0.8454  0.1432  0.3385
11868TIP3   OH257094   2.253   6.693  11.428 -0.1786 -0.8752 -0.0834
11868TIP3    H157095   2.178   6.707  11.370 -0.5016 -0.9299  0.3242
11868TIP3    H257096   2.325   6.671  11.368 -0.3579 -0.3027 -0.5098
11869TIP3   OH257097   3.367   5.628   4.471 -0.4696 -0.3777  0.1721
11869TIP3    H157098   3.353   5.541   4.510  0.2952  0.1531  1.6741
11869TIP3    H257099   3.360   5.613   4.377  1.1927 -2.3838  0.3192
11870TIP3   OH257100   3.521   5.845  11.282 -0.0152  0.2438 -0.0623
11870TIP3    H157101   3.441   5.794  11.292 -0.0072  0.3871  0.7618
11870TIP3    H257102   3.504   5.903  11.207 -0.2986 -0.4351 -0.5220
11871TIP3   OH257103   3.774   1.628   1.413 -0.6550  0.1800 -0.3184
11871TIP3    H157104   3.723   1.649   1.334 -1.7589 -0.7965  0.1071
11871TIP3    H257105   3.826   1.552   1.388 -0.1660  0.5535 -0.4414
11872TIP3   OH257106   5.574   3.240  10.166 -0.1999  0.2542 -0.3387
11872TIP3    H157107   5.498   3.187  10.191  0.2201 -0.7346 -1.1269
11872TIP3    H257108   5.536   3.322  10.134 -1.0502 -0.8654 -2.3041
11873TIP3   OH257109   6.531   6.265   2.725  0.9709 -0.1489 -0.0038
11873TIP3    H157110   6.594   6.207   2.681 -1.6051 -2.0615 -1.3045
11873TIP3    H257111   6.450   6.253   2.676 -0.6289  1.6627  2.1198
11874TIP3   OH257112   4.488   1.310   1.459  0.7765  0.3823  1.0916
11874TIP3    H157113   4.489   1.379   1.526  0.9894  1.5477 -0.0712
11874TIP3    H257114   4.468   1.230   1.507 -1.8036  1.5960  2.1829
11875TIP3   OH257115   1.418   6.062  16.121 -0.0331 -0.1209  0.6459
11875TIP3    H157116   1.482   6.039  16.053 -1.3669 -0.3982 -0.5420
11875TIP3    H257117   1.463   6.128  16.174  2.0310 -1.8510  1.1300
11876TIP3   OH257118   1.963   3.284   1.318 -0.3893  0.7736 -0.1172
11876TIP3    H157119   1.916   3.363   1.344 -1.0671  0.5924 -0.8087
11876TIP3    H257120   1.949   3.276   1.224 -0.3090 -0.1656 -0.0566
11877TIP3   OH257121   2.027   2.480   1.895  0.0290 -0.1828  0.2854
11877TIP3    H157122   1.963   2.516   1.956 -1.0916  0.0317 -1.0042
11877TIP3    H257123   2.001   2.515   1.810  2.5068  0.7767 -0.1086
11878TIP3   OH257124   1.583   6.548   0.367 -0.0185  0.0369 -0.1337
11878TIP3    H157125   1.489   6.555   0.383  0.2595 -0.5472  1.8953
11878TIP3    H257126   1.590   6.510   0.280 -1.7009 -2.2818  0.6987
11879TIP3   OH257127   4.004   3.674   2.576 -0.6482  0.0033 -0.1445
11879TIP3    H157128   3.945   3.636   2.642 -0.9382  0.2452 -0.2627
11879TIP3    H257129   3.951   3.679   2.497 -0.5822  0.5761 -0.1531
11880TIP3   OH257130   5.359   0.989  12.778  0.7273 -0.7921 -0.0480
11880TIP3    H157131   5.319   1.007  12.863  0.3543 -3.0353  0.3015
11880TIP3    H257132   5.323   1.055  12.719 -0.8283 -0.6634  1.0187
11881TIP3   OH257133   5.247   6.305   2.205  0.1426  0.1711  0.5800
11881TIP3    H157134   5.283   6.302   2.294 -0.3080 -1.1897  0.7328
11881TIP3    H257135   5.281   6.226   2.163  1.1721  1.3309 -0.7987
11882TIP3   OH257136   0.888   4.356   6.001 -0.1096 -0.5650 -0.0526
11882TIP3    H157137   0.982   4.348   6.018 -0.2062 -0.0118  0.7889
11882TIP3    H257138   0.864   4.440   6.041 -1.1663 -1.1857  0.6401
11883TIP3   OH257139   0.603   0.523   0.568  0.0335 -0.1927 -0.2581
11883TIP3    H157140   0.654   0.463   0.514  0.5939  0.4186 -0.4216
11883TIP3    H257141   0.618   0.493   0.658 -0.3809 -0.8176 -0.4028
11884TIP3   OH257142   1.940   4.415   0.281 -0.3393  0.0364  0.3230
11884TIP3    H157143   1.995   4.336   0.285 -1.6880 -0.9013  0.9006
11884TIP3    H257144   1.858   4.385   0.243 -0.7599  1.2412  0.2613
11885TIP3   OH257145   5.017   4.044  13.005 -0.0143 -0.4410 -0.6202
11885TIP3    H157146   5.112   4.046  12.997  0.0833 -1.2884  0.3329
11885TIP3    H257147   4.996   3.953  13.024 -0.9036 -0.0145  0.4693
11886TIP3   OH257148   3.400   3.287   0.876 -0.3145  0.5971  0.8631
11886TIP3    H157149   3.414   3.285   0.971 -0.9787 -0.2346  0.9501
11886TIP3    H257150   3.308   3.309   0.865 -0.0406  1.5233  0.3857
11887TIP3   OH257151   0.382   0.408   5.302  0.4175 -0.0160 -0.1077
11887TIP3    H157152   0.408   0.340   5.240 -0.7111  0.7130 -1.4226
11887TIP3    H257153   0.325   0.363   5.365  1.0594 -0.6362  0.0244
11888TIP3   OH257154   4.204   2.301  12.301 -0.2373 -0.2051  0.5049
11888TIP3    H157155   4.259   2.223  12.295  0.6479  0.4411  0.2024
11888TIP3    H257156   4.212   2.342  12.214 -0.4888  0.3637  0.7485
11889TIP3   OH257157   1.863   5.948   2.319  0.8705 -0.2735 -0.0060
11889TIP3    H157158   1.856   6.042   2.334  0.1920 -0.6814  2.3260
11889TIP3    H257159   1.789   5.910   2.367  0.5955 -1.9470 -1.6583
11890TIP3   OH257160   1.208   0.933  13.550  0.5598 -0.0624  0.2792
11890TIP3    H157161   1.224   0.915  13.457 -1.5677  1.0878 -0.3450
11890TIP3    H257162   1.293   0.960  13.585  1.3846 -0.5299 -1.3166
11891TIP3   OH257163   4.253   2.570   1.729 -0.1453  0.0122 -0.1842
11891TIP3    H157164   4.215   2.531   1.808 -2.1589  0.4798 -0.9009
11891TIP3    H257165   4.309   2.501   1.693 -0.9861 -1.0123  0.4286
11892TIP3   OH257166   0.812   3.950   2.186  0.1203 -0.1213 -0.0992
11892TIP3    H157167   0.745   3.954   2.253  1.6467  0.2595  1.4463
11892TIP3    H257168   0.864   3.872   2.207  0.3242 -0.2773 -1.1196
11893TIP3   OH257169   3.453   0.934  15.164 -0.4226  0.0397 -0.2195
11893TIP3    H157170   3.442   1.001  15.232 -0.6251  0.2044 -0.4138
11893TIP3    H257171   3.396   0.862  15.192 -1.0011  0.3662 -0.5451
11894TIP3   OH257172   6.303   5.199  11.463 -0.2436  0.1275  0.4094
11894TIP3    H157173   6.338   5.120  11.504  0.0240  0.7791  1.4705
11894TIP3    H257174   6.218   5.173  11.429  0.5557 -1.0530 -0.7434
11895TIP3   OH257175   5.270   0.237   3.227 -0.0535 -0.0161  0.6706
11895TIP3    H157176   5.195   0.289   3.199 -0.2138 -0.5100  0.1636
11895TIP3    H257177   5.233   0.171   3.286 -0.1493 -0.7747 -0.2243
11896TIP3   OH257178   2.936   3.344  12.266  0.3382 -0.4118 -0.5313
11896TIP3    H157179   2.954   3.262  12.221  0.6091 -0.9344  0.5047
11896TIP3    H257180   2.840   3.346  12.275  0.1660  0.3568 -2.3235
11897TIP3   OH257181   2.907   0.867  14.556  0.0242 -0.6272  0.1347
11897TIP3    H157182   2.898   0.794  14.617  0.3033  0.3825  1.4151
11897TIP3    H257183   2.938   0.827  14.474 -0.2249 -1.9777  0.6927
11898TIP3   OH257184   0.556   4.791   3.201 -0.6963 -0.2257 -0.7800
11898TIP3    H157185   0.516   4.872   3.231 -0.0989  0.4987 -1.9068
11898TIP3    H257186   0.577   4.743   3.281  0.6461  1.5478 -0.0337
11899TIP3   OH257187   1.684   3.921  14.569  0.7098  0.0415  0.0139
11899TIP3    H157188   1.610   3.932  14.629  1.6426  0.1069  1.1585
11899TIP3    H257189   1.752   3.880  14.621  0.9532 -1.5021 -1.4536
11900TIP3   OH257190   5.277   0.590   1.097 -0.4173  0.0612 -0.0489
11900TIP3    H157191   5.209   0.597   1.030 -1.3329 -0.9358  0.7565
11900TIP3    H257192   5.358   0.616   1.053 -0.9780 -0.7679 -1.5914
11901TIP3   OH257193   1.369   0.338  12.623 -0.3425 -0.0337  0.0176
11901TIP3    H157194   1.279   0.307  12.634 -0.5888  0.7966  0.3707
11901TIP3    H257195   1.412   0.314  12.705  0.0279 -1.3120 -0.5345
11902TIP3   OH257196   3.570   6.426  12.705  0.3994 -0.2303 -0.0415
11902TIP3    H157197   3.635   6.458  12.768  0.7433 -0.8436 -0.0793
11902TIP3    H257198   3.597   6.464  12.621 -0.8589  1.7138  0.4218
11903TIP3   OH257199   3.303   1.985  14.793 -0.3467  0.5999  0.1499
11903TIP3    H157200   3.352   2.057  14.754 -0.6833  0.2588 -0.9152
11903TIP3    H257201   3.322   1.909  14.737  1.3121 -0.5519  2.1879
11904TIP3   OH257202   1.385   5.798   5.477 -0.0156 -0.6734 -0.0156
11904TIP3    H157203   1.291   5.801   5.498 -0.3683  0.0513 -1.5934
11904TIP3    H257204   1.409   5.890   5.464  1.3317 -0.7110  2.1099
11905TIP3   OH257205   1.067   5.876   3.807  0.1281 -0.5831 -0.0317
11905TIP3    H157206   1.097   5.787   3.826 -1.9813 -1.3465 -0.0960
11905TIP3    H257207   0.988   5.887   3.860  1.0364  1.7210  0.9029
11906TIP3   OH257208   2.310   4.910   4.649  0.0326 -0.1407 -0.4617
11906TIP3    H157209   2.249   4.837   4.646  1.8376 -1.7458  0.5273
11906TIP3    H257210   2.286   4.958   4.728  0.2938 -0.9980  0.1484
11907TIP3   OH257211   0.994   1.088  13.187 -0.5701  0.8073  0.0888
11907TIP3    H157212   1.032   1.163  13.232  0.8699  0.7381 -0.9720
11907TIP3    H257213   0.935   1.125  13.122  0.9104  1.0704 -1.1224
11908TIP3   OH257214   3.153   5.573   5.682  0.0981 -0.6042 -0.4377
11908TIP3    H157215   3.213   5.503   5.708 -0.8887 -1.5491 -0.6828
11908TIP3    H257216   3.120   5.609   5.764 -0.3009 -1.2278 -0.3178
11909TIP3   OH257217   1.938   4.155  16.972 -0.5464  0.0843  0.2797
11909TIP3    H157218   1.952   4.088  16.904  1.6641  0.5603  0.2311
11909TIP3    H257219   1.925   4.106  17.052  0.2753 -0.4558  0.0957
11910TIP3   OH257220   3.309   3.599  15.270  0.7287  0.0056 -0.1183
11910TIP3    H157221   3.293   3.539  15.198  0.8536 -0.1809  0.0085
11910TIP3    H257222   3.339   3.679  15.228  2.8411 -0.7841 -0.1619
11911TIP3   OH257223   5.955   0.737  13.505 -0.3787 -0.1794  0.0683
11911TIP3    H157224   5.957   0.787  13.587  0.2241  1.6167 -1.0196
11911TIP3    H257225   5.889   0.781  13.451  1.5909  0.7148 -1.6808
11912TIP3   OH257226   0.108   4.082  12.281 -0.2183 -0.1667 -0.3996
11912TIP3    H157227   0.058   4.025  12.340 -1.4971  0.0183 -1.2803
11912TIP3    H257228   0.116   4.165  12.328  1.0204 -0.8328  0.5874
11913TIP3   OH257229   0.055   0.086   5.915 -0.3230 -0.0097  0.3687
11913TIP3    H157230   0.049   0.175   5.952 -1.1439  0.0730  0.0574
11913TIP3    H257231   0.127   0.045   5.963  0.2961  0.9381  0.2671
11914TIP3   OH257232   0.609   1.872   3.204 -0.3990  0.9236  0.3727
11914TIP3    H157233   0.655   1.939   3.153  0.3542 -0.9350 -1.4491
11914TIP3    H257234   0.656   1.791   3.185 -1.8504 -0.2938  1.8426
11915TIP3   OH257235   3.950   2.209  16.526 -0.0246  0.1252  0.6974
11915TIP3    H157236   3.884   2.233  16.462  1.2000  2.0930  0.1201
11915TIP3    H257237   4.030   2.197  16.474  0.3483 -1.0611  1.5232
11916TIP3   OH257238   1.923   1.743  14.362 -0.5721  0.1677  0.7137
11916TIP3    H157239   1.967   1.798  14.298  1.1750 -3.5505 -1.4064
11916TIP3    H257240   1.843   1.791  14.384 -0.4234  2.2821 -3.0095
11917TIP3   OH257241   4.475   0.268  11.437 -0.0630 -0.7166 -0.3384
11917TIP3    H157242   4.462   0.241  11.528 -1.0576  1.7951  0.2979
11917TIP3    H257243   4.545   0.333  11.441 -0.5910 -0.0767 -1.2653
11918TIP3   OH257244   2.573   6.065   2.884 -0.2141  0.0229  0.1987
11918TIP3    H157245   2.516   6.141   2.896  0.8757  0.4421  3.0331
11918TIP3    H257246   2.650   6.084   2.937  1.5225 -1.6285 -1.6286
11919TIP3   OH257247   1.835   3.857   1.471 -0.0838  0.2907  0.2467
11919TIP3    H157248   1.741   3.868   1.460 -0.3659 -1.7836  0.4331
11919TIP3    H257249   1.874   3.915   1.405 -1.4608  1.3478  0.3382
11920TIP3   OH257250   0.220   6.650   0.013 -0.4518 -0.2381  0.6139
11920TIP3    H157251   0.148   6.637   0.075 -0.5268  1.9264  1.0172
11920TIP3    H257252   0.191   6.721  -0.043  0.5581 -0.6741 -0.4806
11921TIP3   OH257253   3.543   4.505  11.299 -0.6424 -0.5257  0.1632
11921TIP3    H157254   3.521   4.537  11.211 -0.9799  0.9932  0.7891
11921TIP3    H257255   3.572   4.583  11.346 -1.6838 -1.1113  1.7849
11922TIP3   OH257256   6.413   6.388   4.424 -0.1581 -0.5941  0.0318
11922TIP3    H157257   6.329   6.433   4.411 -0.1779 -1.0134 -1.3252
11922TIP3    H257258   6.402   6.303   4.382  1.3443 -0.1979 -1.2118
11923TIP3   OH257259   5.846   6.807   3.479  0.3691 -0.0259  0.2533
11923TIP3    H157260   5.788   6.748   3.431  0.5354 -0.3152  0.4079
11923TIP3    H257261   5.929   6.804   3.430 -0.2102  1.5971 -0.8873
11924TIP3   OH257262   5.544   1.783   3.510 -0.3450 -0.2920  0.6291
11924TIP3    H157263   5.543   1.860   3.567 -0.6624 -0.3253  0.6666
11924TIP3    H257264   5.476   1.801   3.445 -2.2848 -1.7610  2.2083
11925TIP3   OH257265   2.113   4.452  15.993 -1.1699  0.4019 -0.5694
11925TIP3    H157266   2.127   4.515  15.922  0.4586 -1.1284 -1.6464
11925TIP3    H257267   2.183   4.471  16.056  0.2356 -1.2358 -1.5897
11926TIP3   OH257268   3.305   4.492  16.572 -0.0363 -0.3956  0.8857
11926TIP3    H157269   3.347   4.449  16.647  1.6643 -0.2218  0.0558
11926TIP3    H257270   3.266   4.420  16.522  1.0175 -0.7759  0.5996
11927TIP3   OH257271   3.727   0.029   1.290 -0.5433  0.0901 -0.2103
11927TIP3    H157272   3.713  -0.002   1.201  0.9458  1.5156 -0.9762
11927TIP3    H257273   3.648   0.078   1.312 -0.5931  0.3793 -1.0287
11928TIP3   OH257274   3.055   3.416  15.027 -0.0903  0.5378 -0.3546
11928TIP3    H157275   3.121   3.352  15.052 -0.5863  0.8517  1.8758
11928TIP3    H257276   3.105   3.496  15.010  0.1698  0.5849  0.6249
11929TIP3   OH257277   0.396   3.663   5.255 -0.0141 -0.2898 -0.3591
11929TIP3    H157278   0.354   3.746   5.278  0.0945 -0.3137 -0.0771
11929TIP3    H257279   0.326   3.611   5.216  0.3122  0.5811 -2.1401
11930TIP3   OH257280   6.074   5.456  14.769  0.7073 -0.1132 -0.6017
11930TIP3    H157281   6.080   5.365  14.798  1.0540  0.1292  0.0983
11930TIP3    H257282   5.991   5.460  14.720 -0.7585 -0.1564  1.7758
11931TIP3   OH257283   2.970   2.301   4.585  0.3263  0.2355 -0.2123
11931TIP3    H157284   2.930   2.321   4.500 -1.1019 -2.9237 -0.3369
11931TIP3    H257285   2.908   2.333   4.650 -0.7998 -1.5065 -0.4024
11932TIP3   OH257286   1.954   4.928   0.524 -0.1076  0.6242 -0.0361
11932TIP3    H157287   1.963   4.947   0.617 -1.7926  1.4697 -0.0305
11932TIP3    H257288   2.018   4.986   0.482  0.2850  0.6286  0.5580
11933TIP3   OH257289   2.290   5.549   6.437 -0.1468  0.4518 -0.7157
11933TIP3    H157290   2.367   5.511   6.396 -0.4946 -0.1840 -0.7955
11933TIP3    H257291   2.314   5.640   6.455  1.4766 -0.3502  1.4098
11934TIP3   OH257292   2.240   0.490   0.857 -0.0913 -0.0698 -0.4307
11934TIP3    H157293   2.169   0.540   0.898 -0.5965 -0.1625 -1.1866
11934TIP3    H257294   2.200   0.452   0.779  0.3732 -1.3812 -0.0400
11935TIP3   OH257295   4.078   1.943   3.533 -0.4358 -0.2789  0.3114
11935TIP3    H157296   4.113   1.977   3.451 -0.2450  0.1880  0.5819
11935TIP3    H257297   4.025   2.015   3.568  0.4138 -0.0582  1.1606
11936TIP3   OH257298   0.864   6.114   5.883  0.1821  0.0631 -0.1412
11936TIP3    H157299   0.776   6.134   5.913  0.6205  1.4470  0.2625
11936TIP3    H257300   0.918   6.185   5.917  1.6683 -1.3829  0.6357
11937TIP3   OH257301   0.578   2.771   3.270 -0.3316  0.2761  0.0243
11937TIP3    H157302   0.528   2.790   3.190  0.1676  1.6889  0.0285
11937TIP3    H257303   0.581   2.855   3.316  1.1983 -0.0392  0.5050
11938TIP3   OH257304   6.116   5.832  15.375  0.2589  0.2453  0.1185
11938TIP3    H157305   6.041   5.791  15.331  1.3598  0.4978 -2.0357
11938TIP3    H257306   6.104   5.809  15.468 -2.3436  0.0923 -0.2160
11939TIP3   OH257307   4.399   5.914  14.375  0.0736 -0.2760  0.6894
11939TIP3    H157308   4.344   5.839  14.354  0.1130 -0.6808  2.0357
11939TIP3    H257309   4.475   5.877  14.421  1.0411  0.3731 -0.3423
11940TIP3   OH257310   5.225   2.986   5.006 -0.2166  0.2030 -0.3597
11940TIP3    H157311   5.262   3.067   4.970 -1.0614  1.2461  1.0447
11940TIP3    H257312   5.159   2.960   4.942 -0.8324  1.3498 -0.2236
11941TIP3   OH257313   0.406   1.362   5.831 -0.8408  0.2703 -0.0908
11941TIP3    H157314   0.454   1.426   5.779 -0.2041  0.2768  0.5049
11941TIP3    H257315   0.394   1.404   5.916  0.0289 -0.5968  0.4726
11942TIP3   OH257316   1.114   2.982  15.931 -0.4006 -0.0653 -0.3132
11942TIP3    H157317   1.074   3.037  15.864 -0.4008 -1.8189 -1.8298
11942TIP3    H257318   1.185   2.937  15.884  0.3083 -0.4969  1.1555
11943TIP3   OH257319   2.515   2.852  14.429 -0.7409 -0.0300  0.1412
11943TIP3    H157320   2.494   2.882  14.340  0.7491 -0.9692 -0.5651
11943TIP3    H257321   2.603   2.888  14.445 -1.4085  0.9595  1.6400
11944TIP3   OH257322   6.146   2.457  10.847 -0.7043  0.6585  0.2001
11944TIP3    H157323   6.145   2.511  10.768  0.0731 -1.6230 -1.4263
11944TIP3    H257324   6.065   2.406  10.842  0.1079 -0.6312  0.0390
11945TIP3   OH257325   5.844   6.278   1.907 -0.1357 -0.3706 -0.4221
11945TIP3    H157326   5.901   6.310   1.837  0.7494 -2.3065 -0.6260
11945TIP3    H257327   5.892   6.204   1.945 -0.5725  0.6635  2.2697
11946TIP3   OH257328   3.054   1.699   1.465  0.1138 -0.5781 -0.3362
11946TIP3    H157329   3.012   1.688   1.380 -0.1511  0.7453 -0.3991
11946TIP3    H257330   3.115   1.626   1.472  0.8179 -0.1830 -2.0690
11947TIP3   OH257331   0.963   0.572  13.810  0.0885  0.2471 -0.2652
11947TIP3    H157332   0.888   0.628  13.788  2.0685  2.6363 -1.1936
11947TIP3    H257333   1.035   0.607  13.757  2.0772 -1.4450  1.2532
11948TIP3   OH257334   5.459   2.199   0.859 -0.3378  0.2694 -0.8292
11948TIP3    H157335   5.385   2.202   0.919 -0.7014  3.3642 -1.3579
11948TIP3    H257336   5.535   2.180   0.915 -1.2083 -0.7573  0.0124
11949TIP3   OH257337   4.959   5.223   1.122 -0.0686 -0.0203 -0.3727
11949TIP3    H157338   5.014   5.147   1.140 -1.4471 -0.8408  0.5107
11949TIP3    H257339   5.013   5.280   1.066  1.9285 -0.4502  1.0555
11950TIP3   OH257340   6.384   1.393   0.728 -0.3722 -0.2010  0.4718
11950TIP3    H157341   6.423   1.306   0.717 -0.7214 -0.3684  0.5702
11950TIP3    H257342   6.342   1.411   0.644 -1.1043 -0.5271  0.7603
11951TIP3   OH257343   5.535   1.012   5.310 -0.3295  0.2045 -0.0872
11951TIP3    H157344   5.605   1.074   5.330 -0.3128  0.2104 -0.1619
11951TIP3    H257345   5.526   1.017   5.215 -0.8195  0.6168 -0.0170
11952TIP3   OH257346   6.777   3.438  10.756 -0.0585  0.3054 -0.3436
11952TIP3    H157347   6.715   3.390  10.811  1.9439 -0.5897  1.2014
11952TIP3    H257348   6.752   3.530  10.767 -0.7319  0.0063  0.7339
11953TIP3   OH257349   5.967   4.050  13.964  0.8517  0.0089 -0.0727
11953TIP3    H157350   5.943   4.123  14.021 -0.6285  0.4595 -1.2491
11953TIP3    H257351   5.959   4.085  13.875  4.0824 -0.3742 -0.5895
11954TIP3   OH257352   4.584   5.394   3.037  0.0258 -0.9941 -0.0188
11954TIP3    H157353   4.513   5.357   3.090 -0.8366 -0.7342 -0.9705
11954TIP3    H257354   4.654   5.411   3.099 -1.9143  1.7766  1.5192
11955TIP3   OH257355   5.461   5.516  14.357 -0.6556  0.2540 -0.0757
11955TIP3    H157356   5.374   5.530  14.320 -0.9273  1.4957  0.9951
11955TIP3    H257357   5.509   5.596  14.336 -0.3829  0.3886  1.0551
11956TIP3   OH257358   1.312   1.544  15.775  0.4189 -0.3012  0.4976
11956TIP3    H157359   1.363   1.600  15.833 -0.1243  0.9539 -0.2226
11956TIP3    H257360   1.237   1.516  15.827  1.3414 -1.4080  1.2640
11957TIP3   OH257361   0.066   1.760   0.459  0.3504  0.6289 -0.9710
11957TIP3    H157362   0.003   1.688   0.466  2.0130 -0.7541  0.1824
11957TIP3    H257363   0.107   1.747   0.373  1.8696 -0.8740 -0.0554
11958TIP3   OH257364   2.354   0.335   1.052 -0.5710  0.3695  0.0334
11958TIP3    H157365   2.445   0.360   1.065 -0.0910 -0.6698 -1.3015
11958TIP3    H257366   2.324   0.387   0.978 -1.0267  0.5761  0.3535
11959TIP3   OH257367   4.911   5.423  16.087 -0.0132  0.2133 -0.0978
11959TIP3    H157368   4.862   5.502  16.063 -1.5510 -1.3507 -2.2892
11959TIP3    H257369   5.001   5.440  16.057  0.2916  2.1209  1.7731
11960TIP3   OH257370   5.503   4.244  13.444  0.0845 -0.4522 -0.4045
11960TIP3    H157371   5.575   4.182  13.446  0.2681 -0.4005 -3.3246
11960TIP3    H257372   5.447   4.219  13.518  1.5443 -2.3441  0.0902
11961TIP3   OH257373   5.694   5.154  16.973 -0.1370  0.1358 -0.0731
11961TIP3    H157374   5.622   5.217  16.964  0.6019  1.0202  0.0977
11961TIP3    H257375   5.753   5.195  17.036  0.8171 -0.3045 -0.6778
11962TIP3   OH257376   1.057   2.968  10.936 -0.5526 -0.4150 -0.4415
11962TIP3    H157377   1.107   2.889  10.958  0.4877  0.3423 -0.0535
11962TIP3    H257378   0.981   2.935  10.889 -0.2309 -1.6725 -0.1155
11963TIP3   OH257379   2.314   0.440  16.150  0.2870 -0.0892  0.1369
11963TIP3    H157380   2.368   0.418  16.226  1.6580  0.8719 -0.5223
11963TIP3    H257381   2.352   0.390  16.078 -0.3957 -0.2522 -0.1124
11964TIP3   OH257382   3.919   0.308  14.072 -0.6390  0.0522 -0.0773
11964TIP3    H157383   3.849   0.262  14.027 -0.4290 -0.5893  0.2403
11964TIP3    H257384   3.883   0.395  14.092 -0.7587  0.3118 -1.3981
11965TIP3   OH257385   2.210   5.599   1.453 -0.4216 -0.0973 -0.2362
11965TIP3    H157386   2.278   5.629   1.393 -0.0974  1.6789  0.9881
11965TIP3    H257387   2.141   5.665   1.446 -0.4900 -0.0113  1.1406
11966TIP3   OH257388   6.153   4.659  11.061  0.6950 -0.4130  0.2108
11966TIP3    H157389   6.156   4.692  10.971  1.9810 -0.7221  0.1388
11966TIP3    H257390   6.243   4.668  11.093 -0.1114  1.4136  2.0857
11967TIP3   OH257391   6.578   3.744  14.563  0.6584  0.1804 -0.5053
11967TIP3    H157392   6.633   3.822  14.570  0.7821 -0.0131  1.0264
11967TIP3    H257393   6.491   3.773  14.589  0.4313  0.0934 -1.1750
11968TIP3   OH257394   0.173   0.327   2.772 -0.1251  0.7318  0.2476
11968TIP3    H157395   0.233   0.255   2.757 -1.0294  0.0333 -0.0643
11968TIP3    H257396   0.229   0.404   2.783  0.8774 -0.1524  1.4061
11969TIP3   OH257397   0.400   1.602  15.414 -0.6014  0.0203 -0.0693
11969TIP3    H157398   0.451   1.602  15.333  1.3165 -0.4644  1.1013
11969TIP3    H257399   0.390   1.509  15.436  1.0326  0.1860  1.5207
11970TIP3   OH257400   4.710   2.227  11.310 -0.3869  0.0901 -0.2716
11970TIP3    H157401   4.696   2.319  11.291  0.7634  0.0517 -1.3315
11970TIP3    H257402   4.725   2.224  11.405  1.1936  1.1932 -0.4817
11971TIP3   OH257403   3.312   3.956  11.122  0.3972  0.3542 -0.2531
11971TIP3    H157404   3.245   3.949  11.189 -1.2613  1.1660 -1.7952
11971TIP3    H257405   3.351   3.869  11.117 -1.0303 -0.3060  0.1345
11972TIP3   OH257406   5.559   2.561  15.017  0.6839 -0.1548  0.0743
11972TIP3    H157407   5.653   2.541  15.016  0.5103 -1.0769  0.8874
11972TIP3    H257408   5.534   2.549  15.109 -0.5281 -1.4235 -0.4068
11973TIP3   OH257409   2.230   1.200   4.712 -0.4160 -0.2230 -0.1006
11973TIP3    H157410   2.139   1.179   4.735 -0.4655  0.2490  0.1308
11973TIP3    H257411   2.253   1.133   4.647 -1.7116  1.0259 -1.9093
11974TIP3   OH257412   2.862   4.841  12.369  0.4767 -0.3427  0.2785
11974TIP3    H157413   2.925   4.900  12.411 -0.4725  0.5837  0.4174
11974TIP3    H257414   2.842   4.883  12.286 -1.0109  0.0793  0.8357
11975TIP3   OH257415   1.183   4.973   6.245 -0.2092 -0.5673 -0.5927
11975TIP3    H157416   1.155   4.918   6.171  0.4777  0.9420 -2.0027
11975TIP3    H257417   1.232   4.913   6.301 -0.5678 -1.6940 -1.4447
11976TIP3   OH257418   0.199   5.402   2.323 -0.0274 -0.0348 -0.2465
11976TIP3    H157419   0.233   5.471   2.265 -2.0333  0.1688 -1.2343
11976TIP3    H257420   0.144   5.348   2.266 -0.9900 -0.6061  1.1861
11977TIP3   OH257421   3.645   0.062  15.470  0.1178 -0.0381 -0.1075
11977TIP3    H157422   3.646  -0.031  15.447  2.9754  0.0368 -0.5666
11977TIP3    H257423   3.658   0.063  15.565  0.3221 -0.1096 -0.1342
11978TIP3   OH257424   6.659   3.198   1.489  0.0507  0.4825  0.2372
11978TIP3    H157425   6.672   3.291   1.503 -0.1473  0.5241  0.1505
11978TIP3    H257426   6.569   3.182   1.516  0.3767  0.1401  1.1175
11979TIP3   OH257427   3.910   1.061   3.223 -0.4541 -0.5930  0.1257
11979TIP3    H157428   3.933   1.121   3.152 -0.5790  1.5724  1.8565
11979TIP3    H257429   3.981   0.996   3.223  0.6171  0.5456 -0.6893
11980TIP3   OH257430   3.370   5.342  11.433  0.3119 -0.5752  0.0066
11980TIP3    H157431   3.299   5.330  11.496  1.0674  0.3262  1.0460
11980TIP3    H257432   3.434   5.274  11.457 -0.9968 -2.6158 -2.1097
11981TIP3   OH257433   1.131   4.252  12.535 -0.5615 -0.3636 -0.2605
11981TIP3    H157434   1.066   4.251  12.605 -0.9585  1.8343 -0.5503
11981TIP3    H257435   1.214   4.237  12.579 -0.9924 -0.6428  0.4561
11982TIP3   OH257436   4.774   2.511   6.861 -0.4232  0.5976 -0.4878
11982TIP3    H157437   4.685   2.508   6.896  0.4016  1.2067  1.7255
11982TIP3    H257438   4.797   2.604   6.861 -0.0418  0.5164 -1.7807
11983TIP3   OH257439   2.041   6.544   2.422 -0.1936 -0.3736 -0.1187
11983TIP3    H157440   2.134   6.526   2.437 -0.2278 -1.0993 -0.7058
11983TIP3    H257441   2.009   6.579   2.505  1.1439  2.2093 -0.6258
11984TIP3   OH257442   5.794   4.106  10.834 -0.4171 -0.3973 -0.2204
11984TIP3    H157443   5.768   4.093  10.925  0.1716 -0.0615 -0.0067
11984TIP3    H257444   5.788   4.200  10.821 -1.8379 -0.5623 -0.9335
11985TIP3   OH257445   2.548   2.017   4.081  0.1862  0.4760  0.5920
11985TIP3    H157446   2.619   1.989   4.022  0.9024  0.8761  1.2469
11985TIP3    H257447   2.476   1.958   4.062  1.5253 -1.5607  1.6569
11986TIP3   OH257448   6.657   6.818  15.468  0.3101 -0.1436 -0.6521
11986TIP3    H157449   6.688   6.845  15.381  1.6393 -1.7016 -0.6901
11986TIP3    H257450   6.736   6.806  15.519 -0.4094 -0.6559  0.3596
11987TIP3   OH257451   3.739   4.250  13.134 -0.1298  0.5248 -0.0309
11987TIP3    H157452   3.646   4.252  13.114 -0.5862 -1.6730  1.6941
11987TIP3    H257453   3.749   4.313  13.205 -0.4396  0.2424  0.2659
11988TIP3   OH257454   4.768   0.179   5.162 -0.6278 -0.0076  0.1854
11988TIP3    H157455   4.726   0.237   5.098  0.7959 -0.3411 -1.0740
11988TIP3    H257456   4.710   0.181   5.238 -1.2956  1.9899 -0.3570
11989TIP3   OH257457   0.652   2.266   5.204 -0.3863  0.1983 -0.0422
11989TIP3    H157458   0.584   2.283   5.139  0.7255 -0.1376 -1.3154
11989TIP3    H257459   0.681   2.177   5.186 -0.0628  0.1042  0.9238
11990TIP3   OH257460   2.444   1.505  16.544 -0.1323 -0.0292  0.4521
11990TIP3    H157461   2.455   1.596  16.515  1.5980 -0.4017 -0.1011
11990TIP3    H257462   2.352   1.486  16.527 -0.3644  1.4279  0.0046
11991TIP3   OH257463   1.032   2.736  16.159 -0.0593  0.0258  0.2974
11991TIP3    H157464   1.066   2.647  16.167 -1.4239 -0.3330  2.4255
11991TIP3    H257465   1.010   2.744  16.066 -0.6568 -2.1360  0.2126
11992TIP3   OH257466   6.427   2.086   2.147  0.1882  0.7628  0.0872
11992TIP3    H157467   6.415   2.063   2.055 -1.2077  0.3548  0.3675
11992TIP3    H257468   6.445   2.002   2.191 -1.1803  0.6850  0.5105
11993TIP3   OH257469   6.464   4.700  11.889  0.0355 -0.1467  0.0948
11993TIP3    H157470   6.555   4.723  11.870  0.1738  0.7483  1.7469
11993TIP3    H257471   6.412   4.755  11.830  0.5180  0.4739  0.2452
11994TIP3   OH257472   6.590   5.841   0.182 -0.6548 -0.2409 -0.2886
11994TIP3    H157473   6.570   5.748   0.187  0.0804 -0.3250  1.5821
11994TIP3    H257474   6.647   5.858   0.257 -4.8167  2.6938  2.4745
11995TIP3   OH257475   6.329   3.948   5.148 -0.4428 -0.0730 -0.0744
11995TIP3    H157476   6.283   3.868   5.176  0.8591 -0.1616  1.9390
11995TIP3    H257477   6.284   4.018   5.195  0.3194  0.0313  0.5152
11996TIP3   OH257478   3.379   3.560   0.692 -0.0068 -0.1051  0.0076
11996TIP3    H157479   3.453   3.502   0.678 -0.0452 -0.5352  1.4413
11996TIP3    H257480   3.310   3.503   0.727 -0.0188  0.7969  1.4953
11997TIP3   OH257481   4.930   2.298  13.432 -0.6541  0.0941  0.5361
11997TIP3    H157482   4.913   2.351  13.510 -0.3729 -0.7177  1.1509
11997TIP3    H257483   4.887   2.346  13.361 -2.7628 -0.2873  1.5364
11998TIP3   OH257484   5.733   6.615  16.776 -0.0367 -0.3258  0.0885
11998TIP3    H157485   5.759   6.529  16.742 -1.5223 -0.6000 -0.3779
11998TIP3    H257486   5.638   6.610  16.785 -0.0370  0.9571  0.9541
11999TIP3   OH257487   6.686   2.897   3.003 -0.6051 -0.1177 -0.6778
11999TIP3    H157488   6.683   2.941   2.917 -0.7505  0.6153 -0.3048
11999TIP3    H257489   6.697   2.804   2.982  2.5280  0.3501 -1.4635
12000TIP3   OH257490   5.491   2.723   2.870 -0.5101 -0.1049 -0.3741
12000TIP3    H157491   5.400   2.708   2.845 -0.2368 -0.3951 -1.2360
12000TIP3    H257492   5.492   2.714   2.965 -1.0471 -2.0210 -0.5228
12001TIP3   OH257493   0.405   6.770  16.375 -0.4741  0.0112  0.3386
12001TIP3    H157494   0.476   6.739  16.319 -0.3858  0.0701  0.4205
12001TIP3    H257495   0.327   6.767  16.319 -0.5143 -0.5964  0.4184
12002TIP3   OH257496   3.168   4.784   4.643  0.8305  0.1563  0.2751
12002TIP3    H157497   3.208   4.857   4.594  0.3440 -0.8045 -1.5880
12002TIP3    H257498   3.209   4.706   4.607  0.7899 -0.5554  1.7477
12003TIP3   OH257499   2.865   0.352   3.064 -0.0697 -0.1831  0.3626
12003TIP3    H157500   2.829   0.415   3.001  0.9708 -0.6429 -0.7181
12003TIP3    H257501   2.824   0.269   3.040  0.0497 -0.2879  0.5242
12004TIP3   OH257502   5.042   0.581  16.110 -0.4122  0.2929  0.2939
12004TIP3    H157503   4.957   0.585  16.152 -0.6181  2.8889 -0.2586
12004TIP3    H257504   5.028   0.618  16.023  1.5259  2.0295  0.6738
12005TIP3   OH257505   3.526   6.602  15.286  0.1780  0.0701  0.1582
12005TIP3    H157506   3.512   6.628  15.195 -1.8312  0.7858  0.6331
12005TIP3    H257507   3.503   6.509  15.288  0.5893 -0.0366 -0.1454
12006TIP3   OH257508   5.525   5.397   4.471 -0.2737  0.4674 -0.1269
12006TIP3    H157509   5.476   5.480   4.469 -0.7961  0.1481 -0.9110
12006TIP3    H257510   5.461   5.333   4.503  0.1482  0.3729  0.5422
12007TIP3   OH257511   4.877   2.729  10.607 -0.4706 -0.1856  0.1955
12007TIP3    H157512   4.808   2.792  10.586 -3.4133 -3.0728  0.7604
12007TIP3    H257513   4.883   2.674  10.529  0.9467 -0.2257  0.3190
12008TIP3   OH257514   3.031   5.844   2.497  0.0487  0.1947  0.4031
12008TIP3    H157515   3.014   5.762   2.544  0.0367  0.4850  0.9161
12008TIP3    H257516   3.114   5.875   2.534  0.1536  0.3133  0.0663
12009TIP3   OH257517   3.236   1.578   0.091  0.2057 -0.3976  0.3803
12009TIP3    H157518   3.286   1.515   0.144  0.8245  0.6946  1.1208
12009TIP3    H257519   3.252   1.552   0.001  2.2597  0.0119  0.6063
12010TIP3   OH257520   0.944   3.549   0.840  0.0518 -0.0675 -0.3352
12010TIP3    H157521   1.038   3.558   0.849 -0.0372 -1.9552  3.1358
12010TIP3    H257522   0.907   3.599   0.912 -1.5866 -0.2192 -1.0269
12011TIP3   OH257523   6.451   2.697  13.642  0.0702  0.1292  0.3362
12011TIP3    H157524   6.516   2.653  13.698  0.8863  2.3579  1.1788
12011TIP3    H257525   6.456   2.789  13.667 -3.2696  0.3819  0.2330
12012TIP3   OH257526   0.078   0.220  12.515  0.1453 -0.2397  0.0291
12012TIP3    H157527   0.091   0.189  12.605 -0.8641  0.7079  0.5255
12012TIP3    H257528   0.111   0.149  12.460  0.3101 -1.0525  1.1463
12013TIP3   OH257529   4.815   5.307   5.352  0.4531  0.3427  0.4669
12013TIP3    H157530   4.755   5.234   5.366 -0.5316  0.9065 -0.7077
12013TIP3    H257531   4.850   5.292   5.264 -0.2203  1.6118 -0.0201
12014TIP3   OH257532   1.748   4.059  12.113 -0.2163  0.1374  1.0041
12014TIP3    H157533   1.695   4.130  12.150 -2.8413 -1.1617 -0.1264
12014TIP3    H257534   1.712   4.044  12.026  2.5234 -0.3323 -0.1069
12015TIP3   OH257535   2.567   6.699  15.079  0.1300 -0.9029 -0.2207
12015TIP3    H157536   2.507   6.626  15.094  0.4300 -0.8790  1.1221
12015TIP3    H257537   2.633   6.664  15.019 -0.1871 -1.4973 -0.2250
12016TIP3   OH257538   6.032   6.452   5.000 -0.0727 -0.5708 -0.7538
12016TIP3    H157539   5.960   6.434   5.060 -1.6124  0.5936 -2.2177
12016TIP3    H257540   6.096   6.383   5.018 -1.6709 -1.7992  0.3535
12017TIP3   OH257541   0.466   5.836  14.624 -0.1700  0.2426 -0.2030
12017TIP3    H157542   0.468   5.744  14.651 -0.4506  0.4701  0.6080
12017TIP3    H257543   0.490   5.834  14.531  1.2539 -0.5229  0.1578
12018TIP3   OH257544   6.302   2.712   0.706 -0.3527 -0.0801  0.0478
12018TIP3    H157545   6.275   2.620   0.713  0.2130 -0.2646 -0.1591
12018TIP3    H257546   6.378   2.719   0.764  0.1972  0.0156 -0.6655
12019TIP3   OH257547   6.587   4.210  14.155 -0.3993 -0.5770  0.0679
12019TIP3    H157548   6.551   4.185  14.240 -1.2585  0.3257 -0.0299
12019TIP3    H257549   6.626   4.129  14.122  1.1832 -0.6200  1.9255
12020TIP3   OH257550   0.039   1.394  14.965  0.6025  0.0411 -0.4224
12020TIP3    H157551   0.025   1.322  14.903 -0.2663 -1.7931  1.8341
12020TIP3    H257552  -0.047   1.436  14.972 -0.8485 -3.2563  3.6915
12021TIP3   OH257553   4.135   4.869   2.299  0.1332 -0.1505 -0.4958
12021TIP3    H157554   4.180   4.938   2.349  0.9576  1.8495 -3.8612
12021TIP3    H257555   4.188   4.791   2.312  2.0949  1.1088 -0.7707
12022TIP3   OH257556   0.094   1.974  14.637 -0.3283  0.2529 -0.1525
12022TIP3    H157557   0.023   2.008  14.690 -1.3971 -0.2141 -1.2636
12022TIP3    H257558   0.165   2.038  14.647 -1.1591  1.1019  0.3585
12023TIP3   OH257559   6.026   3.139   4.477  0.1051 -0.2672 -0.3843
12023TIP3    H157560   5.931   3.130   4.491  0.2210 -1.7250 -0.4191
12023TIP3    H257561   6.041   3.233   4.471 -1.3361 -0.0217 -0.2976
12024TIP3   OH257562   2.016   2.031  11.552  1.3299  0.0293 -0.2968
12024TIP3    H157563   2.075   2.051  11.479  0.2101 -2.1235 -1.8621
12024TIP3    H257564   2.062   1.962  11.601  1.0550 -0.1564 -0.3005
12025TIP3   OH257565   3.210   1.492   2.637 -0.5614 -0.1055  0.1432
12025TIP3    H157566   3.192   1.554   2.565 -0.8864 -1.5075 -1.0144
12025TIP3    H257567   3.305   1.491   2.644 -0.3314 -2.3785 -2.4899
12026TIP3   OH257568   6.665   5.463  12.999 -0.5970  0.0318  0.3663
12026TIP3    H157569   6.684   5.412  12.921  0.4137 -1.5640  1.6086
12026TIP3    H257570   6.595   5.414  13.043  0.2629 -0.2216  1.4827
12027TIP3   OH257571   3.027   4.182  14.188  0.1786  0.1090 -0.2628
12027TIP3    H157572   3.013   4.107  14.246 -0.4905  1.2365  1.0638
12027TIP3    H257573   3.103   4.158  14.135  0.6769 -1.0092  0.9458
12028TIP3   OH257574   3.823   0.171  11.958 -0.4972  0.2531  0.1550
12028TIP3    H157575   3.825   0.176  12.054 -1.0872  1.4129  0.1188
12028TIP3    H257576   3.851   0.258  11.929  0.8968 -0.4719 -0.7550
12029TIP3   OH257577   4.945   6.765  12.433  0.3100  0.1510 -0.4640
12029TIP3    H157578   4.947   6.836  12.497 -0.8882 -0.1461 -0.0735
12029TIP3    H257579   5.018   6.783  12.374  1.3990  0.4593  0.9544
12030TIP3   OH257580   4.788   5.114  16.803  0.4844  0.6052  0.2614
12030TIP3    H157581   4.788   5.207  16.783 -0.4014  0.5459 -0.0321
12030TIP3    H257582   4.823   5.072  16.725 -0.3869  0.5918 -0.1297
12031TIP3   OH257583   3.918   2.691  10.775 -0.1711 -0.0331  0.4595
12031TIP3    H157584   3.923   2.657  10.686  0.1247 -1.4048  0.9780
12031TIP3    H257585   3.969   2.629  10.827 -2.6804 -0.8838  2.0317
12032TIP3   OH257586   5.400   5.475   0.103  0.0155  0.1341 -0.5171
12032TIP3    H157587   5.439   5.556   0.070  3.5643 -0.4343  2.0768
12032TIP3    H257588   5.429   5.407   0.042  0.1095  0.2433 -0.5938
12033TIP3   OH257589   1.939   0.393  13.164 -0.2147 -0.3142  0.5084
12033TIP3    H157590   1.906   0.479  13.135  1.8092 -0.0831 -1.2536
12033TIP3    H257591   1.938   0.398  13.259  1.8376  2.4957  0.4661
12034TIP3   OH257592   2.279   6.812  12.132  0.2871 -0.2082  0.3227
12034TIP3    H157593   2.298   6.767  12.050 -1.4776 -2.6406  1.2259
12034TIP3    H257594   2.331   6.766  12.197 -2.4848 -1.7872  1.4622
12035TIP3   OH257595   0.232   4.747  16.878  0.2808  0.1689 -0.4776
12035TIP3    H157596   0.216   4.724  16.786 -0.2109  0.1076 -0.3758
12035TIP3    H257597   0.286   4.675  16.911 -1.0101 -0.6987 -0.2410
12036TIP3   OH257598   4.900   2.962   4.136 -0.5272 -0.3613  0.0257
12036TIP3    H157599   4.829   2.994   4.080 -1.5679 -1.0546  0.9002
12036TIP3    H257600   4.957   3.037   4.150 -1.0805  0.1951 -0.7328
12037TIP3   OH257601   2.988   4.994   4.990 -0.2484  0.0088  0.1442
12037TIP3    H157602   3.062   4.955   5.036 -0.5252  0.3267  0.8627
12037TIP3    H257603   3.025   5.072   4.947 -0.2951  0.5125  1.0103
12038TIP3   OH257604   5.103   5.481   4.527  0.5301 -0.2470 -0.2476
12038TIP3    H157605   5.092   5.489   4.622  0.9343 -0.2249 -0.1989
12038TIP3    H257606   5.188   5.523   4.510  0.8930 -1.0650 -0.4939
12039TIP3   OH257607   0.811   5.647   5.715  0.2580  0.1951  0.3034
12039TIP3    H157608   0.822   5.552   5.708 -3.3888 -0.2461 -0.1913
12039TIP3    H257609   0.724   5.659   5.753 -0.3766  3.3571 -1.9118
12040TIP3   OH257610   5.059   5.408  16.829  0.2744  0.4575  0.7469
12040TIP3    H157611   5.084   5.460  16.754 -1.3559  0.2675  0.0699
12040TIP3    H257612   5.088   5.319  16.807 -2.7257 -0.1491 -0.9048
12041TIP3   OH257613   6.454   2.377   3.130  0.2306 -0.0506  0.8569
12041TIP3    H157614   6.528   2.326   3.099  0.6725  0.5419  0.9124
12041TIP3    H257615   6.381   2.315   3.135  0.4426 -0.3939 -0.2478
12042TIP3   OH257616   0.555   6.262   2.231  0.2507 -0.0542  0.2442
12042TIP3    H157617   0.519   6.345   2.261  0.5530  0.0109  0.4314
12042TIP3    H257618   0.497   6.196   2.269  0.1472  0.0613  0.2898
12043TIP3   OH257619   2.067   1.338   1.843  0.4967 -0.2444 -0.2338
12043TIP3    H157620   2.090   1.249   1.816 -2.8886 -1.2376 -0.0157
12043TIP3    H257621   2.031   1.327   1.931  0.5012  1.4393 -0.0122
12044TIP3   OH257622   6.126   6.817   4.136 -0.4640 -0.4962  0.4395
12044TIP3    H157623   6.221   6.823   4.151 -0.0868 -2.5352 -0.9562
12044TIP3    H257624   6.091   6.783   4.218  0.3535 -2.2448  0.0869
12045TIP3   OH257625   6.055   6.595   3.640 -0.5308  1.0407 -0.3462
12045TIP3    H157626   6.124   6.657   3.616 -1.0279  1.3307 -1.0572
12045TIP3    H257627   6.043   6.608   3.734  0.3204  1.0502 -0.2324
12046TIP3   OH257628   2.801   0.690   0.333 -0.0700 -0.2225  0.4298
12046TIP3    H157629   2.890   0.657   0.334  0.1535  0.2854 -1.0880
12046TIP3    H257630   2.795   0.748   0.410  0.5435 -1.1493  1.1794
12047TIP3   OH257631   6.411   5.775   0.966  0.4845 -0.5726 -0.1926
12047TIP3    H157632   6.371   5.803   0.884  0.7262 -0.5514 -0.3023
12047TIP3    H257633   6.338   5.740   1.018  0.0489  0.9871  0.2632
12048TIP3   OH257634   5.640   2.579   4.918 -0.7447  0.1941  0.7482
12048TIP3    H157635   5.615   2.665   4.952 -2.7894 -1.1662  2.9486
12048TIP3    H257636   5.706   2.547   4.980 -0.8360 -0.2711  0.6092
12049TIP3   OH257637   4.361   3.478   2.327  0.0642 -0.4302 -0.0841
12049TIP3    H157638   4.331   3.450   2.241  1.1729  1.1383 -0.9923
12049TIP3    H257639   4.445   3.434   2.338  0.5394  0.4134 -0.3597
12050TIP3   OH257640   6.656   1.038  13.313 -0.0124  0.0797  0.3602
12050TIP3    H157641   6.678   0.995  13.230 -1.6053 -0.6235  0.2962
12050TIP3    H257642   6.574   1.084  13.295 -0.3689 -0.0840  1.5459
12051TIP3   OH257643   0.485   0.550   3.785 -0.1999 -0.2543 -0.1591
12051TIP3    H157644   0.470   0.475   3.843 -1.7138  0.2923  0.1657
12051TIP3    H257645   0.423   0.539   3.714  0.5677 -0.0666 -0.8684
12052TIP3   OH257646   2.217   3.554  11.057  0.3688  0.0428 -0.7592
12052TIP3    H157647   2.190   3.577  10.968  0.9717  0.7816 -0.7674
12052TIP3    H257648   2.303   3.595  11.066  0.7352 -0.8495 -0.1691
12053TIP3   OH257649   5.969   3.303  11.750 -0.8126 -0.1544  0.3483
12053TIP3    H157650   5.961   3.327  11.657  0.2585 -1.9631 -0.2355
12053TIP3    H257651   5.909   3.229  11.761 -1.8568  0.8329  1.4124
12054TIP3   OH257652   6.433   3.150   3.613  0.3501 -0.1095 -0.3195
12054TIP3    H157653   6.460   3.182   3.699 -0.5598 -0.9289  0.2901
12054TIP3    H257654   6.405   3.228   3.566 -0.0107  0.2301  0.4553
12055TIP3   OH257655   6.338   0.635   4.198 -0.3153  0.0343  0.8717
12055TIP3    H157656   6.353   0.608   4.108  1.0397  1.2251  0.7243
12055TIP3    H257657   6.417   0.609   4.245  0.8276  3.1683  0.8223
12056TIP3   OH257658   4.260   5.731  10.735  0.0554  0.6787 -0.7331
12056TIP3    H157659   4.316   5.807  10.719 -0.9350  1.1096 -2.2413
12056TIP3    H257660   4.317   5.656  10.718  0.6264  1.0798 -0.6448
12057TIP3   OH257661   4.799   3.773  12.277 -0.1784  0.3882  0.3625
12057TIP3    H157662   4.781   3.865  12.298  0.6028  0.3430  1.2767
12057TIP3    H257663   4.880   3.776  12.227  0.2497  0.1419  1.0331
12058TIP3   OH257664   1.280   6.170   4.764  0.1888 -0.2759 -1.0290
12058TIP3    H157665   1.363   6.149   4.806 -0.5419  0.1635  0.6535
12058TIP3    H257666   1.302   6.237   4.699  1.1476 -0.1909 -0.6197
12059TIP3   OH257667   5.597   6.324   4.478  0.1680 -0.0169  0.8227
12059TIP3    H157668   5.624   6.413   4.457 -0.8189  0.2614  0.7008
12059TIP3    H257669   5.532   6.334   4.547 -2.4663 -0.3593 -1.4748
12060TIP3   OH257670   0.428   4.603  13.032  0.3567  0.1171 -0.2201
12060TIP3    H157671   0.468   4.552  12.961  0.0864  0.8316 -0.8851
12060TIP3    H257672   0.493   4.669  13.054  0.5019 -0.1932  0.3093
12061TIP3   OH257673   1.812   3.160   3.647 -0.4797  0.5570  0.0404
12061TIP3    H157674   1.764   3.123   3.574  1.6187 -1.1281 -0.5665
12061TIP3    H257675   1.810   3.255   3.633 -1.7004  0.3612 -1.1597
12062TIP3   OH257676   0.547   4.297  13.394  0.2038  0.1247 -0.3057
12062TIP3    H157677   0.507   4.224  13.346  2.1164 -1.9996  1.2299
12062TIP3    H257678   0.577   4.357  13.325 -0.1060 -1.2344 -1.6676
12063TIP3   OH257679   6.532   2.109   4.775 -0.1649  0.0815  0.2191
12063TIP3    H157680   6.497   2.075   4.857 -1.3642  1.3899  0.2719
12063TIP3    H257681   6.477   2.185   4.755  0.6635  0.2962 -1.3420
12064TIP3   OH257682   2.880   2.328   0.805  0.8464  0.1164 -0.1635
12064TIP3    H157683   2.832   2.278   0.739 -0.5216  0.0819  0.8444
12064TIP3    H257684   2.867   2.419   0.779  0.7594  0.0783 -0.2546
12065TIP3   OH257685   5.617   6.586   2.884  0.3422  0.3861 -0.3792
12065TIP3    H157686   5.655   6.638   2.954 -1.1997 -0.7366  1.3500
12065TIP3    H257687   5.661   6.501   2.891 -0.1308  0.1318 -0.4955
12066TIP3   OH257688   0.231   4.646  11.730  0.3919 -0.1549 -0.0176
12066TIP3    H157689   0.275   4.584  11.672  1.2678 -0.4114  0.8936
12066TIP3    H257690   0.146   4.607  11.748  0.8775 -1.0101  0.4175
12067TIP3   OH257691   3.617   5.533   1.705 -0.0431  0.5131  0.2185
12067TIP3    H157692   3.561   5.499   1.774  0.1529 -0.2338  0.0119
12067TIP3    H257693   3.665   5.457   1.673  1.0452  1.1323  0.3482
12068TIP3   OH257694   5.020   3.570   5.972 -0.2963  0.0471  0.7012
12068TIP3    H157695   5.063   3.487   5.991 -0.3792 -0.0928  0.2761
12068TIP3    H257696   5.011   3.613   6.058  1.2905  0.3737  0.7173
12069TIP3   OH257697   1.420   1.195  11.774  0.6978  0.0892  0.2251
12069TIP3    H157698   1.375   1.189  11.858  0.4413 -0.7852  0.0230
12069TIP3    H257699   1.394   1.280  11.738 -2.2762 -1.1840 -0.7564
12070TIP3   OH257700   1.746   4.981  15.623  0.2802 -0.3844  0.1222
12070TIP3    H157701   1.765   4.898  15.668  1.1304  0.3627  1.1850
12070TIP3    H257702   1.732   5.043  15.694 -3.4262 -0.2437 -0.6405
12071TIP3   OH257703   0.111   0.103   4.966  0.2744  0.0328 -0.1581
12071TIP3    H157704   0.123   0.077   5.058  1.1830  1.2183  0.0722
12071TIP3    H257705   0.125   0.023   4.916  1.4473 -0.2680  0.6313
12072TIP3   OH257706   1.497   2.065   1.595  0.1335 -0.0979  0.3377
12072TIP3    H157707   1.459   2.149   1.571  0.4628  0.2806  1.1450
12072TIP3    H257708   1.588   2.085   1.619  0.3171 -0.7335  0.1939
12073TIP3   OH257709   1.111   2.083  14.246 -0.3248  0.4193  0.3533
12073TIP3    H157710   1.120   2.075  14.341 -0.2312 -0.5084  0.2739
12073TIP3    H257711   1.020   2.061  14.229  0.0855 -1.1018  0.0650
12074TIP3   OH257712   4.924   5.411   5.705  0.2619  0.1901  0.2311
12074TIP3    H157713   4.829   5.409   5.717 -0.1030  0.5434 -2.2193
12074TIP3    H257714   4.940   5.494   5.660  2.0625  1.3192  2.8623
12075TIP3   OH257715   5.834   3.176   3.268  0.2429  0.9174 -0.2391
12075TIP3    H157716   5.927   3.156   3.280 -0.2734 -1.5393  0.0435
12075TIP3    H257717   5.826   3.199   3.175  0.8340 -0.8468 -0.7569
12076TIP3   OH257718   2.533   6.785   1.654  0.0676  0.2164  0.1576
12076TIP3    H157719   2.503   6.857   1.598 -0.9917 -0.7174 -0.4970
12076TIP3    H257720   2.560   6.717   1.593 -0.2761 -0.4813  0.7771
12077TIP3   OH257721   6.354   4.330  12.820  0.1275 -0.6120  0.2178
12077TIP3    H157722   6.442   4.353  12.848 -0.5188  1.0198  0.9542
12077TIP3    H257723   6.299   4.403  12.849 -1.2820 -1.0433 -1.2506
12078TIP3   OH257724   3.209   2.113   3.051 -0.3483  0.5123 -0.4986
12078TIP3    H157725   3.253   2.167   3.117 -0.2378 -0.2650  0.0821
12078TIP3    H257726   3.160   2.049   3.102 -3.5247  2.3801 -1.0915
12079TIP3   OH257727   0.238   0.158  11.865 -0.4176  0.1279 -0.3089
12079TIP3    H157728   0.181   0.158  11.789  0.5101  2.2958 -1.0504
12079TIP3    H257729   0.291   0.078  11.856 -0.7462  0.0494 -1.6015
12080TIP3   OH257730   0.102   0.115   2.433  0.3688  0.6175 -0.3409
12080TIP3    H157731   0.029   0.078   2.383  0.5331  1.6323 -1.3581
12080TIP3    H257732   0.063   0.141   2.516 -0.1950  0.1453 -0.4487
12081TIP3   OH257733   6.725   3.475  15.377  1.1178  0.6437 -0.0688
12081TIP3    H157734   6.721   3.559  15.330  0.9865  1.9099  2.1108
12081TIP3    H257735   6.633   3.452  15.392  1.1500 -0.0334 -0.8708
12082TIP3   OH257736   4.824   1.798   5.925 -0.1105 -0.2619 -0.1419
12082TIP3    H157737   4.811   1.893   5.924  0.0962 -0.2102  1.0295
12082TIP3    H257738   4.802   1.772   6.015 -0.9752 -1.4407 -0.6689
12083TIP3   OH257739   0.354   2.845  15.008  0.2344 -0.0978 -0.1555
12083TIP3    H157740   0.323   2.935  15.002  0.1568 -0.1190 -0.0807
12083TIP3    H257741   0.303   2.798  14.942 -0.2898 -0.2395  0.3437
12084TIP3   OH257742   5.202   6.374  16.388  0.3456 -0.3679 -0.2765
12084TIP3    H157743   5.275   6.321  16.419 -0.3927 -2.0370 -1.3094
12084TIP3    H257744   5.168   6.417  16.466  1.2614 -1.0463  0.5040
12085TIP3   OH257745   4.099   4.904  13.918 -0.3768 -0.0526  0.3303
12085TIP3    H157746   4.115   4.834  13.982 -0.1244  1.5354  2.0505
12085TIP3    H257747   4.035   4.960  13.961 -0.6124  0.7576 -1.0646
12086TIP3   OH257748   4.666   2.043   0.364 -0.2049 -0.0285  0.3901
12086TIP3    H157749   4.612   1.965   0.378 -1.4226  0.4151 -1.5613
12086TIP3    H257750   4.626   2.110   0.420  0.7516 -0.7499  1.9554
12087TIP3   OH257751   4.653   5.235  14.827 -0.4906  0.2395  0.1147
12087TIP3    H157752   4.694   5.262  14.745  0.1657 -0.8094  0.0812
12087TIP3    H257753   4.662   5.139  14.827 -0.2702  0.2586  1.5216
12088TIP3   OH257754   1.810   5.943   4.701  0.2740  0.4062  0.1206
12088TIP3    H157755   1.850   6.021   4.664  1.5480  0.4437  1.5150
12088TIP3    H257756   1.835   5.944   4.794 -0.3167 -1.2522  0.3298
12089TIP3   OH257757   1.536   5.581   5.445  0.9154 -0.0344 -0.0952
12089TIP3    H157758   1.515   5.563   5.537 -0.4388 -0.7899 -0.5380
12089TIP3    H257759   1.490   5.662   5.425 -2.1077 -1.9291 -1.1959
12090TIP3   OH257760   2.049   3.308  16.195 -0.1562 -0.3025  0.6071
12090TIP3    H157761   1.997   3.232  16.171 -2.2379  1.0445  0.6841
12090TIP3    H257762   2.044   3.366  16.119  1.3280 -0.1838  0.5839
12091TIP3   OH257763   4.817   6.367  11.368 -0.2347  0.6139  0.3097
12091TIP3    H157764   4.775   6.303  11.425 -0.4313 -0.0553 -0.5675
12091TIP3    H257765   4.778   6.451  11.393  0.9374  0.5929  2.3253
12092TIP3   OH257766   6.767   2.078  14.293  0.3158  0.3886 -0.1993
12092TIP3    H157767   6.743   2.009  14.354 -1.9544 -0.3963 -1.8948
12092TIP3    H257768   6.815   2.142  14.346  0.1807 -1.2267  1.9356
12093TIP3   OH257769   2.602   2.288  12.236 -0.4599 -0.6948  0.3094
12093TIP3    H157770   2.650   2.368  12.258 -1.3231  0.1597 -0.8303
12093TIP3    H257771   2.569   2.304  12.147 -0.0156 -2.6205 -0.2209
12094TIP3   OH257772   5.433   6.552   0.770  0.0202  0.3046  0.1404
12094TIP3    H157773   5.340   6.528   0.783  0.6575 -1.1365  2.5134
12094TIP3    H257774   5.467   6.484   0.712 -0.1455  0.1540  0.2183
12095TIP3   OH257775   1.587   6.419  14.858  0.2671  0.0590 -0.1118
12095TIP3    H157776   1.557   6.347  14.913  1.1786 -0.5497 -0.3890
12095TIP3    H257777   1.518   6.430  14.793 -0.3022  0.0526  0.4933
12096TIP3   OH257778   4.592   6.765   1.537  0.0042 -0.0282  0.2724
12096TIP3    H157779   4.672   6.716   1.556  0.8178  1.0547 -0.3423
12096TIP3    H257780   4.608   6.852   1.573 -1.6484 -0.3446  1.8413
12097TIP3   OH257781   1.301   4.571   4.056  0.1969  0.3522 -0.2333
12097TIP3    H157782   1.322   4.486   4.095  2.7565  1.3936  0.7840
12097TIP3    H257783   1.322   4.635   4.125  1.4833  2.0140 -2.0985
12098TIP3   OH257784   3.519   0.688   4.511  1.1144  0.0181  0.3829
12098TIP3    H157785   3.546   0.767   4.465  2.7301 -0.7169  0.0142
12098TIP3    H257786   3.582   0.621   4.482  1.9996 -0.5302  3.4059
12099TIP3   OH257787   6.026   2.104  15.299 -0.4386 -0.1318 -0.0170
12099TIP3    H157788   6.008   2.012  15.277 -4.1913  0.7523 -1.0800
12099TIP3    H257789   5.954   2.128  15.357  0.0630  2.3787 -0.4025
12100TIP3   OH257790   0.159   3.182   0.843  0.0698  0.7891 -0.9634
12100TIP3    H157791   0.245   3.196   0.805  0.0609  0.8858 -0.9484
12100TIP3    H257792   0.149   3.087   0.847  1.2059  0.7232  1.3352
12101TIP3   OH257793   1.407   4.986   3.925  0.0880  0.4324  0.2659
12101TIP3    H157794   1.331   4.930   3.909  1.5554 -1.7243  0.6751
12101TIP3    H257795   1.391   5.026   4.010 -0.4813 -0.1684  0.4393
12102TIP3   OH257796   6.621   2.895  12.045 -0.3614  0.5392 -0.0672
12102TIP3    H157797   6.593   2.822  12.101  0.6547  0.9847  1.0387
12102TIP3    H257798   6.657   2.959  12.106 -0.3526  1.5505 -1.1335
12103TIP3   OH257799   5.655   2.281  12.311  0.2023  0.2200 -0.5155
12103TIP3    H157800   5.716   2.338  12.264 -0.2028  0.7560 -0.3927
12103TIP3    H257801   5.582   2.269  12.250  0.3543 -0.2912 -0.5999
12104TIP3   OH257802   6.498   6.394  16.259 -0.2147  0.5756 -0.8801
12104TIP3    H157803   6.480   6.469  16.316 -0.4522  0.0585 -0.2621
12104TIP3    H257804   6.448   6.411  16.179  0.1213  1.3116 -0.9277
12105TIP3   OH257805   2.665   1.530  11.091 -0.5066 -0.0796  0.1417
12105TIP3    H157806   2.755   1.503  11.069 -1.2374 -2.8888  0.3992
12105TIP3    H257807   2.612   1.453  11.070 -2.3068 -0.0204  4.0443
12106TIP3   OH257808   2.003   4.238   2.800 -0.0644  0.0971 -0.2802
12106TIP3    H157809   2.080   4.207   2.848  0.7646  0.8579 -1.0986
12106TIP3    H257810   1.949   4.160   2.788  2.0215 -1.0790 -2.3815
12107TIP3   OH257811   5.114   1.453   1.114 -0.0272 -0.1695  0.4640
12107TIP3    H157812   5.167   1.475   1.190  1.1191 -0.6857 -0.1723
12107TIP3    H257813   5.028   1.492   1.132  0.1915 -0.4221  2.0655
12108TIP3   OH257814   2.597   4.536  14.744  0.3309 -0.3237  0.2902
12108TIP3    H157815   2.571   4.584  14.666  1.9924  0.8432  0.4373
12108TIP3    H257816   2.688   4.509  14.727  0.8281  0.2354  1.9508
12109TIP3   OH257817   1.984   2.634  14.050 -0.2802  0.5553  0.1488
12109TIP3    H157818   1.997   2.700  13.982 -3.7857  0.6355 -0.5119
12109TIP3    H257819   2.034   2.667  14.125  1.9195  1.5140 -1.6868
12110TIP3   OH257820   4.886   0.786  13.429 -0.5489  1.0439 -0.4588
12110TIP3    H157821   4.853   0.778  13.518 -1.6588 -0.5201 -0.9803
12110TIP3    H257822   4.903   0.880  13.418 -0.3429  1.2395  1.3960
12111TIP3   OH257823   6.136   6.007   5.982  0.5884 -0.1793  0.1612
12111TIP3    H157824   6.174   5.926   5.949  0.5969 -0.0793 -0.0737
12111TIP3    H257825   6.056   5.980   6.027  1.5945 -0.5491  1.7888
12112TIP3   OH257826   5.683   1.666   2.112  0.1489 -0.6783 -0.0696
12112TIP3    H157827   5.698   1.756   2.139 -1.4170 -0.7157  0.9531
12112TIP3    H257828   5.602   1.640   2.155  0.5609 -2.5719 -0.3656
12113TIP3   OH257829   1.651   4.262  14.066  0.3678  0.3672 -0.1355
12113TIP3    H157830   1.638   4.312  13.986  0.1631 -1.0465 -1.0149
12113TIP3    H257831   1.724   4.203  14.046 -0.1973 -0.5545  0.4265
12114TIP3   OH257832   2.205   0.465   5.338 -0.5357  0.1908 -0.2385
12114TIP3    H157833   2.270   0.445   5.271 -0.0367 -0.6502  0.4744
12114TIP3    H257834   2.172   0.379   5.366 -0.9259  0.5396  0.3967
12115TIP3   OH257835   4.067   1.034  11.700 -0.5612  0.0745  0.1416
12115TIP3    H157836   3.997   1.063  11.759 -0.0508  0.0105  0.7764
12115TIP3    H257837   4.086   1.111  11.647  0.1848  0.6639  1.2382
12116TIP3   OH257838   0.679   6.621  15.936  0.0161  0.3187 -0.3580
12116TIP3    H157839   0.615   6.601  15.869  0.7573  0.6088 -1.1695
12116TIP3    H257840   0.716   6.706  15.909  0.4967  0.3159  0.2742
12117TIP3   OH257841   2.173   2.398   2.325  0.4515  0.0126  0.6818
12117TIP3    H157842   2.097   2.397   2.268  0.1032 -0.1362  1.1443
12117TIP3    H257843   2.206   2.308   2.325  0.5030  0.0309  0.6520
12118TIP3   OH257844   6.594   3.817  15.356 -0.9271  0.1496  0.4462
12118TIP3    H157845   6.559   3.903  15.379  1.3799  1.0230  0.8709
12118TIP3    H257846   6.593   3.768  15.438 -1.7888 -0.0568  0.3097
12119TIP3   OH257847   6.590   4.278   1.416  0.5493  0.0283 -0.0449
12119TIP3    H157848   6.550   4.291   1.502 -0.9686 -1.6831 -0.4583
12119TIP3    H257849   6.574   4.186   1.396  1.0525  0.3690 -2.0947
12120TIP3   OH257850   0.828   4.976   1.429  0.2082 -0.0704  0.0500
12120TIP3    H157851   0.770   5.035   1.381  1.8186 -0.9792 -3.1049
12120TIP3    H257852   0.815   4.890   1.388  3.0735 -0.4847 -0.0675
12121TIP3   OH257853   0.521   3.519   1.063  0.4657 -0.0857  0.1638
12121TIP3    H157854   0.442   3.473   1.092 -0.3786  0.6701 -0.9182
12121TIP3    H257855   0.525   3.597   1.118  0.5021 -0.1529  0.2576
12122TIP3   OH257856   0.878   3.020  11.655  0.1110  0.0919 -0.2364
12122TIP3    H157857   0.790   3.001  11.688 -0.2179  0.2015 -1.0236
12122TIP3    H257858   0.930   2.943  11.677 -0.7060 -0.8727 -1.6023
12123TIP3   OH257859   5.760   3.484  17.009  0.6643  0.0965  0.0099
12123TIP3    H157860   5.776   3.425  17.083  0.3253 -0.2944 -0.2217
12123TIP3    H257861   5.839   3.478  16.956  0.1631 -1.0979 -0.6422
12124TIP3   OH257862   1.357   0.739  14.402 -0.0799 -0.5582  0.1933
12124TIP3    H157863   1.429   0.688  14.439 -0.0069  0.7106  1.8261
12124TIP3    H257864   1.399   0.811  14.356 -0.3035 -0.0503  0.7896
12125TIP3   OH257865   5.658   0.252   1.640  0.0458  0.3610  0.4229
12125TIP3    H157866   5.690   0.298   1.563 -0.9944  0.5720  0.1146
12125TIP3    H257867   5.674   0.312   1.713  1.9218 -0.2223  0.5363
12126TIP3   OH257868   0.488   5.435  13.031  0.2372  0.5668  0.6325
12126TIP3    H157869   0.398   5.459  13.009  0.6977 -0.4887 -2.8583
12126TIP3    H257870   0.534   5.438  12.947  2.9650 -0.9861  2.0002
12127TIP3   OH257871   0.373   3.962  16.261  0.7164  0.4964 -0.0059
12127TIP3    H157872   0.377   3.892  16.196 -2.3779 -0.4281  0.7436
12127TIP3    H257873   0.432   4.029  16.227 -0.9300  0.1049 -3.8749
12128TIP3   OH257874   5.322   6.560   1.814  0.5001  0.4033 -0.0170
12128TIP3    H157875   5.380   6.526   1.882  0.3613  0.9223  0.3647
12128TIP3    H257876   5.376   6.625   1.768  1.4994 -1.8639 -2.1595
12129TIP3   OH257877   6.240   6.633  14.228  0.3659 -0.6816  0.1607
12129TIP3    H157878   6.276   6.718  14.202  1.1976 -1.4428 -1.2026
12129TIP3    H257879   6.188   6.605  14.153 -0.0727 -1.2938  0.6957
12130TIP3   OH257880   5.316   3.215   6.293 -0.1509 -0.6283  0.6311
12130TIP3    H157881   5.264   3.261   6.360 -0.6429  1.1794 -0.9696
12130TIP3    H257882   5.379   3.280   6.262  1.0288 -1.8960  0.3515
12131TIP3   OH257883   2.278   3.839  13.307 -0.5109  0.4433 -0.8848
12131TIP3    H157884   2.357   3.845  13.252  0.0902  0.1448 -0.0625
12131TIP3    H257885   2.212   3.801  13.249  0.1756 -0.0383 -1.3590
12132TIP3   OH257886   5.958   5.734  13.338 -0.3273 -0.4418 -0.0204
12132TIP3    H157887   5.987   5.662  13.394 -1.2312 -1.5229 -0.8968
12132TIP3    H257888   6.016   5.729  13.262  0.0551  0.1962  0.2277
12133TIP3   OH257889   0.178   0.553  14.088  0.0130  0.4738 -0.4455
12133TIP3    H157890   0.223   0.549  14.004  1.8293  3.2417  0.3471
12133TIP3    H257891   0.244   0.526  14.152 -1.2083 -1.1164  0.1824
12134TIP3   OH257892   6.447   6.450  14.248  0.0703  0.3548  0.1332
12134TIP3    H157893   6.381   6.514  14.224  0.6632  0.5656 -0.9719
12134TIP3    H257894   6.526   6.478  14.201 -0.1247 -2.1846 -1.8282
12135TIP3   OH257895   1.033   3.546   2.193 -0.1383  0.7157 -0.7371
12135TIP3    H157896   1.066   3.635   2.202 -1.1241  1.2186 -2.0226
12135TIP3    H257897   1.099   3.492   2.238  0.2772  2.1023  0.3669
12136TIP3   OH257898   1.690   5.842   3.129  0.0493  0.2790  0.4347
12136TIP3    H157899   1.689   5.750   3.156 -0.5072 -0.1611 -1.0446
12136TIP3    H257900   1.630   5.885   3.190  0.3108 -0.3339  1.1323
12137TIP3   OH257901   2.729   3.285  14.513  0.2197 -0.1609 -1.0051
12137TIP3    H157902   2.758   3.194  14.514 -1.0028 -0.6045  2.9339
12137TIP3    H257903   2.635   3.279  14.498 -0.5608  0.1038  3.2823
12138TIP3   OH257904   2.545   3.937   2.980 -0.5893  0.4582 -0.9462
12138TIP3    H157905   2.626   3.892   2.958 -1.2369 -0.8977 -0.5979
12138TIP3    H257906   2.494   3.936   2.899 -0.5066  0.7792 -1.0026
12139TIP3   OH257907   5.184   3.356   3.431  0.3573 -1.0542  0.4438
12139TIP3    H157908   5.226   3.442   3.428 -1.1415 -0.3347 -0.0813
12139TIP3    H257909   5.153   3.348   3.521 -0.3220 -0.6426  0.2497
12140TIP3   OH257910   4.938   3.041  14.951  0.2662 -0.1728 -0.4371
12140TIP3    H157911   4.959   2.985  14.876  3.0601  1.2023 -0.7390
12140TIP3    H257912   4.864   3.094  14.920  0.0931 -1.0145 -1.5061
12141TIP3   OH257913   0.305   1.644   5.236  0.0597  0.4294  0.2447
12141TIP3    H157914   0.224   1.594   5.254 -0.0261  0.4301 -0.1380
12141TIP3    H257915   0.357   1.633   5.316  0.0849 -0.3630  0.1302
12142TIP3   OH257916   6.277   4.941  13.307 -0.3305 -0.5795 -0.4559
12142TIP3    H157917   6.184   4.920  13.298 -0.3422 -1.8149  1.8791
12142TIP3    H257918   6.279   5.023  13.357 -0.1775  0.4128 -2.0803
12143TIP3   OH257919   0.783   4.879   3.784  0.2955 -0.0326 -0.0473
12143TIP3    H157920   0.844   4.949   3.807 -0.1714 -0.0343  1.2289
12143TIP3    H257921   0.837   4.811   3.744  1.1525 -0.0802  1.1595
12144TIP3   OH257922   4.406   3.913   0.433 -0.1279 -0.5979  0.3028
12144TIP3    H157923   4.462   3.990   0.448 -0.2944 -0.0658 -1.5858
12144TIP3    H257924   4.332   3.926   0.491 -0.6199  1.1992 -0.6654
12145TIP3   OH257925   6.534   3.305  14.503 -0.1326 -0.6605  0.3156
12145TIP3    H157926   6.563   3.369  14.438 -0.7893  0.0712  0.7374
12145TIP3    H257927   6.446   3.280  14.474 -0.7278  0.2162  1.3091
12146TIP3   OH257928   5.116   3.672   5.403  0.5247  0.1758  0.2570
12146TIP3    H157929   5.045   3.639   5.347 -0.2112  0.8536  0.7858
12146TIP3    H257930   5.127   3.763   5.376  0.8132  0.2327  0.5677
12147TIP3   OH257931   3.816   4.416   0.922  0.1212 -0.2150  0.1748
12147TIP3    H157932   3.742   4.435   0.864  0.2799  0.0345  0.0502
12147TIP3    H257933   3.800   4.327   0.953  0.2253 -0.4875 -0.5431
12148TIP3   OH257934   0.398   0.810  11.923 -0.4470 -0.0548  0.1645
12148TIP3    H157935   0.447   0.786  12.002 -0.9951  0.3296  0.6268
12148TIP3    H257936   0.341   0.734  11.906  0.0051 -0.3300 -0.1342
12149TIP3   OH257937   1.775   5.960  14.256  0.0592  0.1550  0.0195
12149TIP3    H157938   1.714   5.980  14.326  0.4541  0.1050  0.3783
12149TIP3    H257939   1.815   5.876  14.282 -2.4941 -1.8015 -2.0708
12150TIP3   OH257940   1.410   0.498   1.702 -0.2419 -0.5302  0.1408
12150TIP3    H157941   1.420   0.441   1.778  1.5714 -1.1856 -0.5493
12150TIP3    H257942   1.317   0.492   1.680 -0.7001 -0.6944  2.0077
12151TIP3   OH257943   1.437   0.002   2.193  0.4307 -0.1688 -0.0220
12151TIP3    H157944   1.386   0.054   2.255  0.3983 -0.2781  0.0417
12151TIP3    H257945   1.433  -0.087   2.226  0.3109 -0.2478 -0.2449
12152TIP3   OH257946   0.629   4.398  12.187 -0.1021  0.2166 -1.0527
12152TIP3    H157947   0.631   4.333  12.258  0.1182 -0.2190 -1.4513
12152TIP3    H257948   0.573   4.468  12.221 -0.2812 -0.1451 -0.5817
12153TIP3   OH257949   3.817   0.812  11.467 -0.2655 -0.2326 -0.2489
12153TIP3    H157950   3.773   0.858  11.396 -3.0659  2.7567  3.2220
12153TIP3    H257951   3.747   0.768  11.514  1.5431 -2.2245  0.6895
12154TIP3   OH257952   6.039   5.997   2.782  0.3716  0.3990  0.1207
12154TIP3    H157953   6.108   5.938   2.751 -0.1577  0.4667 -1.2122
12154TIP3    H257954   5.965   5.940   2.801  0.5551  0.4066  0.8703
12155TIP3   OH257955   5.084   1.648   0.822 -0.3502 -0.5603 -0.0875
12155TIP3    H157956   5.016   1.700   0.864  0.5439 -1.5716  2.7898
12155TIP3    H257957   5.094   1.686   0.735 -0.9012  2.9927  1.3109
12156TIP3   OH257958   6.225   0.889   2.842 -0.7178  0.3494 -0.2403
12156TIP3    H157959   6.245   0.822   2.907 -2.1589 -0.8041 -0.9767
12156TIP3    H257960   6.228   0.971   2.891  0.8899 -0.2399  0.6979
12157TIP3   OH257961   3.991   6.503  17.172 -0.2100  0.8737  0.0987
12157TIP3    H157962   4.015   6.567  17.105 -1.7736  0.7101 -0.6401
12157TIP3    H257963   3.923   6.547  17.224 -2.4124 -0.7021 -1.3581
12158TIP3   OH257964   4.346   3.379  15.018 -0.3636 -0.5610 -0.6221
12158TIP3    H157965   4.261   3.345  15.046 -0.4155 -0.7302 -0.9864
12158TIP3    H257966   4.326   3.437  14.945 -0.1693 -0.5432 -0.6602
12159TIP3   OH257967   0.913   3.289   0.797  0.1252  0.2112 -0.1326
12159TIP3    H157968   0.865   3.239   0.863 -1.0794 -0.0098 -1.1684
12159TIP3    H257969   0.926   3.375   0.837 -0.7494  0.1324  0.3346
12160TIP3   OH257970   3.013   0.058   5.786  0.5610  0.1900 -0.2165
12160TIP3    H157971   2.995   0.081   5.878 -0.1738  0.5836 -0.4527
12160TIP3    H257972   3.070  -0.018   5.791 -1.7557 -1.5531  0.5761
12161TIP3   OH257973   2.634   0.908  11.124  0.0544 -0.3990  0.0702
12161TIP3    H157974   2.578   0.857  11.066  1.2719 -1.3102 -0.3380
12161TIP3    H257975   2.598   0.996  11.122 -0.2760 -0.5684 -1.5840
12162TIP3   OH257976   3.976   2.875  11.883 -0.2510 -0.3457 -0.6133
12162TIP3    H157977   3.899   2.905  11.930  0.1914  1.0694 -0.7581
12162TIP3    H257978   4.003   2.951  11.831  1.0099 -0.9423 -0.8542
12163TIP3   OH257979   0.442   5.016  14.109 -0.0149  0.2420  0.0625
12163TIP3    H157980   0.457   4.930  14.069 -0.6134  0.1955 -0.0671
12163TIP3    H257981   0.357   5.008  14.151  0.5843  0.3156  1.2938
12164TIP3   OH257982   3.473   5.905   5.084  0.0989 -0.5088  0.3724
12164TIP3    H157983   3.562   5.937   5.100  0.7627 -1.8414 -0.6292
12164TIP3    H257984   3.480   5.810   5.086 -1.3003 -0.6330  0.2002
12165TIP3   OH257985   2.395   1.521   4.485 -0.1462 -0.6923  0.5264
12165TIP3    H157986   2.311   1.507   4.528 -0.4187  0.3164  0.3319
12165TIP3    H257987   2.377   1.586   4.417  0.2753 -2.2373 -1.1324
12166TIP3   OH257988   6.408   6.213   4.794 -0.1749  0.3854  0.4656
12166TIP3    H157989   6.335   6.233   4.852  1.8308  0.8896  2.9278
12166TIP3    H257990   6.428   6.296   4.750 -0.6733  0.4010  0.2667
12167TIP3   OH257991   0.697   1.315   6.489 -0.8255 -0.0525 -0.1859
12167TIP3    H157992   0.648   1.288   6.567 -1.3992 -2.0379 -1.2106
12167TIP3    H257993   0.773   1.257   6.487 -0.7756  0.0313 -1.0512
12168TIP3   OH257994   6.697   6.736  15.877 -0.0066  0.0602 -0.2863
12168TIP3    H157995   6.640   6.692  15.940 -0.0857 -0.4163 -0.6819
12168TIP3    H257996   6.658   6.822  15.864  2.1208  1.6749  3.2339
12169TIP3   OH257997   6.149   4.900  15.315  0.5330  0.2359  0.2632
12169TIP3    H157998   6.110   4.940  15.393 -0.9460 -0.1742 -0.2406
12169TIP3    H257999   6.074   4.872  15.262  1.5195 -0.2195 -0.9335
12170TIP3   OH258000   2.606   4.834  10.252 -0.0655  0.4024  0.1460
12170TIP3    H158001   2.701   4.826  10.248 -0.1602 -0.5381 -0.3057
12170TIP3    H258002   2.586   4.910  10.197  0.4221  0.6670  0.3259
12171TIP3   OH258003   5.159   5.479   4.814 -0.2031 -0.2027  0.6831
12171TIP3    H158004   5.234   5.537   4.804  0.2452 -0.8774  0.0226
12171TIP3    H258005   5.173   5.436   4.898 -0.2325  0.2095  0.8992
12172TIP3   OH258006   3.179   2.372   0.649  0.5469  0.0273  0.0364
12172TIP3    H158007   3.130   2.402   0.572  0.8396  1.1825  0.2827
12172TIP3    H258008   3.268   2.403   0.634  0.3021  1.5298  1.4883
12173TIP3   OH258009   5.530   4.895   4.219 -0.8807  0.1205 -0.1216
12173TIP3    H158010   5.544   4.990   4.223 -0.6432  0.0513  0.8379
12173TIP3    H258011   5.585   4.860   4.288  1.4124 -1.0153 -2.4475
12174TIP3   OH258012   2.869   3.104  12.998 -0.0738  0.1616  0.2275
12174TIP3    H158013   2.792   3.140  12.954  0.5686  1.4387  0.1312
12174TIP3    H258014   2.856   3.009  12.996 -1.4760  0.3584 -0.0874
12175TIP3   OH258015   6.768   6.319  13.184  0.0980  0.0362  0.2096
12175TIP3    H158016   6.692   6.330  13.240 -0.2710 -1.7691  0.0937
12175TIP3    H258017   6.789   6.407  13.154  0.9752  1.1962  4.0510
12176TIP3   OH258018   2.146   3.014   0.246 -0.7634  0.1423  0.2764
12176TIP3    H158019   2.098   2.960   0.183 -0.1677 -0.9379  0.7450
12176TIP3    H258020   2.233   2.975   0.251 -0.9529 -0.0968  2.1381
12177TIP3   OH258021   2.254   5.684   2.720  0.0071 -0.1911 -0.3334
12177TIP3    H158022   2.334   5.725   2.753 -0.6467 -0.5745  1.8174
12177TIP3    H258023   2.283   5.602   2.682  0.6647 -0.2805  0.3385
12178TIP3   OH258024   3.611   3.211  16.817  0.0473 -0.0882 -0.0276
12178TIP3    H158025   3.600   3.118  16.834 -3.4685  0.4297  1.0668
12178TIP3    H258026   3.555   3.227  16.741  1.6159  0.9083 -0.9859
12179TIP3   OH258027   3.477   2.709  12.566 -0.2693 -0.3306  0.4062
12179TIP3    H158028   3.470   2.738  12.657 -1.9598  0.9627 -0.1207
12179TIP3    H258029   3.389   2.680  12.542 -0.8431  3.0589 -2.0108
12180TIP3   OH258030   4.267   1.336  16.255  0.1401  0.3316 -0.5760
12180TIP3    H158031   4.235   1.379  16.176  3.0963 -0.2620 -2.1392
12180TIP3    H258032   4.352   1.376  16.272  0.3280 -0.7988  1.3065
12181TIP3   OH258033   3.662   2.004   2.688  0.0345 -0.1614 -0.7722
12181TIP3    H158034   3.707   2.087   2.702 -0.6011 -0.1303  1.3480
12181TIP3    H258035   3.723   1.938   2.723  1.0169 -0.7214 -3.4484
12182TIP3   OH258036   3.108   1.648  14.333  0.1613 -0.7360  0.2404
12182TIP3    H158037   3.161   1.571  14.352 -0.3591 -0.7210  1.7566
12182TIP3    H258038   3.023   1.630  14.373 -0.4059  0.0288 -0.5931
12183TIP3   OH258039   1.651   3.840   5.241  0.1834 -0.2888 -0.2963
12183TIP3    H158040   1.606   3.807   5.318 -0.1789  0.2454 -0.2765
12183TIP3    H258041   1.593   3.908   5.206  0.7585  0.0951 -0.5199
12184TIP3   OH258042   1.642   2.078  12.628 -0.2644 -0.6167  0.1167
12184TIP3    H158043   1.689   1.994  12.623 -1.8465 -1.5453  0.4949
12184TIP3    H258044   1.637   2.108  12.538  0.8310 -0.6176  0.0439
12185TIP3   OH258045   3.076   0.551   6.290  0.6660 -0.7075 -0.2988
12185TIP3    H158046   3.002   0.609   6.271  1.6634  0.4637 -0.7010
12185TIP3    H258047   3.077   0.489   6.217  1.1099  0.3415 -1.2010
12186TIP3   OH258048   6.518   6.734   4.534  0.0594 -0.3130 -0.0912
12186TIP3    H158049   6.428   6.753   4.560  0.4066  0.8200  0.3012
12186TIP3    H258050   6.510   6.661   4.472 -1.1960  0.3302 -0.7064
12187TIP3   OH258051   2.092   1.089   1.734  0.0050  0.4316 -0.3585
12187TIP3    H158052   2.115   1.126   1.649 -0.7362  0.1524 -0.6807
12187TIP3    H258053   2.002   1.058   1.724  0.1639 -0.2644  0.3053
12188TIP3   OH258054   1.784   2.253  14.926 -0.4263 -0.8703  0.0968
12188TIP3    H158055   1.833   2.185  14.973 -1.2363 -1.0978  0.6148
12188TIP3    H258056   1.799   2.233  14.833  0.5416 -0.8752  0.2528
12189TIP3   OH258057   4.938   6.554   3.831 -0.5730 -0.2909  0.1357
12189TIP3    H158058   4.944   6.474   3.779 -2.5385 -1.2198  1.2629
12189TIP3    H258059   4.866   6.604   3.791 -1.1811 -0.3788  1.0992
12190TIP3   OH258060   4.088   4.183  14.463  0.0609 -0.4377  0.3183
12190TIP3    H158061   4.023   4.235  14.416  0.9783  0.7919  0.3830
12190TIP3    H258062   4.125   4.244  14.527  2.3357 -0.6791 -0.7310
12191TIP3   OH258063   5.706   3.053   5.383 -1.0380 -0.3559 -0.2024
12191TIP3    H158064   5.753   3.037   5.301 -0.4788  2.7633 -0.5564
12191TIP3    H258065   5.669   3.141   5.373 -1.0769  0.0406  2.8035
12192TIP3   OH258066   4.961   0.101   0.221 -0.1981 -0.3277 -0.1463
12192TIP3    H158067   4.965   0.006   0.209  0.3324 -0.5370  1.6619
12192TIP3    H258068   5.014   0.136   0.149 -0.8848 -1.3538 -1.1715
12193TIP3   OH258069   3.803   2.697   4.179  0.7553  0.3541 -0.4186
12193TIP3    H158070   3.771   2.627   4.236 -0.1148  0.4207 -0.8130
12193TIP3    H258071   3.773   2.778   4.221  1.5469  0.4844 -0.0938
12194TIP3   OH258072   4.145   3.372   5.002  0.1343  0.1280  0.3266
12194TIP3    H158073   4.121   3.436   5.069  1.3955  0.5410  0.3925
12194TIP3    H258074   4.212   3.417   4.950 -0.7820 -0.2061 -1.1647
12195TIP3   OH258075   1.976   4.496   4.675  0.3417 -0.0315 -0.6443
12195TIP3    H158076   2.025   4.444   4.739  1.0516  0.0127 -1.1487
12195TIP3    H258077   1.884   4.486   4.701  0.7714  1.6957  1.6413
12196TIP3   OH258078   2.189   1.921   1.075 -0.7341 -0.0598  0.1048
12196TIP3    H158079   2.222   1.913   1.164  1.8082 -3.4059 -1.0386
12196TIP3    H258080   2.255   1.971   1.029 -1.8542  1.3164 -0.0465
12197TIP3   OH258081   6.793   3.410  13.005  0.3462 -0.0693  0.6449
12197TIP3    H158082   6.813   3.422  13.098 -0.3579 -1.2609  0.9587
12197TIP3    H258083   6.736   3.334  13.003  0.2182  0.0623 -0.7588
12198TIP3   OH258084   5.006   4.155  16.923  0.5154  0.1716  0.5081
12198TIP3    H158085   4.914   4.139  16.901 -0.0077  1.4695  1.6586
12198TIP3    H258086   5.020   4.105  17.003  0.5910  0.5624  0.7422
12199TIP3   OH258087   2.159   6.626  13.538 -0.6169  0.2693 -0.9395
12199TIP3    H158088   2.158   6.706  13.589  0.7773 -0.0809 -0.3246
12199TIP3    H258089   2.217   6.646  13.463  1.6551 -0.8562  0.4511
12200TIP3   OH258090   5.584   2.010  16.708  0.2964 -0.1037  0.1990
12200TIP3    H158091   5.604   1.957  16.630 -3.2310 -2.4358  0.7566
12200TIP3    H258092   5.585   1.947  16.780  2.5628  1.8576  1.9630
12201TIP3   OH258093   0.184   6.280   5.723 -0.4266 -0.8394  0.2374
12201TIP3    H158094   0.123   6.256   5.653 -0.5884  0.2316  0.0003
12201TIP3    H258095   0.210   6.370   5.702  0.6583 -1.0228  0.7474
12202TIP3   OH258096   3.215   5.808  17.141  0.3907 -0.4040  0.4717
12202TIP3    H158097   3.161   5.865  17.196 -0.7194 -0.8636 -0.1447
12202TIP3    H258098   3.157   5.736  17.115  0.7582  0.0625 -1.7204
12203TIP3   OH258099   2.983   3.705   2.077 -0.1477 -0.1847 -0.0609
12203TIP3    H158100   3.046   3.640   2.047  0.4079  0.4102 -0.1983
12203TIP3    H258101   2.969   3.685   2.169  0.6202 -0.0090  0.0927
12204TIP3   OH258102   6.686   0.444   4.025 -0.0679  0.1947  0.2271
12204TIP3    H158103   6.708   0.428   3.933 -2.2078  1.0418 -0.4560
12204TIP3    H258104   6.714   0.534   4.040  1.7101 -0.4458  0.8753
12205TIP3   OH258105   1.596   5.117   4.413  0.0437 -0.0915 -0.1672
12205TIP3    H158106   1.541   5.044   4.384  0.3744 -0.4981  0.2094
12205TIP3    H258107   1.546   5.195   4.390 -2.0866 -0.4897  2.8259
12206TIP3   OH258108   3.008   0.533   0.278  0.2722  0.2323 -0.5159
12206TIP3    H158109   2.953   0.574   0.211  0.2111 -1.9786 -1.8284
12206TIP3    H258110   3.097   0.540   0.244  0.0297 -2.9298 -1.9763
12207TIP3   OH258111   2.355   0.770   5.160 -0.5204 -0.2611 -0.4284
12207TIP3    H158112   2.372   0.861   5.135  0.8586  0.0034  1.3874
12207TIP3    H258113   2.426   0.721   5.117 -1.5768 -0.5730 -1.8555
12208TIP3   OH258114   2.094   1.567  14.678  0.4476  0.4449  0.8531
12208TIP3    H158115   2.140   1.651  14.668  0.1512  0.5643  0.4727
12208TIP3    H258116   2.151   1.515  14.734  0.2137  1.2270  1.8501
12209TIP3   OH258117   4.336   0.003  14.878  0.4942 -0.1716  0.3251
12209TIP3    H158118   4.339   0.030  14.969  2.1179  0.0358  0.2315
12209TIP3    H258119   4.364  -0.089  14.879 -0.6740 -0.5396  0.1593
12210TIP3   OH258120   5.616   4.114   3.115 -0.0419 -0.7652  0.2447
12210TIP3    H158121   5.555   4.057   3.068  0.4742 -0.3567 -0.9250
12210TIP3    H258122   5.561   4.160   3.179 -0.7121 -1.4746  0.1933
12211TIP3   OH258123   6.469   3.358  15.353 -0.5505  0.3471  0.3460
12211TIP3    H158124   6.458   3.265  15.335  1.2462  0.4414 -1.4120
12211TIP3    H258125   6.482   3.362  15.448  1.6810 -1.4534  0.1591
12212TIP3   OH258126   6.507   2.992   0.378 -0.5570  0.0688 -0.0871
12212TIP3    H158127   6.471   3.014   0.292 -0.5274  0.6657  0.0469
12212TIP3    H258128   6.580   3.053   0.389 -0.2105 -0.3898  0.1163
12213TIP3   OH258129   4.533   4.077   1.705 -0.0641 -0.4682 -0.2987
12213TIP3    H158130   4.560   4.168   1.712  1.7174 -0.9338 -0.8693
12213TIP3    H258131   4.562   4.037   1.788  0.3129 -0.8013 -0.5906
12214TIP3   OH258132   6.420   1.392   0.297 -0.0991 -0.5075  0.1331
12214TIP3    H158133   6.380   1.426   0.377 -0.4603  1.6512 -0.9297
12214TIP3    H258134   6.513   1.411   0.307 -0.1841  0.0167 -0.0992
12215TIP3   OH258135   2.209   5.977   3.353  0.1632  0.1469 -0.2818
12215TIP3    H158136   2.130   5.937   3.318  0.5899 -0.2289 -0.8208
12215TIP3    H258137   2.242   5.915   3.418  0.5918 -0.1932 -0.8153
12216TIP3   OH258138   1.605   0.024  12.653 -0.6193  0.1016  0.1549
12216TIP3    H158139   1.517   0.059  12.640 -0.9051 -0.4701  0.5119
12216TIP3    H258140   1.642   0.078  12.723 -0.5444  0.5962 -0.2693
12217TIP3   OH258141   4.470   5.485  15.178 -0.2165  0.0720  0.5516
12217TIP3    H158142   4.430   5.413  15.227  0.0275 -1.0796 -0.9275
12217TIP3    H258143   4.544   5.445  15.133  0.6999  1.5308  0.7328
12218TIP3   OH258144   2.815   0.074   4.480 -0.8091  0.3324  0.2403
12218TIP3    H158145   2.878   0.145   4.489  1.1192 -1.2404 -0.5225
12218TIP3    H258146   2.837   0.013   4.551 -1.5614 -0.1786  0.0472
12219TIP3   OH258147   2.509   5.303  13.629 -0.1444  0.1468  0.2357
12219TIP3    H158148   2.440   5.355  13.671 -0.2061 -0.0678  0.3995
12219TIP3    H258149   2.557   5.264  13.702 -0.9513 -1.1383  0.0937
12220TIP3   OH258150   4.222   4.846   6.068 -0.2810 -0.2252  1.2134
12220TIP3    H158151   4.196   4.870   6.157 -1.1885 -0.0543  0.9035
12220TIP3    H258152   4.225   4.750   6.070 -0.0676 -0.2146  1.4906
12221TIP3   OH258153   6.376   6.567   5.042  0.2297  0.2210  0.3949
12221TIP3    H158154   6.365   6.560   5.137  1.0573 -1.9122  0.3589
12221TIP3    H258155   6.430   6.645   5.030  0.9832 -0.0816  1.7541
12222TIP3   OH258156   2.064   6.683   1.472 -0.2009  0.5345  0.8018
12222TIP3    H158157   1.991   6.625   1.452  0.4633 -0.4816  1.3013
12222TIP3    H258158   2.039   6.725   1.555  0.1129 -0.3903  1.3773
12223TIP3   OH258159   1.345   4.917  12.858 -0.0048  0.1072 -0.2110
12223TIP3    H158160   1.333   4.947  12.768 -1.1219  1.1568  0.2694
12223TIP3    H258161   1.384   4.993  12.903 -1.6043  0.4091  0.7068
12224TIP3   OH258162   4.830   6.547   3.018  1.0261  0.8916  0.1950
12224TIP3    H158163   4.915   6.591   3.021  1.3163  0.2400  1.7686
12224TIP3    H258164   4.783   6.581   3.094 -0.1239  1.2095 -0.6300
12225TIP3   OH258165   3.299   4.395  12.678 -0.2395 -0.0467 -0.0402
12225TIP3    H158166   3.365   4.462  12.663 -0.2559 -0.5276 -2.4760
12225TIP3    H258167   3.336   4.341  12.747  0.9614  0.9360  0.1080
12226TIP3   OH258168   5.530   4.581  13.083 -0.5443  0.3235  0.3161
12226TIP3    H158169   5.492   4.582  13.171 -1.5847  0.6093 -0.1281
12226TIP3    H258170   5.480   4.647  13.035  0.2562  0.4174 -0.3983
12227TIP3   OH258171   1.628   6.772   1.185  0.0485 -0.6413 -0.1666
12227TIP3    H158172   1.578   6.711   1.239  0.4091 -0.5467  0.2733
12227TIP3    H258173   1.627   6.854   1.234  2.6409 -1.2652  1.0024
12228TIP3   OH258174   4.496   2.894  13.875 -0.0446  0.0200  0.6082
12228TIP3    H158175   4.555   2.880  13.949  0.3890 -0.7710  0.1234
12228TIP3    H258176   4.517   2.823  13.814 -1.2726 -0.0638  0.2811
12229TIP3   OH258177   3.176   6.468  14.212  0.0257 -0.8311 -0.1305
12229TIP3    H158178   3.110   6.463  14.143  2.8370 -1.7668 -2.8554
12229TIP3    H258179   3.233   6.540  14.186  0.4293 -0.3571  1.9384
12230TIP3   OH258180   6.350   3.840  11.852 -0.1506  0.2081  0.2113
12230TIP3    H158181   6.395   3.761  11.821 -0.4681  1.1598 -2.8979
12230TIP3    H258182   6.415   3.910  11.841 -1.2724  1.0526 -1.2389
12231TIP3   OH258183   5.173   4.389  14.321  0.3696 -0.5697  0.0560
12231TIP3    H158184   5.174   4.313  14.264  1.6649 -0.4580 -0.0782
12231TIP3    H258185   5.218   4.457  14.271  0.4534 -0.1258  0.7317
12232TIP3   OH258186   2.642   5.231   4.233  0.1025 -0.0374  0.0556
12232TIP3    H158187   2.566   5.203   4.183  0.6563 -0.7740 -0.3923
12232TIP3    H258188   2.686   5.294   4.176  0.5295 -0.5924 -0.2311
12233TIP3   OH258189   6.544   4.584   3.812  0.0069 -0.8026 -0.4083
12233TIP3    H158190   6.482   4.515   3.787 -0.5649 -1.7000  3.1590
12233TIP3    H258191   6.488   4.659   3.833  0.1236 -1.2795  1.7728
12234TIP3   OH258192   6.143   2.319  15.676 -0.0108 -0.2963  0.2857
12234TIP3    H158193   6.150   2.226  15.652 -0.6347 -0.0048 -1.0577
12234TIP3    H258194   6.066   2.351  15.629  1.4291  1.4137 -0.9987
12235TIP3   OH258195   1.850   5.129  16.057 -0.1525  0.0115  0.0507
12235TIP3    H158196   1.755   5.129  16.042 -0.1345 -1.6678 -0.1858
12235TIP3    H258197   1.862   5.069  16.131  0.7217  0.2341  0.0895
12236TIP3   OH258198   5.245   0.670  13.632 -0.0131  0.2980  0.4456
12236TIP3    H158199   5.219   0.749  13.678  0.4731 -0.8411  2.7683
12236TIP3    H258200   5.326   0.642  13.675  0.3417 -0.9443 -0.9597
12237TIP3   OH258201   1.252   2.851   1.874  0.2299 -0.1043  0.1523
12237TIP3    H158202   1.280   2.774   1.922 -1.4559 -0.8907 -0.1076
12237TIP3    H258203   1.273   2.925   1.932 -0.3462 -0.9251  1.4151
12238TIP3   OH258204   0.385   3.540  11.585  0.0041 -0.3028 -0.4263
12238TIP3    H158205   0.402   3.611  11.522 -1.2780 -0.4425 -0.9583
12238TIP3    H258206   0.431   3.566  11.664 -1.1585  1.5705 -0.3351
12239TIP3   OH258207   5.976   1.510  12.679 -0.8953  0.3093 -0.3277
12239TIP3    H158208   5.984   1.425  12.636  0.0541  0.1204  0.2085
12239TIP3    H258209   6.044   1.564  12.639  0.5994 -0.1352  1.5445
12240TIP3   OH258210   4.536   5.504   2.316 -0.8251 -0.3119 -0.3156
12240TIP3    H158211   4.542   5.523   2.222  1.1247  0.3858 -0.0651
12240TIP3    H258212   4.484   5.424   2.320 -1.5370  0.0502 -1.9514
12241TIP3   OH258213   0.045   0.840  16.937 -0.0241 -0.8180  0.4794
12241TIP3    H158214   0.091   0.923  16.953 -0.1032 -0.6023 -0.3900
12241TIP3    H258215   0.018   0.845  16.846  0.0130 -1.8264  0.4092
12242TIP3   OH258216   1.199   0.171  12.381  0.1443  0.1444  0.8066
12242TIP3    H158217   1.200   0.167  12.286  0.9707 -0.8850  0.8554
12242TIP3    H258218   1.129   0.234  12.401 -2.4016 -2.1586 -0.4125
12243TIP3   OH258219   0.341   2.147   1.159  0.0246  0.5234  0.4263
12243TIP3    H158220   0.357   2.236   1.128  2.1949 -0.1226 -0.3777
12243TIP3    H258221   0.380   2.145   1.247 -2.3267  1.0891  1.5376
12244TIP3   OH258222   5.812   4.703   6.104  0.2572  0.2401 -0.7609
12244TIP3    H158223   5.729   4.659   6.126 -0.9336  2.0287 -1.5875
12244TIP3    H258224   5.879   4.636   6.119 -1.4539 -1.6802 -1.4100
12245TIP3   OH258225   6.039   4.626  17.223  0.4491 -0.0191 -0.0588
12245TIP3    H158226   6.046   4.655  17.132  0.6666  1.1415  0.3152
12245TIP3    H258227   6.038   4.708  17.274 -0.8524 -0.6178  0.8988
12246TIP3   OH258228   3.921   1.055   0.949  0.2497  0.4903 -0.6370
12246TIP3    H158229   3.971   1.009   0.882 -0.4481  0.1266 -0.9172
12246TIP3    H258230   3.981   1.062   1.024  0.7053  0.0374 -0.9565
12247TIP3   OH258231   5.562   2.909  16.990 -0.2622  0.5260  0.6368
12247TIP3    H158232   5.541   2.962  17.068  0.2139  2.3115 -0.4184
12247TIP3    H258233   5.634   2.853  17.018 -0.6368  0.5711  1.7298
12248TIP3   OH258234   6.642   1.407   1.381 -0.1967  0.2894  0.7926
12248TIP3    H158235   6.597   1.362   1.309 -0.8914 -0.5561  1.7433
12248TIP3    H258236   6.729   1.366   1.384 -1.2176 -1.8278  2.3966
12249TIP3   OH258237   6.151   0.733   4.668  0.7468 -0.2297 -0.1014
12249TIP3    H158238   6.161   0.714   4.761  2.8538  0.5864 -0.1381
12249TIP3    H258239   6.186   0.657   4.623 -0.6933 -0.8228 -0.2500
12250TIP3   OH258240   2.115   4.245  10.685  0.0616  0.0393 -0.0471
12250TIP3    H158241   2.075   4.289  10.610  0.6757 -0.1930 -0.5115
12250TIP3    H258242   2.065   4.164  10.695  1.7104 -1.2674 -1.9247
12251TIP3   OH258243   3.490   0.123  12.459 -0.1522 -0.8314  0.7229
12251TIP3    H158244   3.463   0.060  12.526 -0.9061 -1.4504 -0.1447
12251TIP3    H258245   3.561   0.173  12.500 -1.2526 -0.5345  2.3199
12252TIP3   OH258246   0.513   3.458   3.437 -0.0533 -0.3024 -0.0801
12252TIP3    H158247   0.515   3.397   3.363  2.4991 -0.0801 -0.2342
12252TIP3    H258248   0.450   3.525   3.411  0.4472 -0.4897 -1.8365
12253TIP3   OH258249   0.952   1.721   1.143  0.2195  0.2101  0.1012
12253TIP3    H158250   1.043   1.751   1.145 -0.3984  2.1167  0.3778
12253TIP3    H258251   0.921   1.745   1.055  0.1957 -1.0852 -0.2490
12254TIP3   OH258252   3.721   3.318  13.671 -0.2571  0.8410  0.1363
12254TIP3    H158253   3.720   3.248  13.736 -1.9329 -0.2528 -1.0263
12254TIP3    H258254   3.763   3.392  13.715  5.1348 -2.0146  0.1407
12255TIP3   OH258255   5.000   0.303  12.914  0.4690  0.0742  0.1479
12255TIP3    H158256   5.052   0.268  12.842  0.4009 -0.1015  0.1847
12255TIP3    H258257   5.064   0.344  12.972  0.8630 -2.4125  1.5253
12256TIP3   OH258258   2.328   2.515   5.284 -0.5201  0.1986  0.0323
12256TIP3    H158259   2.338   2.610   5.292  1.3247 -0.0442  0.9969
12256TIP3    H258260   2.354   2.495   5.195 -0.9760  0.6094 -0.1941
12257TIP3   OH258261   6.265   6.374   4.115 -0.0631 -0.4490  0.0789
12257TIP3    H158262   6.204   6.384   4.189  1.3247  0.3384  1.1476
12257TIP3    H258263   6.325   6.449   4.123  0.5630 -0.7796 -1.4116
12258TIP3   OH258264   6.620   1.399   6.787  0.5620  0.1059 -0.1087
12258TIP3    H158265   6.525   1.415   6.783  0.5443 -0.3585 -2.1568
12258TIP3    H258266   6.627   1.306   6.805  0.6519  0.3287  1.0666
12259TIP3   OH258267   1.184   3.628   4.942 -0.6776 -0.0430 -0.7564
12259TIP3    H158268   1.269   3.619   4.900  0.0138  1.8631  0.1815
12259TIP3    H258269   1.165   3.541   4.976  1.2849 -0.3147 -0.2740
12260TIP3   OH258270   5.105   0.400  13.908 -0.1876 -0.1375  0.4122
12260TIP3    H158271   5.161   0.476  13.917 -3.6162  2.5042  0.7264
12260TIP3    H258272   5.077   0.380  13.998  0.0196 -1.2653  0.2385
12261TIP3   OH258273   1.353   3.845  16.052  0.2290  0.1159 -0.2621
12261TIP3    H158274   1.262   3.819  16.069  0.7974 -1.2860  0.7456
12261TIP3    H258275   1.348   3.939  16.034 -1.3974  0.0921 -0.0616
12262TIP3   OH258276   6.553   0.289  11.974  0.4688  0.0828 -0.1684
12262TIP3    H158277   6.611   0.357  11.942  0.3084  0.4323  0.2716
12262TIP3    H258278   6.474   0.336  12.003  1.0426 -0.0932  1.7682
12263TIP3   OH258279   2.502   6.015   1.944 -0.5653 -0.6048  0.3966
12263TIP3    H158280   2.573   6.079   1.946 -0.8392 -0.2965  0.4061
12263TIP3    H258281   2.502   5.982   1.855 -1.1283  0.2196  0.0831
12264TIP3   OH258282   0.264   1.707   2.493  0.0692  0.4099  0.4237
12264TIP3    H158283   0.239   1.776   2.555  0.5877  0.7657  0.2387
12264TIP3    H258284   0.345   1.738   2.454 -1.2063  1.0362 -1.8079
12265TIP3   OH258285   6.535   6.478  15.793  0.7852 -0.1156 -0.6531
12265TIP3    H158286   6.595   6.440  15.857 -0.8671 -1.4188  0.1761
12265TIP3    H258287   6.491   6.549  15.839  0.1105 -0.5989 -0.5273
12266TIP3   OH258288   0.785   1.780   1.686 -0.3672 -0.7062 -0.1587
12266TIP3    H158289   0.806   1.748   1.774 -0.6344  1.1383  0.5945
12266TIP3    H258290   0.798   1.875   1.691  4.5877 -0.9741 -3.4827
12267TIP3   OH258291   2.861   4.009   4.993 -0.2531  0.2805 -0.3206
12267TIP3    H158292   2.939   4.052   4.959 -0.0163  0.4581  0.4386
12267TIP3    H258293   2.824   4.073   5.055 -0.1831 -0.3873  0.4214
12268TIP3   OH258294   4.068   0.922  14.060 -0.0096  0.7133  0.0433
12268TIP3    H158295   4.087   0.904  13.968 -1.4048  1.3869 -0.3708
12268TIP3    H258296   4.119   0.855  14.108 -1.3250 -1.3049 -1.3057
12269TIP3   OH258297   5.958   6.470  15.330  0.3345  0.1215 -0.0630
12269TIP3    H158298   6.022   6.419  15.380  0.8172  1.0298  0.2516
12269TIP3    H258299   5.874   6.447  15.370  0.5417 -0.4567  0.0493
12270TIP3   OH258300   5.833   1.008  11.309  0.1498 -0.2940 -0.0610
12270TIP3    H158301   5.861   1.043  11.393  0.2872  1.0743 -0.6738
12270TIP3    H258302   5.880   0.925  11.301 -1.0386 -1.2094  1.9105
12271TIP3   OH258303   1.456   2.795  12.527 -0.1193 -0.4550 -0.1361
12271TIP3    H158304   1.531   2.805  12.469  0.5006 -1.7288  0.4464
12271TIP3    H258305   1.477   2.851  12.602 -0.2629  0.0615 -0.4799
12272TIP3   OH258306   5.486   5.544  11.319 -0.0321  0.6517  0.8378
12272TIP3    H158307   5.481   5.497  11.402 -1.2235  1.6120  1.3151
12272TIP3    H258308   5.531   5.484  11.260  0.9469  0.0102  2.2078
12273TIP3   OH258309   0.445   0.892  13.379 -0.4749  0.3500  0.0011
12273TIP3    H158310   0.458   0.912  13.286 -0.1297 -1.0114 -0.2594
12273TIP3    H258311   0.354   0.862  13.384 -0.4399  0.2559  0.0720
12274TIP3   OH258312   1.937   5.743   5.015 -0.5111 -0.2266  0.3805
12274TIP3    H158313   1.958   5.686   4.941 -0.9071 -0.7518  0.6741
12274TIP3    H258314   1.981   5.703   5.090  0.5702  0.7462  0.2954
12275TIP3   OH258315   2.627   4.565  16.000 -0.0999  0.2905  0.3929
12275TIP3    H158316   2.646   4.615  16.079 -0.3644  0.5039  0.3240
12275TIP3    H258317   2.549   4.515  16.021 -0.1304  0.2938  0.2879
12276TIP3   OH258318   1.874   5.262   3.564 -0.4092  0.1707  0.0462
12276TIP3    H158319   1.827   5.299   3.639  0.9583 -0.1965  1.1172
12276TIP3    H258320   1.813   5.200   3.525 -1.3878  0.8726  0.4512
12277TIP3   OH258321   1.152   4.474   3.702  0.0260  0.3468  0.1924
12277TIP3    H158322   1.237   4.512   3.723  0.2218  0.0128  0.0083
12277TIP3    H258323   1.154   4.460   3.608 -0.5181  1.0257  0.0728
12278TIP3   OH258324   5.062   3.938   4.879  0.3134 -0.2743  0.4980
12278TIP3    H158325   5.151   3.917   4.851 -0.0154 -2.3412  0.9413
12278TIP3    H258326   5.034   4.008   4.820  0.8664 -2.2111 -2.1186
12279TIP3   OH258327   6.814   3.478  16.719  0.5472  0.1378  0.2043
12279TIP3    H158328   6.845   3.567  16.705  1.3263  0.2288  2.2857
12279TIP3    H258329   6.891   3.423  16.701  0.5398  0.0103  0.5597
12280TIP3   OH258330   2.275   4.729   1.560  0.4428 -0.0736  0.1698
12280TIP3    H158331   2.253   4.649   1.514  2.3196 -1.1356  1.0623
12280TIP3    H258332   2.288   4.794   1.490  0.5075 -0.9530 -0.6420
12281TIP3   OH258333   3.090   1.601   3.871  0.2494  0.0612  0.7046
12281TIP3    H158334   3.064   1.584   3.962  0.8897 -0.8050  0.7377
12281TIP3    H258335   3.097   1.514   3.832  0.1707  0.4268 -0.1226
12282TIP3   OH258336   0.462   5.320   4.670  0.2378 -0.6714 -0.0206
12282TIP3    H158337   0.495   5.258   4.606  1.6597  1.3643 -1.2998
12282TIP3    H258338   0.425   5.265   4.739  2.3303 -2.9641 -0.6465
12283TIP3   OH258339   3.073   1.728   3.539 -0.2324 -0.1186  0.2499
12283TIP3    H158340   3.097   1.700   3.451 -0.9101  3.3707 -1.1007
12283TIP3    H258341   2.981   1.702   3.548 -0.3397  0.0630 -0.3022
12284TIP3   OH258342   0.689   3.000   4.706  0.1852  0.2192  0.2694
12284TIP3    H158343   0.672   3.093   4.718 -0.3540 -0.1009  2.2662
12284TIP3    H258344   0.642   2.976   4.626 -0.3221  1.4838  0.1880
12285TIP3   OH258345   0.357   6.640  14.328 -0.1338  0.1204 -0.1811
12285TIP3    H158346   0.396   6.711  14.380  0.6472  0.0072 -0.5934
12285TIP3    H258347   0.398   6.650  14.242  1.5968 -2.1534  0.3437
12286TIP3   OH258348   5.716   5.127   1.770  0.4970 -0.6154 -0.3661
12286TIP3    H158349   5.804   5.164   1.772  0.2641 -0.0788  0.7770
12286TIP3    H258350   5.684   5.137   1.860 -1.0447 -0.0435 -0.9544
12287TIP3   OH258351   3.019   5.664  11.509 -0.3605  0.1212  0.5618
12287TIP3    H158352   2.933   5.706  11.516  0.3816  1.2885  3.5145
12287TIP3    H258353   3.073   5.729  11.465 -0.6334 -0.1047 -0.1255
12288TIP3   OH258354   2.463   4.328  13.690 -0.0848  0.2132  0.1888
12288TIP3    H158355   2.411   4.408  13.687  0.4165  0.5545  0.5394
12288TIP3    H258356   2.478   4.306  13.598  0.3007  0.8684  0.0896
12289TIP3   OH258357   6.330   0.452   0.665 -0.2567  0.3932 -0.1370
12289TIP3    H158358   6.422   0.428   0.678 -0.7571 -2.0470 -0.7665
12289TIP3    H258359   6.332   0.547   0.652  2.1328  0.4356  0.1715
12290TIP3   OH258360   5.056   4.603   4.691 -0.3446 -0.3430 -0.1584
12290TIP3    H158361   5.003   4.661   4.638 -0.0620  0.4646  0.4315
12290TIP3    H258362   5.136   4.590   4.640  0.8296  2.1401  0.9946
12291TIP3   OH258363   3.398   5.783   3.800 -0.5552  0.3215  0.3508
12291TIP3    H158364   3.341   5.841   3.851 -0.6496 -0.2610  0.9185
12291TIP3    H258365   3.472   5.765   3.859  0.4251  1.4027 -0.5299
12292TIP3   OH258366   4.070   4.048   5.253  0.5353  0.4768  0.1188
12292TIP3    H158367   4.010   4.116   5.222  0.2877  1.0512  1.8145
12292TIP3    H258368   4.051   3.972   5.197 -2.2274  0.4376  1.0128
12293TIP3   OH258369   0.351   0.399  13.875  0.4471 -1.2393  0.6262
12293TIP3    H158370   0.323   0.448  13.798 -1.4530  0.1135  2.1281
12293TIP3    H258371   0.437   0.435  13.896  0.2841 -0.4950  0.0524
12294TIP3   OH258372   5.424   3.722   4.577  0.5831  0.8657  0.5160
12294TIP3    H158373   5.479   3.800   4.586  2.6705  0.0212 -3.6156
12294TIP3    H258374   5.482   3.650   4.602 -0.7761  0.4611  2.5678
12295TIP3   OH258375   0.297   0.983   5.839 -0.2199 -0.1034  0.2091
12295TIP3    H158376   0.378   0.964   5.791 -0.6234  0.2555 -0.6203
12295TIP3    H258377   0.324   1.042   5.909  0.4327 -0.9024  0.6369
12296TIP3   OH258378   2.567   3.658  14.104 -0.1189 -0.4065  0.0377
12296TIP3    H158379   2.634   3.625  14.164  0.2251 -0.7558 -0.5348
12296TIP3    H258380   2.571   3.753  14.114 -0.3745 -0.4802  0.9031
12297TIP3   OH258381   4.538   2.349  14.110 -0.3780 -0.2176  0.2326
12297TIP3    H158382   4.478   2.387  14.046 -1.7114  0.0092  1.5755
12297TIP3    H258383   4.482   2.291  14.163  1.5088 -3.8429 -1.5601
12298TIP3   OH258384   6.022   0.840  15.699 -0.0261  0.0097 -0.4709
12298TIP3    H158385   6.102   0.883  15.730  0.2869 -2.0288  1.6720
12298TIP3    H258386   6.040   0.747  15.707 -1.1188 -0.5659 -3.9570
12299TIP3   OH258387   2.181   2.740   6.040  0.1552 -0.8092  0.8264
12299TIP3    H158388   2.232   2.661   6.060 -0.1411 -0.4019  3.3671
12299TIP3    H258389   2.095   2.707   6.015  0.3693 -1.3439  0.7824
12300TIP3   OH258390   1.150   3.138  17.086  0.1757  0.4994  0.2400
12300TIP3    H158391   1.073   3.101  17.129 -0.5225  0.0813 -1.3611
12300TIP3    H258392   1.119   3.219  17.046  0.2142 -0.4143 -1.6647
12301TIP3   OH258393   4.694   1.414   4.685  0.2521 -0.3674 -0.1187
12301TIP3    H158394   4.665   1.505   4.679 -0.8997 -0.7136  0.0512
12301TIP3    H258395   4.705   1.387   4.594  0.0193 -0.2372 -0.1854
12302TIP3   OH258396   6.376   1.091  12.068  0.5607  0.1939 -0.2110
12302TIP3    H158397   6.299   1.109  12.015  0.3095  2.4373  0.8392
12302TIP3    H258398   6.441   1.056  12.007 -0.5064  0.4868 -1.5240
12303TIP3   OH258399   2.412   5.718   5.066  0.3355 -0.3256  0.5071
12303TIP3    H158400   2.447   5.769   4.993 -1.1651  1.3501  0.9268
12303TIP3    H258401   2.347   5.661   5.026 -0.3956  0.5021  0.4971
12304TIP3   OH258402   4.048   4.517   1.531  0.1323 -0.5011 -0.2518
12304TIP3    H158403   4.131   4.469   1.536  1.5242  1.9418  1.4248
12304TIP3    H258404   3.992   4.477   1.597  0.2671 -1.6344 -0.8226
12305TIP3   OH258405   5.707   0.904  16.485 -0.2758 -0.0517 -0.4803
12305TIP3    H158406   5.618   0.878  16.462 -1.6495  2.1999  2.0862
12305TIP3    H258407   5.700   0.940  16.573  2.9683  1.3897 -0.7373
12306TIP3   OH258408   0.820   4.975  11.741  0.1620 -0.1175  0.5219
12306TIP3    H158409   0.796   4.898  11.792 -0.4416  0.6562  1.4271
12306TIP3    H258410   0.779   4.962  11.656  1.8468 -1.8116 -0.0587
12307TIP3   OH258411   6.040   2.533  14.830  0.1306 -0.3933  0.5438
12307TIP3    H158412   6.112   2.481  14.794 -1.7710 -1.8056 -1.3181
12307TIP3    H258413   6.081   2.618  14.850  2.0995 -0.7747 -1.5465
12308TIP3   OH258414   6.687   0.787  12.510 -0.1233 -0.3606  0.2253
12308TIP3    H158415   6.622   0.762  12.576 -1.7992  0.5132 -1.0568
12308TIP3    H258416   6.639   0.844  12.450  1.4430 -0.9386 -1.6051
12309TIP3   OH258417   4.727   3.076  15.987 -0.5561  0.4359  0.4584
12309TIP3    H158418   4.668   3.144  16.020 -1.9215  1.2903 -3.4886
12309TIP3    H258419   4.702   3.065  15.895  3.2945 -1.5601 -0.4386
12310TIP3   OH258420   6.806   4.173   1.716 -0.3275 -0.1496  0.3819
12310TIP3    H158421   6.836   4.193   1.628  0.2376 -1.3079  0.2910
12310TIP3    H258422   6.838   4.084   1.732 -1.5291 -0.4282  1.2722
12311TIP3   OH258423   6.807   6.556   4.667  0.0684  0.3700 -0.0043
12311TIP3    H158424   6.794   6.533   4.575  1.0718  1.0980 -0.3378
12311TIP3    H258425   6.835   6.647   4.665  0.6891  0.2079  0.9936
12312TIP3   OH258426   0.324   0.519  10.647 -0.1057 -0.0688  0.2586
12312TIP3    H158427   0.371   0.514  10.730  0.2766 -1.9704 -0.0471
12312TIP3    H258428   0.388   0.551  10.584 -0.2784  0.9566  0.5922
12313TIP3   OH258429   2.785   0.510  13.077  0.1999  0.3312  0.0067
12313TIP3    H158430   2.827   0.429  13.049  1.2022  0.6402  0.5844
12313TIP3    H258431   2.691   0.491  13.076  0.4224 -0.7440 -0.1271
12314TIP3   OH258432   3.072   3.979   4.575 -0.1710 -0.1504 -0.2170
12314TIP3    H158433   3.090   3.998   4.667 -0.1376  0.4457 -0.3429
12314TIP3    H258434   2.984   4.013   4.560 -0.9826 -2.0508  0.1005
12315TIP3   OH258435   6.417   3.000  11.903  0.4504 -0.1675  0.1542
12315TIP3    H158436   6.506   2.978  11.927  1.0659  1.1370 -0.8157
12315TIP3    H258437   6.362   2.957  11.968  1.8444 -0.0681  1.4096
12316TIP3   OH258438   2.176   5.233  14.406 -0.5009 -0.4428 -0.4337
12316TIP3    H158439   2.247   5.252  14.344  0.6501  1.3118  1.3965
12316TIP3    H258440   2.169   5.312  14.460 -1.7393 -1.8078  1.4438
12317TIP3   OH258441   0.072   6.780  15.638 -0.1102  0.5176 -0.0808
12317TIP3    H158442   0.028   6.746  15.716 -1.3947 -1.0281 -1.4511
12317TIP3    H258443   0.153   6.729  15.632  0.2916  1.0636  0.5633
12318TIP3   OH258444   4.889   5.336  17.028  0.5165 -0.0030  0.2359
12318TIP3    H158445   4.802   5.372  17.011  0.5679 -0.0589 -0.1508
12318TIP3    H258446   4.935   5.344  16.944  1.4570  1.6306  0.8591
12319TIP3   OH258447   1.135   4.009   0.580 -0.3711  0.1629  0.0910
12319TIP3    H158448   1.142   4.064   0.502 -1.3633  0.9103  0.5182
12319TIP3    H258449   1.061   3.952   0.563  0.1972 -0.5511 -0.0369
12320TIP3   OH258450   0.330   3.091  16.582 -0.1187 -0.7793 -0.1180
12320TIP3    H158451   0.291   3.082  16.495  1.6609  2.6170 -1.3564
12320TIP3    H258452   0.418   3.055  16.573  0.3019  0.1841  0.0848
12321TIP3   OH258453   4.962   6.243  13.732 -0.2140  0.0889 -0.4324
12321TIP3    H158454   4.907   6.309  13.773 -2.6542 -1.1285 -1.6667
12321TIP3    H258455   4.999   6.194  13.806 -0.9523  0.7956  0.4135
12322TIP3   OH258456   0.794   5.400  13.210  0.1429 -0.4686 -0.1324
12322TIP3    H158457   0.810   5.460  13.283 -0.2350  0.3837 -0.7433
12322TIP3    H258458   0.834   5.444  13.134  0.4930 -1.3237 -0.4518
12323TIP3   OH258459   6.591   0.308   4.452  0.4412  0.2456 -0.1809
12323TIP3    H158460   6.654   0.258   4.400 -1.2942 -1.6922 -0.5162
12323TIP3    H258461   6.559   0.245   4.517 -1.0389  1.2205  0.0486
12324TIP3   OH258462   3.318   0.459   2.328  0.0420  0.4164  0.9156
12324TIP3    H158463   3.267   0.413   2.262  0.4347  1.1624  0.0877
12324TIP3    H258464   3.257   0.471   2.401 -0.3119 -0.6481  0.8098
12325TIP3   OH258465   3.399   6.441   1.701  0.3442 -0.4745  0.0173
12325TIP3    H158466   3.320   6.388   1.690 -1.8243  2.3617  1.0507
12325TIP3    H258467   3.393   6.507   1.632  1.0695  0.6219  0.9785
12326TIP3   OH258468   2.268   4.344   3.832  0.0322  0.6428  0.7459
12326TIP3    H158469   2.341   4.352   3.894  1.5175 -0.2240 -0.8197
12326TIP3    H258470   2.191   4.374   3.881  0.9870 -0.8486  3.2888
12327TIP3   OH258471   6.685   2.839  11.142  0.1431 -0.0324  0.0717
12327TIP3    H158472   6.727   2.907  11.195  0.6139 -0.6148  0.4570
12327TIP3    H258473   6.623   2.886  11.087  0.3779  0.6962  0.4226
12328TIP3   OH258474   6.383   5.251   4.385 -0.3586  0.4489  0.7232
12328TIP3    H158475   6.456   5.197   4.415  0.4700  0.3115 -1.4574
12328TIP3    H258476   6.413   5.341   4.396  0.7468  0.3820 -1.5500
12329TIP3   OH258477   4.264   3.231  17.059 -0.3736 -0.0795 -0.1295
12329TIP3    H158478   4.327   3.167  17.093  2.8694  1.8973 -2.1370
12329TIP3    H258479   4.262   3.215  16.965 -0.4481  1.9819 -0.4938
12330TIP3   OH258480   0.940   6.338   6.038 -0.1945  0.3171 -0.3279
12330TIP3    H158481   0.953   6.430   6.014  0.1089  1.1484  2.8040
12330TIP3    H258482   0.918   6.341   6.131 -1.8862 -2.6718 -0.5928
12331TIP3   OH258483   3.095   1.704   1.726  0.2973  0.4196  0.0533
12331TIP3    H158484   3.083   1.727   1.634  0.5061 -0.3989 -0.1767
12331TIP3    H258485   3.006   1.703   1.763 -0.3838 -4.4504 -1.3698
12332TIP3   OH258486   3.816   6.123   0.975 -0.0889 -0.0514 -0.2930
12332TIP3    H158487   3.903   6.160   0.988  0.5469 -1.0104 -1.7192
12332TIP3    H258488   3.772   6.135   1.060  1.2020  0.9851  0.2555
12333TIP3   OH258489   4.152   0.620   2.579 -0.5457 -0.2336  0.2542
12333TIP3    H158490   4.098   0.697   2.561 -0.3519 -0.1410  0.0707
12333TIP3    H258491   4.190   0.597   2.495  1.4932  1.0586  0.7689
12334TIP3   OH258492   0.564   3.369  17.260 -0.2467 -0.0357 -0.3379
12334TIP3    H158493   0.497   3.336  17.319  1.7340 -1.6539  1.0657
12334TIP3    H258494   0.647   3.353  17.306  1.2668 -0.3142 -3.0676
12335TIP3   OH258495   3.886   0.810   1.544 -0.5146  0.0400  0.2838
12335TIP3    H158496   3.813   0.763   1.504  1.6075 -1.6506 -1.6718
12335TIP3    H258497   3.888   0.779   1.635 -0.9298 -1.4365 -0.2096
12336TIP3   OH258498   1.883   5.331   1.928 -0.5796 -0.3592 -0.1420
12336TIP3    H158499   1.850   5.242   1.942  0.0700 -0.4765  0.6651
12336TIP3    H258500   1.844   5.358   1.845 -0.3465 -1.6008 -0.6617
12337TIP3   OH258501   0.348   6.619  15.005 -0.2234  0.2257  0.3684
12337TIP3    H158502   0.284   6.555  14.976 -0.4288 -0.4225  2.2106
12337TIP3    H258503   0.325   6.699  14.958 -1.7205 -0.2960  0.1900
12338TIP3   OH258504   4.742   0.748  12.087 -0.2730  0.4980  0.6339
12338TIP3    H158505   4.734   0.791  12.002  0.6947 -0.2228  0.1768
12338TIP3    H258506   4.669   0.686  12.090  1.5169 -1.7690 -1.0301
12339TIP3   OH258507   3.371   6.362  15.124 -0.2401  0.1232  0.4413
12339TIP3    H158508   3.416   6.285  15.089 -1.2744 -0.0177 -0.6051
12339TIP3    H258509   3.389   6.432  15.061  0.4897  0.6852  1.2564
12340TIP3   OH258510   3.835   4.002  17.230 -0.0697 -0.3905 -0.7139
12340TIP3    H158511   3.814   4.075  17.172  0.6655 -0.7821 -1.4771
12340TIP3    H258512   3.847   3.927  17.172 -0.6641 -1.0952  0.0498
12341TIP3   OH258513   3.367   6.450   6.430 -0.1215  0.0035  0.3244
12341TIP3    H158514   3.276   6.479   6.420  0.3333  1.7220  0.9593
12341TIP3    H258515   3.413   6.528   6.461  1.9255 -0.3086 -1.7807
12342TIP3   OH258516   4.945   6.136  16.518 -0.0237  0.8199  0.0240
12342TIP3    H158517   4.967   6.134  16.611  0.5529 -0.4094 -0.1196
12342TIP3    H258518   4.881   6.065  16.507  1.8506 -0.7758 -0.9615
12343TIP3   OH258519   4.840   0.272   0.402 -0.1594  0.3864 -0.3641
12343TIP3    H158520   4.870   0.226   0.324  1.2439 -1.0719  0.9973
12343TIP3    H258521   4.802   0.204   0.458  0.5590  1.0881  1.0288
12344TIP3   OH258522   3.960   4.705  15.515 -0.2448 -0.4916  0.5934
12344TIP3    H158523   3.947   4.673  15.425 -1.2074 -0.1028  0.5825
12344TIP3    H258524   3.900   4.653  15.568 -0.5568  0.1010  0.8314
12345TIP3   OH258525   6.266   3.083  12.355  0.3552 -0.4024 -0.1646
12345TIP3    H158526   6.217   3.020  12.407 -0.0656 -0.3007 -0.4317
12345TIP3    H258527   6.354   3.085  12.394  0.2711 -0.9041  0.0452
12346TIP3   OH258528   3.513   3.449  14.490  0.4006 -0.6163 -0.1098
12346TIP3    H158529   3.588   3.395  14.467 -0.2452 -1.4397 -0.2841
12346TIP3    H258530   3.494   3.500  14.411 -0.2292 -1.5881 -0.5887
12347TIP3   OH258531   2.298   5.856   2.163  0.0816 -0.2372 -0.1523
12347TIP3    H158532   2.309   5.765   2.190 -0.1045 -0.6056 -1.3072
12347TIP3    H258533   2.374   5.875   2.109  1.4004  1.0655  2.0563
12348TIP3   OH258534   3.875   4.148  14.212 -0.1115  0.7936 -0.2573
12348TIP3    H158535   3.914   4.235  14.219  1.4850  0.0914 -0.3713
12348TIP3    H258536   3.836   4.132  14.298  0.6650  1.1121  0.1571
12349TIP3   OH258537   2.286   5.243   2.254 -1.0309  0.0537 -0.0938
12349TIP3    H158538   2.323   5.203   2.333  1.7392  0.6569 -1.0391
12349TIP3    H258539   2.247   5.169   2.206 -0.0759 -0.7761  0.3924
12350TIP3   OH258540   5.050   0.077  15.570  0.1370  0.3067 -0.1361
12350TIP3    H158541   5.090   0.011  15.513 -1.1693  0.6352 -1.4550
12350TIP3    H258542   4.992   0.026  15.627  0.6307  0.1064  0.1993
12351TIP3   OH258543   5.678   6.172  14.129  0.5872 -0.1729  0.3416
12351TIP3    H158544   5.712   6.122  14.055  0.3956 -0.5239  0.4923
12351TIP3    H258545   5.748   6.234  14.149  0.1306  0.7758 -0.9334
12352TIP3   OH258546   6.468   4.161  12.174  0.2487  0.3594 -0.0677
12352TIP3    H158547   6.472   4.065  12.168 -0.4653  0.2295  1.3348
12352TIP3    H258548   6.476   4.191  12.083 -2.9178 -1.1737 -0.9186
12353TIP3   OH258549   6.511   5.778  17.212  0.4379  0.2461 -0.6106
12353TIP3    H158550   6.575   5.788  17.282 -0.0741  1.7598 -0.3523
12353TIP3    H258551   6.474   5.691  17.225  1.5047 -0.1222  0.0117
12354TIP3   OH258552   3.906   1.729  15.850  0.2633 -0.1017 -0.4949
12354TIP3    H158553   3.855   1.791  15.797 -1.3674 -2.6190 -1.9814
12354TIP3    H258554   3.992   1.726  15.808  1.1334  2.7751  0.9247
12355TIP3   OH258555   2.371   6.332   1.586 -0.0557  0.7091  0.0546
12355TIP3    H158556   2.303   6.348   1.651 -1.0602  0.8159 -0.9985
12355TIP3    H258557   2.348   6.388   1.512  0.9509  0.4434 -0.4748
12356TIP3   OH258558   5.422   2.860  13.919  0.1682 -0.5779  0.0709
12356TIP3    H158559   5.348   2.914  13.892 -0.5268 -0.5944  1.8395
12356TIP3    H258560   5.497   2.897  13.872 -0.0722  2.6607  2.0516
12357TIP3   OH258561   1.117   3.228  11.944 -0.0961  0.2320  0.0450
12357TIP3    H158562   1.130   3.278  12.025  0.5536  0.9011 -0.4639
12357TIP3    H258563   1.046   3.167  11.965 -0.2297  0.6933  0.9862
12358TIP3   OH258564   5.777   0.049   6.021  0.3549 -0.4203  0.8519
12358TIP3    H158565   5.760   0.067   6.114 -1.1643  0.7133  0.3890
12358TIP3    H258566   5.694   0.013   5.989  0.0549  1.5296 -0.6118
12359TIP3   OH258567   4.844   2.777   2.636  0.2971  0.2405  0.0691
12359TIP3    H158568   4.752   2.800   2.626  0.6720  1.7022 -0.0349
12359TIP3    H258569   4.868   2.810   2.722  1.3824  2.1466 -0.9247
12360TIP3   OH258570   1.395   5.126   0.570 -0.3159  0.5624  0.3652
12360TIP3    H158571   1.471   5.161   0.616  1.2092 -2.5330  0.3501
12360TIP3    H258572   1.396   5.170   0.485  1.2407  0.8504  0.5220
12361TIP3   OH258573   5.283   0.900   5.889 -0.1098 -0.1361  0.1492
12361TIP3    H158574   5.234   0.981   5.901  1.2495  0.6893  0.2773
12361TIP3    H258575   5.308   0.872   5.977  0.9734  0.2992 -0.0088
12362TIP3   OH258576   6.014   5.779   2.235 -0.2043  0.0359 -0.2281
12362TIP3    H158577   6.055   5.697   2.205  0.3167  0.8269 -1.7160
12362TIP3    H258578   6.079   5.847   2.215 -0.4626  0.7693  1.3843
12363TIP3   OH258579   6.074   5.614   5.683  0.3947  0.6083  0.7451
12363TIP3    H158580   6.019   5.691   5.676  3.2214  2.8449  2.1084
12363TIP3    H258581   6.094   5.590   5.592 -2.9101 -0.4217  0.2106
12364TIP3   OH258582   6.588   3.383  11.137 -0.2285 -0.1689  0.0890
12364TIP3    H158583   6.541   3.434  11.202 -0.6470 -0.4249 -0.0081
12364TIP3    H258584   6.646   3.326  11.188  0.7375  0.8808  0.1731
12365TIP3   OH258585   4.807   2.096  13.706  0.0613  0.1875  0.3110
12365TIP3    H158586   4.887   2.096  13.652 -0.2631 -0.9858 -0.1929
12365TIP3    H258587   4.749   2.157  13.662 -0.1540 -0.6713 -0.6142
12366TIP3   OH258588   5.934   0.489  15.491 -0.0234  0.2914 -0.0016
12366TIP3    H158589   6.018   0.445  15.505  0.5254  1.2242 -0.2859
12366TIP3    H258590   5.872   0.419  15.471  0.8897 -0.3171 -0.7051
12367TIP3   OH258591   3.993   6.773  12.026 -0.4597 -0.6388 -0.0530
12367TIP3    H158592   4.028   6.858  12.000  0.8131 -0.7676  1.2142
12367TIP3    H258593   3.954   6.789  12.112  1.3731 -1.7098  1.0053
12368TIP3   OH258594   0.215   0.468  10.993 -0.2378 -0.2453  0.0521
12368TIP3    H158595   0.304   0.470  10.957 -0.5850 -0.1918 -0.8005
12368TIP3    H258596   0.179   0.384  10.965 -0.6693 -0.0038 -0.1327
12369TIP3   OH258597   0.253   6.333  14.133 -0.5178  0.5575  0.0972
12369TIP3    H158598   0.167   6.321  14.174 -1.0684  1.4660 -0.7647
12369TIP3    H258599   0.243   6.412  14.080  0.5005  0.0054 -0.9310
12370TIP3   OH258600   0.032   5.010   6.492  0.1679 -0.1278  0.1255
12370TIP3    H158601   0.103   5.059   6.451  0.4213 -2.1530 -1.9245
12370TIP3    H258602  -0.029   5.077   6.522  2.5066  1.6094  1.1688
12371TIP3   OH258603   2.075   4.419   4.004 -0.1448  0.0491 -0.2949
12371TIP3    H158604   2.031   4.342   4.040 -0.0296  0.8366  1.6181
12371TIP3    H258605   2.011   4.489   4.013  0.4357  0.5735 -0.2376
12372TIP3   OH258606   0.995   0.921   0.381  0.0620 -0.0521 -0.3118
12372TIP3    H158607   0.919   0.932   0.324  0.5188 -0.8374 -1.0779
12372TIP3    H258608   1.070   0.918   0.321  0.7078  0.6788  0.4284
12373TIP3   OH258609   4.258   4.062  17.010 -0.1709  0.1194  0.7337
12373TIP3    H158610   4.274   3.993  17.074 -0.2473 -0.8678 -0.2918
12373TIP3    H258611   4.280   4.143  17.055 -1.3942 -0.4549  2.4006
12374TIP3   OH258612   0.790   0.114  15.634 -0.7028  0.4151 -0.3825
12374TIP3    H158613   0.731   0.153  15.569  0.7752  1.0847 -1.3272
12374TIP3    H258614   0.809   0.026  15.600  0.8674  1.1336 -1.3607
12375TIP3   OH258615   1.505   2.417  15.419 -0.0249 -0.3617 -0.3883
12375TIP3    H158616   1.587   2.368  15.426  0.7023  0.9563  0.4600
12375TIP3    H258617   1.506   2.452  15.329  1.0739  0.9121  0.1129
12376TIP3   OH258618   3.580   2.678  13.308  0.1128 -0.3966 -0.3345
12376TIP3    H158619   3.576   2.724  13.392  0.4978 -0.5635 -0.2238
12376TIP3    H258620   3.505   2.618  13.310 -0.7952  0.6899 -0.7665
12377TIP3   OH258621   6.016   0.037   0.084  0.1562 -0.1656 -0.6034
12377TIP3    H158622   6.045   0.102   0.149 -0.0169  1.1353 -1.7969
12377TIP3    H258623   5.999   0.089   0.005 -0.3767 -1.6269 -1.4578
12378TIP3   OH258624   5.390   5.132  13.880  0.0580 -0.4223 -0.5303
12378TIP3    H158625   5.357   5.094  13.962  1.8609 -0.7733  0.0476
12378TIP3    H258626   5.470   5.083  13.861  0.8570  1.1487 -1.3000
12379TIP3   OH258627   0.107   4.135  13.940  0.2103  0.6927  0.7436
12379TIP3    H158628   0.075   4.054  13.980 -1.0981  0.8612  0.0688
12379TIP3    H258629   0.183   4.108  13.888 -0.9851 -0.3459 -0.5211
12380TIP3   OH258630   3.636   3.187  16.471  0.0798 -0.2426 -0.0390
12380TIP3    H158631   3.595   3.181  16.385 -0.7652 -0.9914  0.4163
12380TIP3    H258632   3.647   3.281  16.485 -1.2437 -0.0444 -0.2643
12381TIP3   OH258633   1.302   5.562  12.502  0.8541  0.4156 -0.8278
12381TIP3    H158634   1.224   5.521  12.465  0.7976  0.0294 -0.2860
12381TIP3    H258635   1.318   5.638  12.446 -2.8800  3.4976  1.9235
12382TIP3   OH258636   2.242   3.482   4.342  0.5059  0.3972 -0.7396
12382TIP3    H158637   2.267   3.482   4.250  1.8373 -0.6886 -0.3963
12382TIP3    H258638   2.281   3.402   4.377  0.9323  1.3560  1.0159
12383TIP3   OH258639   6.382   6.698   3.149  0.1616  0.5700  0.5390
12383TIP3    H158640   6.412   6.748   3.224  0.6024  2.6565 -0.9742
12383TIP3    H258641   6.450   6.710   3.083  0.7299 -2.8176  0.4051
12384TIP3   OH258642   3.098   3.669   2.829 -0.9368 -0.0371  0.1910
12384TIP3    H158643   3.157   3.683   2.903 -1.1829 -0.5240  0.4804
12384TIP3    H258644   3.046   3.750   2.826  0.6637  0.9803 -0.9253
12385TIP3   OH258645   4.670   2.393   1.272 -0.2698 -0.5271  0.4784
12385TIP3    H158646   4.636   2.305   1.255  0.8602 -0.7819 -0.5293
12385TIP3    H258647   4.753   2.379   1.317 -0.1716  0.0387  0.4804
12386TIP3   OH258648   2.162   3.640  15.627  0.3326  0.1098 -0.0539
12386TIP3    H158649   2.170   3.711  15.563  1.6470  0.3294  0.3412
12386TIP3    H258650   2.252   3.613  15.644  0.2084  1.6629  3.4906
12387TIP3   OH258651   5.414   3.403  14.670  0.3515 -0.0357 -0.5203
12387TIP3    H158652   5.489   3.412  14.611 -0.7442  0.3780 -1.8463
12387TIP3    H258653   5.369   3.487  14.666 -0.6633 -0.5647 -0.3523
12388TIP3   OH258654   0.889   0.474  11.202  0.0019  0.1081  0.0772
12388TIP3    H158655   0.818   0.493  11.140 -0.6796  0.5228  0.9776
12388TIP3    H258656   0.846   0.471  11.287  0.6314 -2.2676  0.3439
12389TIP3   OH258657   4.116   0.013   5.891 -0.5663 -0.2741  0.3130
12389TIP3    H158658   4.066   0.029   5.971 -1.5635  1.6621 -0.6436
12389TIP3    H258659   4.052   0.027   5.820  1.0254  1.1510 -0.8983
12390TIP3   OH258660   5.100   2.144   4.003 -0.2655 -0.1452 -0.1565
12390TIP3    H158661   5.109   2.235   3.975 -0.4983 -0.6523 -1.9167
12390TIP3    H258662   5.060   2.150   4.090  1.0764  1.4731  0.3895
12391TIP3   OH258663   0.694   1.293  14.286  0.3963 -0.1270 -0.0878
12391TIP3    H158664   0.666   1.202  14.277 -0.1093  0.2823 -3.4236
12391TIP3    H258665   0.627   1.344  14.240  1.9259  1.7055 -0.3700
12392TIP3   OH258666   4.488   2.597   1.335  0.5346 -0.2476  0.2236
12392TIP3    H158667   4.542   2.675   1.347 -0.8308  0.7398 -0.0326
12392TIP3    H258668   4.551   2.526   1.325  1.8015  1.0647 -1.2571
12393TIP3   OH258669   6.225   6.308   0.405  0.4239  0.0796  0.4944
12393TIP3    H158670   6.203   6.401   0.412  0.1679  0.0299  0.3869
12393TIP3    H258671   6.265   6.287   0.489 -0.5138  0.0299  0.9392
12394TIP3   OH258672   1.821   6.782   2.495  0.4256  0.2666  0.4068
12394TIP3    H158673   1.751   6.795   2.431 -0.0637 -3.1533  0.1544
12394TIP3    H258674   1.801   6.697   2.536  4.3070 -0.7191  0.4698
12395TIP3   OH258675   1.976   3.399  16.446 -0.5336 -0.4661 -0.1854
12395TIP3    H158676   1.898   3.451  16.430 -1.0066 -1.1024  0.0470
12395TIP3    H258677   1.994   3.356  16.362 -1.2233 -1.3842  0.1350
12396TIP3   OH258678   1.459   5.715  15.884  0.3260  0.0138 -0.0647
12396TIP3    H158679   1.541   5.674  15.910 -0.3528 -0.4705  1.3796
12396TIP3    H258680   1.462   5.717  15.789  0.7337 -2.6452 -0.1401
12397TIP3   OH258681   2.314   3.401   4.613  0.0406 -0.4812  0.0357
12397TIP3    H158682   2.286   3.310   4.630 -2.2126  0.3033  0.7956
12397TIP3    H258683   2.266   3.453   4.678  1.0944  1.2987 -0.5734
12398TIP3   OH258684   5.820   6.545  13.191  0.3381 -0.0214 -0.5234
12398TIP3    H158685   5.730   6.574  13.206 -0.3272 -2.2689 -0.0566
12398TIP3    H258686   5.836   6.564  13.098  0.4368  3.1081  0.0880
12399TIP3   OH258687   4.121   4.909   1.274 -0.3945  0.4495  0.2352
12399TIP3    H158688   4.057   4.855   1.321  1.4863 -1.4007  0.6936
12399TIP3    H258689   4.174   4.948   1.343  1.6617 -1.3874 -0.2763
12400TIP3   OH258690   0.510   4.301  11.380 -0.2616  0.3090  0.2363
12400TIP3    H158691   0.460   4.345  11.450 -0.1821  1.2729 -0.3108
12400TIP3    H258692   0.443   4.273  11.318 -0.3806 -0.9979  0.9321
12401TIP3   OH258693   0.592   3.954   2.350  0.4382  0.1858 -0.1912
12401TIP3    H158694   0.509   3.909   2.363  0.7696 -0.1502  0.7701
12401TIP3    H258695   0.632   3.959   2.437  0.4345  2.2894 -0.2725
12402TIP3   OH258696   0.315   5.755   6.209 -0.4515 -0.7694 -0.4943
12402TIP3    H158697   0.382   5.752   6.141 -0.7188 -0.5197 -0.7693
12402TIP3    H258698   0.364   5.743   6.291 -0.1824 -1.5353 -0.7593
12403TIP3   OH258699   0.597   1.748   5.000 -0.5220 -0.1594  0.4338
12403TIP3    H158700   0.505   1.768   4.990 -1.0476 -2.3093  0.6038
12403TIP3    H258701   0.599   1.657   5.032  1.6367 -0.3209 -0.0214
12404TIP3   OH258702   2.291   4.350  12.285 -0.0655  0.4622  0.2520
12404TIP3    H158703   2.333   4.265  12.290 -0.4773  0.2730  0.5699
12404TIP3    H258704   2.342   4.399  12.220  0.6627  0.2595  0.6691
12405TIP3   OH258705   3.885   4.503  12.693 -0.8243  0.2184  0.4877
12405TIP3    H158706   3.936   4.564  12.640 -0.0260  0.3645  1.4061
12405TIP3    H258707   3.862   4.432  12.633 -0.1515  0.5005 -0.1096
12406TIP3   OH258708   5.766   0.176   5.279 -0.1880 -0.2393  0.2088
12406TIP3    H158709   5.728   0.176   5.367 -0.6561  1.4708  0.0213
12406TIP3    H258710   5.744   0.262   5.243  0.5830 -0.6674 -1.3333
12407TIP3   OH258711   3.458   0.505  17.286  0.2635 -0.3463  0.4802
12407TIP3    H158712   3.461   0.576  17.222  0.2252 -1.3177 -0.6286
12407TIP3    H258713   3.527   0.525  17.348  1.9332 -0.6221 -1.2239
12408TIP3   OH258714   3.509   2.220  11.670  0.4326  0.5862  0.1230
12408TIP3    H158715   3.475   2.293  11.619 -0.8390  0.5642  0.8970
12408TIP3    H258716   3.589   2.252  11.709  0.0824  1.4386  0.1482
12409TIP3   OH258717   2.447   3.586  15.620 -0.0913 -0.1675  0.2237
12409TIP3    H158718   2.460   3.671  15.577  0.0042 -0.2728  0.0421
12409TIP3    H258719   2.536   3.551  15.629 -0.1545 -0.3691  0.0519
12410TIP3   OH258720   6.428   2.979  15.048 -0.1782  0.3041  0.6134
12410TIP3    H158721   6.496   2.976  15.114  0.2526  1.4113  0.2222
12410TIP3    H258722   6.405   3.072  15.041 -2.2063 -0.1271  1.2317
12411TIP3   OH258723   5.639   1.334  16.894  0.0306 -0.1077  0.2988
12411TIP3    H158724   5.709   1.363  16.835  0.5600  1.4743  1.6436
12411TIP3    H258725   5.673   1.352  16.982 -1.8842  0.3096  0.9909
12412TIP3   OH258726   6.715   3.412   2.326  0.1692 -0.0472  0.1762
12412TIP3    H158727   6.619   3.409   2.318 -0.1467  2.0461  2.5361
12412TIP3    H258728   6.738   3.497   2.288  0.8531  0.4191  1.6217
12413TIP3   OH258729   3.560   4.452  14.090  0.3038 -0.1811  0.3542
12413TIP3    H158730   3.615   4.416  14.021  1.1004  2.6504 -0.5427
12413TIP3    H258731   3.471   4.425  14.066  0.9295 -2.2914  0.2436
12414TIP3   OH258732   2.721   4.033  16.680  0.1662 -0.0481  0.2334
12414TIP3    H158733   2.644   4.009  16.628  0.7968  1.6412 -1.5210
12414TIP3    H258734   2.791   4.044  16.616  1.0799  1.5760  1.4883
12415TIP3   OH258735   4.100   5.410  17.056  0.4944 -0.0620 -0.6602
12415TIP3    H158736   4.135   5.347  16.993  0.2997 -0.7698 -0.0638
12415TIP3    H258737   4.005   5.398  17.053  0.5473 -0.9249  0.6113
12416TIP3   OH258738   3.316   3.890   3.627  0.8652  0.0443 -0.3161
12416TIP3    H158739   3.328   3.812   3.681  0.5884 -0.0705 -0.4169
12416TIP3    H258740   3.244   3.937   3.669 -0.2339 -0.7097 -1.3301
12417TIP3   OH258741   0.428   1.760   4.451 -0.0308 -0.1636 -0.2048
12417TIP3    H158742   0.459   1.715   4.529 -0.7231 -0.3716 -0.0411
12417TIP3    H258743   0.363   1.823   4.484 -1.2248 -1.1106 -0.7270
12418TIP3   OH258744   5.453   6.716  13.014 -0.7063 -0.1370 -0.2329
12418TIP3    H158745   5.400   6.796  13.002 -0.0623  0.2100 -0.7921
12418TIP3    H258746   5.516   6.718  12.942 -0.0892 -0.6820  0.2905
12419TIP3   OH258747   5.101   3.951  17.194  0.3768  0.0334 -0.1185
12419TIP3    H158748   5.172   3.942  17.258 -0.2793 -1.3278  0.4416
12419TIP3    H258749   5.021   3.947  17.247 -0.1504 -0.1155 -0.9228
12420TIP3   OH258750   0.356   2.142  13.488  0.6972 -0.7834  0.2154
12420TIP3    H158751   0.338   2.180  13.574  0.5764 -1.4558  0.4969
12420TIP3    H258752   0.375   2.050  13.507 -0.5235 -1.2157 -0.6030
12421TIP3   OH258753   2.628   2.515  17.147  0.0395  0.4995 -0.0608
12421TIP3    H158754   2.692   2.473  17.206 -0.4396 -1.4114 -0.8766
12421TIP3    H258755   2.648   2.479  17.061 -3.2496 -1.4559 -0.0526
12422TIP3   OH258756   4.846   0.694  13.088 -0.1189 -0.2805  0.1803
12422TIP3    H158757   4.893   0.669  13.008 -1.4529  0.2139 -0.7666
12422TIP3    H258758   4.908   0.750  13.136  1.3614 -2.0151  0.3738
12423TIP3   OH258759   5.077   5.704   2.148 -0.0297 -0.0926 -0.0530
12423TIP3    H158760   5.163   5.687   2.186 -0.2645 -0.7897  0.1804
12423TIP3    H258761   5.090   5.698   2.054 -0.2307 -2.2787  0.0304
12424TIP3   OH258762   2.705   3.271   4.807 -0.3961 -0.1290 -0.2983
12424TIP3    H158763   2.732   3.234   4.723  2.1834  1.1109 -0.0851
12424TIP3    H258764   2.758   3.350   4.816 -0.2480 -0.4946  2.7022
12425TIP3   OH258765   1.879   6.557  13.032  0.9021 -0.0870 -0.1612
12425TIP3    H158766   1.789   6.529  13.014  1.3647 -1.0620 -1.0125
12425TIP3    H258767   1.870   6.624  13.099 -0.4612 -0.2220 -0.1915
12426TIP3   OH258768   2.820   4.513   4.996 -0.2325 -0.1213 -0.4904
12426TIP3    H158769   2.857   4.588   4.949 -2.4592  0.6144 -1.1692
12426TIP3    H258770   2.734   4.543   5.025 -1.0544 -2.3261 -0.5323
12427TIP3   OH258771   5.400   1.513   4.697  0.2362  0.1068  0.7111
12427TIP3    H158772   5.312   1.491   4.727  0.5153 -0.6380  0.9936
12427TIP3    H258773   5.396   1.607   4.679 -1.4113 -0.4243 -2.0488
12428TIP3   OH258774   2.038   1.008   4.136 -0.3623 -0.1657 -0.1034
12428TIP3    H158775   2.004   1.052   4.213  0.6032 -2.1736  1.5363
12428TIP3    H258776   1.994   0.922   4.136  2.1048 -1.4808  0.1702
12429TIP3   OH258777   3.706   0.071  10.444  0.6836 -0.4555  0.1934
12429TIP3    H158778   3.688  -0.019  10.471  1.4993  0.4851  4.3041
12429TIP3    H258779   3.798   0.071  10.419  0.6321 -0.8252  0.0132
12430TIP3   OH258780   4.722   4.063   6.506  0.2928  0.2332  0.1345
12430TIP3    H158781   4.673   4.135   6.546  1.1060 -0.5765  2.7423
12430TIP3    H258782   4.783   4.106   6.447 -0.6288  1.5475  0.1070
12431TIP3   OH258783   6.792   5.829  11.891  0.0536  0.4586 -0.4975
12431TIP3    H158784   6.759   5.758  11.837  0.0915  0.2024 -0.1825
12431TIP3    H258785   6.714   5.867  11.931  0.0333  0.5928 -0.6623
12432TIP3   OH258786   6.428   5.958  13.332 -0.0252 -0.3646 -0.2882
12432TIP3    H158787   6.511   5.910  13.333  0.0156 -0.4284 -3.2704
12432TIP3    H258788   6.361   5.890  13.324 -0.3212 -0.2581  1.2280
12433TIP3   OH258789   0.296   3.421  14.536  1.2834 -0.8562  0.5650
12433TIP3    H158790   0.353   3.441  14.462  1.4559 -0.2886  0.8473
12433TIP3    H258791   0.302   3.326  14.546  2.3822 -0.7800  0.7450
12434TIP3   OH258792   6.080   4.948   1.054  0.5640 -0.3627 -0.0368
12434TIP3    H158793   6.010   5.005   1.023 -1.1314 -2.1342  0.3793
12434TIP3    H258794   6.087   4.880   0.987 -0.1758 -1.8190  1.3014
12435TIP3   OH258795   6.811   2.363   3.680  0.4761  0.3949 -0.4750
12435TIP3    H158796   6.799   2.310   3.759 -0.1785 -0.5609 -1.2116
12435TIP3    H258797   6.891   2.413   3.697  0.1192  0.5137  0.9663
12436TIP3   OH258798   3.463   4.875  12.385 -0.4366  0.4196 -0.1101
12436TIP3    H158799   3.528   4.911  12.445 -0.1465  0.6259 -0.5531
12436TIP3    H258800   3.497   4.894  12.298 -0.3164 -0.8498 -0.3487
12437TIP3   OH258801   1.326   1.661   5.204  0.0834 -0.0207 -0.5348
12437TIP3    H158802   1.266   1.733   5.181  0.2437  0.0435 -0.7496
12437TIP3    H258803   1.284   1.619   5.279  1.7977  2.5917  1.9897
12438TIP3   OH258804   2.368   2.881   5.259 -0.1731  0.0252  0.4009
12438TIP3    H158805   2.368   2.976   5.275  0.8441  0.5717 -2.5168
12438TIP3    H258806   2.285   2.850   5.295 -0.6527  2.0764  1.1145
12439TIP3   OH258807   5.865   1.887  13.407  0.0186  0.2230 -0.3128
12439TIP3    H158808   5.921   1.948  13.360  0.6012  0.3116  0.4997
12439TIP3    H258809   5.794   1.941  13.441  0.2047  0.3385 -0.1145
12440TIP3   OH258810   6.590   0.540  14.254  0.2035  0.3232 -0.0870
12440TIP3    H158811   6.568   0.472  14.190 -0.2570  1.8032 -1.5371
12440TIP3    H258812   6.683   0.528  14.271 -0.3096 -2.0074  1.3101
12441TIP3   OH258813   6.754   1.097  16.099 -0.0245  0.0996  0.0352
12441TIP3    H158814   6.714   1.054  16.175  0.4892  0.5260  0.5488
12441TIP3    H258815   6.779   1.025  16.041 -0.3470 -0.2332  0.3022
12442TIP3   OH258816   6.488   5.699  16.261  0.3560 -0.1910  0.5443
12442TIP3    H158817   6.441   5.660  16.188  1.3744 -0.9749  0.3005
12442TIP3    H258818   6.422   5.710  16.329 -0.5897  0.5178 -0.4818
12443TIP3   OH258819   3.186   0.622   1.991  0.1071  0.1744  0.3584
12443TIP3    H158820   3.150   0.649   2.075 -0.2906  0.3983  0.1156
12443TIP3    H258821   3.200   0.528   2.001  0.3288  0.2482  0.7730
12444TIP3   OH258822   3.874   2.561   5.581  0.1504  0.0594 -0.0785
12444TIP3    H158823   3.966   2.540   5.563  0.3796  0.9581  0.0073
12444TIP3    H258824   3.835   2.477   5.606  0.6845 -0.5256 -1.1623
12445TIP3   OH258825   6.710   0.194  14.488  0.5006  0.1796  0.7527
12445TIP3    H158826   6.637   0.144  14.453  0.3069  1.1502 -0.2902
12445TIP3    H258827   6.776   0.192  14.419  0.7131  0.8743  0.9270
12446TIP3   OH258828   0.117   4.469  14.749 -0.5990  0.5102 -0.0300
12446TIP3    H158829   0.036   4.428  14.780 -0.3120  0.9193  1.3135
12446TIP3    H258830   0.148   4.519  14.824  0.4709  1.0195 -0.8052
12447TIP3   OH258831   1.408   3.287  13.756  0.4777 -0.6050  0.0447
12447TIP3    H158832   1.355   3.228  13.809 -1.2835  0.0999 -0.9229
12447TIP3    H258833   1.480   3.233  13.724 -1.8013 -2.5630 -1.8906
12448TIP3   OH258834   3.149   2.498   5.579  0.3513  0.0727 -0.0711
12448TIP3    H158835   3.229   2.473   5.532 -1.1233 -2.5730 -1.3605
12448TIP3    H258836   3.151   2.593   5.581  1.2928  0.2570 -4.2220
12449TIP3   OH258837   1.374   6.287  12.922 -0.6031 -0.2319 -0.3607
12449TIP3    H158838   1.374   6.227  12.847 -2.0162  0.4731 -0.9519
12449TIP3    H258839   1.441   6.352  12.901  1.1292 -1.7432  0.4090
12450TIP3   OH258840   3.087   4.684   4.292  0.1309 -0.0344 -0.0578
12450TIP3    H158841   3.148   4.755   4.315  0.2899 -0.1074 -0.2559
12450TIP3    H258842   3.040   4.717   4.216  1.3789 -0.8154 -1.1901
12451TIP3   OH258843   5.028   6.138  14.490 -0.3117 -0.0515 -0.2809
12451TIP3    H158844   5.036   6.200  14.418 -1.8454  1.4011  0.7715
12451TIP3    H258845   5.022   6.192  14.569  2.1360 -1.6147  1.0655
12452TIP3   OH258846   3.525   4.604  16.441  0.0799  0.4070  0.1275
12452TIP3    H158847   3.459   4.601  16.511  0.6086 -0.9477  0.5771
12452TIP3    H258848   3.604   4.635  16.485  0.6615 -1.3322  0.3502
12453TIP3   OH258849   0.141   0.403   0.959  0.8815  0.4606  0.7239
12453TIP3    H158850   0.188   0.476   0.918 -0.8303  0.3442 -1.5605
12453TIP3    H258851   0.210   0.346   0.993  2.3317  1.4940 -0.4159
12454TIP3   OH258852   1.455   6.291   5.336  0.2737  0.2163  0.0820
12454TIP3    H158853   1.421   6.288   5.426  1.7213  0.9238  0.6838
12454TIP3    H258854   1.386   6.253   5.282 -0.8712  0.3548  1.4272
12455TIP3   OH258855   0.731   0.412  11.747  0.4437 -0.1446  0.0699
12455TIP3    H158856   0.815   0.456  11.760  0.5955  0.0499 -1.4453
12455TIP3    H258857   0.751   0.336  11.692 -0.4698  0.3667 -1.0064
12456TIP3   OH258858   1.844   5.765  15.638 -0.0213  0.5037 -0.2354
12456TIP3    H158859   1.886   5.682  15.663 -1.8735 -0.2565  0.5265
12456TIP3    H258860   1.866   5.825  15.710  0.2106  0.2751 -0.1128
12457TIP3   OH258861   1.822   0.208  11.970 -0.2474  0.0931  0.6535
12457TIP3    H158862   1.822   0.113  11.968 -1.8404  0.0838  0.4957
12457TIP3    H258863   1.889   0.231  12.034  1.8040 -1.0698 -1.0032
12458TIP3   OH258864   3.073   3.239   2.815  0.3296 -0.8960  0.1958
12458TIP3    H158865   3.079   3.310   2.751  4.0683 -0.1163  1.2566
12458TIP3    H258866   3.055   3.283   2.898  0.8630 -1.3610  0.5597
12459TIP3   OH258867   2.379   3.630   3.462 -0.1549 -0.7356  0.2363
12459TIP3    H158868   2.395   3.670   3.376  2.7852  2.6435  2.2332
12459TIP3    H258869   2.288   3.651   3.482 -0.1490  0.5497 -0.9853
12460TIP3   OH258870   6.337   0.548   3.954 -0.0701 -0.1904  0.0789
12460TIP3    H158871   6.281   0.624   3.938  0.6969  0.5063  0.6635
12460TIP3    H258872   6.423   0.575   3.921  0.0223 -1.0868 -0.4092
12461TIP3   OH258873   1.413   4.497   5.500 -0.4759 -0.3481  0.2302
12461TIP3    H158874   1.394   4.585   5.467  1.1564  0.3416  1.0195
12461TIP3    H258875   1.425   4.510   5.595  0.4731 -1.2845  0.2489
12462TIP3   OH258876   0.606   1.720   5.842  0.2218 -0.5696  0.0087
12462TIP3    H158877   0.669   1.785   5.811  0.9093 -0.6924  1.1308
12462TIP3    H258878   0.521   1.757   5.820  0.6538  0.0570 -0.6232
12463TIP3   OH258879   5.554   6.229   1.256  0.0318  0.6315 -0.0701
12463TIP3    H158880   5.600   6.229   1.172 -0.1991  1.0348 -0.2001
12463TIP3    H258881   5.599   6.296   1.308  0.5538 -0.0293  0.3444
12464TIP3   OH258882   0.310   1.253  12.059 -0.2082  0.3406 -0.2516
12464TIP3    H158883   0.262   1.304  12.124 -0.6926  0.4641 -0.7022
12464TIP3    H258884   0.251   1.250  11.983 -1.5434 -3.4941  0.8109
12465TIP3   OH258885   0.777   3.563   4.220 -0.3061 -0.1583  0.5846
12465TIP3    H158886   0.688   3.560   4.253  0.0858 -1.0190  1.5646
12465TIP3    H258887   0.833   3.557   4.297  0.6095 -0.3852 -0.0781
12466TIP3   OH258888   0.484   5.760   3.399  0.3553  0.3601  0.0539
12466TIP3    H158889   0.504   5.675   3.438  1.9553  0.0355 -1.4045
12466TIP3    H258890   0.569   5.799   3.381 -0.3546  1.5228 -0.8825
12467TIP3   OH258891   3.918   4.295  12.483  0.2235  0.0908 -0.2674
12467TIP3    H158892   3.941   4.286  12.390  1.3282 -0.2734  0.0239
12467TIP3    H258893   3.882   4.209  12.507  1.2920 -0.2927 -0.0061
12468TIP3   OH258894   0.304   2.484  12.414 -0.3376  0.2823 -0.1647
12468TIP3    H158895   0.264   2.530  12.341  0.8463 -0.1086 -1.0701
12468TIP3    H258896   0.366   2.548  12.451 -2.6313  1.3445  2.0227
12469TIP3   OH258897   2.779   2.699  14.551 -0.8052  0.3247  0.4505
12469TIP3    H158898   2.750   2.628  14.607 -0.0161  0.3636  0.9069
12469TIP3    H258899   2.788   2.659  14.464 -4.1682  0.7584 -0.1580
12470TIP3   OH258900   3.633   6.672   3.595 -0.1477 -0.4462  0.7309
12470TIP3    H158901   3.545   6.677   3.559  0.0154 -0.8745  0.2695
12470TIP3    H258902   3.630   6.598   3.655 -0.5421  0.5403  1.9556
12471TIP3   OH258903   1.737   3.897   0.310 -0.0351  0.1906 -0.7043
12471TIP3    H158904   1.809   3.835   0.319 -0.5696 -0.1209  1.7799
12471TIP3    H258905   1.759   3.969   0.369 -1.7032  0.0895  0.1042
12472TIP3   OH258906   5.866   1.307  11.360  0.0137  0.3795 -0.2892
12472TIP3    H158907   5.853   1.340  11.271  0.2269 -0.1645 -0.5255
12472TIP3    H258908   5.942   1.250  11.353 -2.2060 -2.6726 -0.5991
12473TIP3   OH258909   6.295   0.573   2.844  0.0476 -0.1378 -0.2404
12473TIP3    H158910   6.314   0.534   2.759 -0.6695  0.7810 -0.8349
12473TIP3    H258911   6.236   0.510   2.887  0.6916 -0.7695 -0.2757
12474TIP3   OH258912   0.840   0.963   2.093  0.3510  0.4121 -0.2288
12474TIP3    H158913   0.854   1.045   2.140  2.4052  1.0070 -1.8230
12474TIP3    H258914   0.866   0.895   2.156 -0.0071  1.0520  0.6122
12475TIP3   OH258915   4.314   6.098  11.795 -0.2088 -0.3785 -0.6801
12475TIP3    H158916   4.300   6.054  11.711 -0.1066 -2.4176  0.3385
12475TIP3    H258917   4.403   6.075  11.820 -1.3034 -2.4774  1.4861
12476TIP3   OH258918   6.117   5.018   3.004  0.2390 -0.3501 -0.0066
12476TIP3    H158919   6.033   4.972   3.015  0.1320 -0.5048 -1.3180
12476TIP3    H258920   6.104   5.071   2.925  1.7354 -1.2486 -0.8839
12477TIP3   OH258921   1.772   1.841  17.014  0.2613  0.1174 -0.3357
12477TIP3    H158922   1.770   1.919  17.069 -0.3129  0.5861 -1.0089
12477TIP3    H258923   1.698   1.788  17.045  0.0266  0.3157 -0.5473
12478TIP3   OH258924   5.684   3.337   1.940  0.2057 -0.5345  0.5268
12478TIP3    H158925   5.599   3.316   1.903 -0.6376  0.6662  1.7437
12478TIP3    H258926   5.691   3.280   2.017  0.1080 -0.0006  0.9351
12479TIP3   OH258927   5.044   0.655  12.914 -0.4932  0.1273 -0.3860
12479TIP3    H158928   5.068   0.648  12.822  0.4002  0.1886 -0.1633
12479TIP3    H258929   5.112   0.607  12.961 -0.3318  1.0159  0.3255
12480TIP3   OH258930   0.576   0.367   0.806 -0.2137 -0.2141  0.4562
12480TIP3    H158931   0.495   0.413   0.828 -0.9483 -0.8684 -0.8107
12480TIP3    H258932   0.577   0.291   0.865 -0.9685 -0.6656 -0.0915
12481TIP3   OH258933   4.422   0.629   3.964 -0.2498  0.6032 -0.1696
12481TIP3    H158934   4.373   0.703   3.928  1.0636  1.8299  0.5092
12481TIP3    H258935   4.507   0.666   3.988  1.2212 -1.5869 -1.8238
12482TIP3   OH258936   4.098   5.650   2.936  0.1681 -0.1235  0.2473
12482TIP3    H158937   4.015   5.603   2.926  0.6533 -0.6298 -1.5669
12482TIP3    H258938   4.149   5.596   2.996 -1.2607  0.8316  2.3733
12483TIP3   OH258939   4.071   4.429  15.312 -0.9995  0.4073  0.0286
12483TIP3    H158940   3.992   4.449  15.363 -0.6833  0.4392  0.5144
12483TIP3    H258941   4.041   4.425  15.222 -1.5869  0.2641  0.2282
12484TIP3   OH258942   2.549   6.775   3.187 -0.2328  0.0308 -0.3999
12484TIP3    H158943   2.546   6.827   3.267  0.5986  2.3404 -1.7840
12484TIP3    H258944   2.573   6.687   3.215  1.3540  1.1168  1.7530
12485TIP3   OH258945   3.461   1.230   2.749 -0.2344  0.7893 -0.1671
12485TIP3    H158946   3.480   1.212   2.657 -0.3382  2.2332 -0.4907
12485TIP3    H258947   3.366   1.220   2.757 -0.1361 -0.0896 -0.0305
12486TIP3   OH258948   3.440   2.433  12.456 -0.3221  0.8008 -0.2486
12486TIP3    H158949   3.354   2.429  12.415 -0.8259  0.3925  0.8237
12486TIP3    H258950   3.498   2.465  12.387 -1.6491  2.8379 -0.4861
12487TIP3   OH258951   5.078   5.145   2.241 -0.0243  0.0438 -0.1953
12487TIP3    H158952   5.020   5.211   2.203 -1.5332 -0.2663  1.4910
12487TIP3    H258953   5.098   5.178   2.328 -2.4082 -2.6046  1.4508
12488TIP3   OH258954   4.646   6.055  12.364 -0.1825 -0.6327 -0.3452
12488TIP3    H158955   4.608   6.020  12.284 -2.0140 -0.7632  0.5457
12488TIP3    H258956   4.571   6.078  12.418  1.0054 -0.9821  1.5177
12489TIP3   OH258957   2.625   1.159  15.959  0.0535 -0.0007 -0.3398
12489TIP3    H158958   2.686   1.191  16.026  0.0944 -0.9637  0.0850
12489TIP3    H258959   2.560   1.230  15.951  0.6935  0.6214 -0.1182
12490TIP3   OH258960   5.095   5.562   0.144 -0.3247  0.3979  0.0003
12490TIP3    H158961   5.179   5.549   0.101 -0.3014  2.6624 -0.6603
12490TIP3    H258962   5.031   5.561   0.073 -0.5474  1.5968  0.1750
12491TIP3   OH258963   0.724   1.500   4.045  0.2032  0.6384  0.0548
12491TIP3    H158964   0.750   1.563   4.113 -0.6223  0.5020  0.4984
12491TIP3    H258965   0.801   1.443   4.035  0.8326  1.5189 -0.1241
12492TIP3   OH258966   1.137   3.254   0.100 -0.2667 -0.1828 -0.1352
12492TIP3    H158967   1.169   3.344   0.096 -0.9272  0.0594 -0.0938
12492TIP3    H258968   1.042   3.263   0.096 -0.3623 -0.8339  0.6506
12493TIP3   OH258969   0.289   3.443  14.849 -0.4091 -0.0837 -0.2044
12493TIP3    H158970   0.197   3.452  14.875 -0.6841 -2.9797  0.0417
12493TIP3    H258971   0.286   3.379  14.777  1.2885  0.8070 -1.0752
12494TIP3   OH258972   2.653   3.360  12.327 -0.1420  0.1067 -0.5240
12494TIP3    H158973   2.610   3.376  12.411 -1.4699 -0.3522 -1.1089
12494TIP3    H258974   2.594   3.397  12.262  0.7389  0.1980 -1.2810
12495TIP3   OH258975   6.176   4.533  11.561  0.5646 -0.5648 -0.6131
12495TIP3    H158976   6.259   4.498  11.530 -0.3275 -1.3274 -2.1786
12495TIP3    H258977   6.128   4.557  11.482 -0.9545 -0.6925  0.2417
12496TIP3   OH258978   3.726   4.256  16.765 -0.1754  0.4630  0.4234
12496TIP3    H158979   3.779   4.330  16.736  0.6506 -0.1512  0.3522
12496TIP3    H258980   3.746   4.186  16.703  0.0362 -0.2216  1.2540
12497TIP3   OH258981   5.411   4.748   1.433 -0.0049 -0.0446  0.7352
12497TIP3    H158982   5.415   4.656   1.406 -2.1913 -0.3780  1.4036
12497TIP3    H258983   5.499   4.782   1.417  0.7367 -2.1596  0.1521
12498TIP3   OH258984   3.936   4.405  15.075 -0.6974  0.4944 -0.2119
12498TIP3    H158985   3.847   4.383  15.050 -0.5137 -1.0793  0.5134
12498TIP3    H258986   3.988   4.391  14.996 -1.3807  3.4447 -1.2598
12499TIP3   OH258987   2.602   3.674  16.843 -0.0687  0.0966  0.0196
12499TIP3    H158988   2.549   3.609  16.890 -0.0877 -0.1993 -0.4041
12499TIP3    H258989   2.624   3.630  16.761  1.4357 -0.0611  0.4979
12500TIP3   OH258990   0.659   5.798   1.906  0.1023  0.2673 -0.2172
12500TIP3    H158991   0.663   5.795   1.811  0.1300  1.6671 -0.2714
12500TIP3    H258992   0.615   5.880   1.926  1.5735  0.7981  0.9898
12501TIP3   OH258993   1.506   5.303   0.776 -0.1632  0.4865 -0.7342
12501TIP3    H158994   1.589   5.350   0.781  0.5519 -0.9115  0.8931
12501TIP3    H258995   1.467   5.313   0.862  0.8461 -3.3265  0.2709
12502TIP3   OH258996   0.347   1.271  16.913 -0.1046  0.5909 -0.3784
12502TIP3    H158997   0.323   1.352  16.867  1.9565  0.7886 -1.1684
12502TIP3    H258998   0.443   1.270  16.911 -0.0501 -0.6225  1.8517
12503TIP3   OH258999   2.611   4.017   0.808  0.6742 -0.1501  0.0014
12503TIP3    H159000   2.692   3.996   0.853  0.5536 -0.7447 -0.0588
12503TIP3    H259001   2.556   3.940   0.820 -0.2452  0.6380  0.8700
12504TIP3   OH259002   5.504   1.400   0.939  0.2002  0.1396 -0.7386
12504TIP3    H159003   5.587   1.420   0.895 -0.0552  0.4186 -1.0934
12504TIP3    H259004   5.444   1.468   0.908 -0.2330 -0.2257 -0.6934
12505TIP3   OH259005   4.251   4.927   4.536 -0.1142 -0.1936  0.2958
12505TIP3    H159006   4.313   4.952   4.467 -1.4209  2.6423  0.0779
12505TIP3    H259007   4.185   4.875   4.491 -0.0273  0.1703 -0.2627
12506TIP3   OH259008   6.643   2.186   1.863 -0.3452  0.5240 -0.5078
12506TIP3    H159009   6.687   2.250   1.919  0.3929 -1.4224  1.2181
12506TIP3    H259010   6.672   2.101   1.896 -0.8612 -0.7161 -3.0898
12507TIP3   OH259011   6.264   1.851   0.317  0.3425 -0.0709  0.2879
12507TIP3    H159012   6.340   1.909   0.326 -0.1882  0.4886  1.2380
12507TIP3    H259013   6.189   1.907   0.335 -0.1474 -1.1608  1.7611
12508TIP3   OH259014   4.081   3.677  12.470  0.5084  0.2302 -0.1043
12508TIP3    H159015   4.092   3.771  12.463 -1.6034  0.4401 -0.9665
12508TIP3    H259016   4.123   3.653  12.553 -1.7126  2.3819  1.6852
12509TIP3   OH259017   2.783   2.843   2.623  0.6700  0.1389 -0.2807
12509TIP3    H159018   2.842   2.913   2.598  1.3753 -0.9056 -1.5961
12509TIP3    H259019   2.743   2.873   2.705  1.7570  1.5854 -0.2719
12510TIP3   OH259020   4.145   1.242  12.022 -0.0384  0.3685 -0.3472
12510TIP3    H159021   4.154   1.304  12.094 -0.6844 -0.5532  0.5478
12510TIP3    H259022   4.057   1.206  12.033 -1.2369  2.2058 -3.2187
12511TIP3   OH259023   1.070   4.815   6.054 -0.1038 -0.3628  0.2319
12511TIP3    H159024   1.050   4.835   5.963  0.6250  0.5585  0.2613
12511TIP3    H259025   0.984   4.801   6.095 -0.5475  0.9262 -0.2268
12512TIP3   OH259026   3.293   4.514   4.968 -0.1670 -0.6369  0.6626
12512TIP3    H159027   3.382   4.544   4.987  0.3436 -0.4208 -1.8765
12512TIP3    H259028   3.238   4.592   4.977  0.6329  0.3733 -2.3419
12513TIP3   OH259029   6.367   2.047   2.530 -0.4229  0.1907 -0.2826
12513TIP3    H159030   6.375   2.142   2.541 -1.5251  0.3304 -0.6188
12513TIP3    H259031   6.438   2.011   2.583  0.2179  1.2153 -0.4251
12514TIP3   OH259032   3.417   5.733  16.316  0.0684  0.1655 -0.4416
12514TIP3    H159033   3.411   5.638  16.324 -1.5530  0.3026  0.1847
12514TIP3    H259034   3.493   5.748  16.260 -0.3662 -1.5467 -1.5145
12515TIP3   OH259035   0.537   3.053   2.497 -0.5758  0.2589  0.4347
12515TIP3    H159036   0.544   3.127   2.437 -1.8128  0.5792  0.6620
12515TIP3    H259037   0.525   2.977   2.440  0.8418  0.2012  0.1960
12516TIP3   OH259038   6.021   5.811  11.097  0.1857 -0.4299 -0.2071
12516TIP3    H159039   5.959   5.745  11.065 -0.4789 -0.1639  0.5074
12516TIP3    H259040   6.105   5.765  11.102 -0.1170 -1.0108 -0.4338
12517TIP3   OH259041   4.418   3.825   3.054 -0.0167 -0.5645 -0.0985
12517TIP3    H159042   4.360   3.754   3.081  0.2867 -0.9055 -0.3447
12517TIP3    H259043   4.391   3.900   3.108 -0.7502 -0.6919 -0.2888
12518TIP3   OH259044   1.259   4.370   1.061 -0.3881 -0.3414  0.4038
12518TIP3    H159045   1.350   4.342   1.076 -0.5477 -0.8431  0.4434
12518TIP3    H259046   1.217   4.294   1.023 -0.6335  0.1101 -0.2242
12519TIP3   OH259047   6.469   6.583   4.135  0.2055  0.4477  0.0988
12519TIP3    H159048   6.449   6.671   4.167  0.7628  0.6155 -0.0070
12519TIP3    H259049   6.555   6.591   4.094 -0.8860  0.4573 -2.2978
12520TIP3   OH259050   2.524   3.636   4.184  0.5125  0.7805  0.0666
12520TIP3    H159051   2.533   3.602   4.273 -2.4274  1.6291  0.7452
12520TIP3    H259052   2.613   3.639   4.150  1.3660 -2.7059  1.7873
12521TIP3   OH259053   2.490   5.058  14.078 -0.1049 -0.7751 -0.1915
12521TIP3    H159054   2.418   5.118  14.061  0.4081  0.5478  2.1108
12521TIP3    H259055   2.447   4.979  14.112 -0.4129  0.5809  2.6743
12522TIP3   OH259056   3.874   1.718   3.614  0.1026  0.0905 -0.0753
12522TIP3    H159057   3.816   1.788   3.583  0.7367  0.9241  0.5886
12522TIP3    H259058   3.960   1.759   3.619  0.6862 -1.0338 -0.6768
12523TIP3   OH259059   3.431   5.094  15.500  0.2540 -0.0433 -0.0019
12523TIP3    H159060   3.488   5.165  15.529  1.6595  0.0311 -2.7992
12523TIP3    H259061   3.485   5.043  15.439 -2.3746 -0.5009 -2.0289
12524TIP3   OH259062   4.813   3.352  10.999 -0.0537 -0.9273  0.2377
12524TIP3    H159063   4.744   3.302  10.955 -2.9174  1.6789  1.6007
12524TIP3    H259064   4.801   3.333  11.092  1.2342 -0.5966  0.4866
12525TIP3   OH259065   1.399   3.334   3.650 -0.4302  0.0831  0.6711
12525TIP3    H159066   1.352   3.324   3.733 -0.7800 -1.3319  0.3014
12525TIP3    H259067   1.329   3.337   3.584 -0.0882 -0.0550  0.3058
12526TIP3   OH259068   4.041   2.192  14.045 -0.0660  0.0766  0.1025
12526TIP3    H159069   4.029   2.284  14.021 -3.5708 -0.0401  1.0804
12526TIP3    H259070   4.092   2.155  13.973  1.4259  2.7557 -0.2950
12527TIP3   OH259071   3.108   0.315  15.628  1.3617  0.1717  0.0305
12527TIP3    H159072   3.070   0.381  15.569 -0.7093 -0.3986  0.6625
12527TIP3    H259073   3.032   0.278  15.674  2.5894 -1.9591  0.4023
12528TIP3   OH259074   1.757   4.948  14.267 -0.2962 -0.3878  0.0418
12528TIP3    H159075   1.690   5.001  14.224 -0.8120 -0.1210  1.1392
12528TIP3    H259076   1.837   4.998  14.257 -0.6478  0.2636  0.4492
12529TIP3   OH259077   1.190   3.128   4.149  0.3914  0.4399 -0.4754
12529TIP3    H159078   1.128   3.190   4.112  0.7137  1.5827  0.8416
12529TIP3    H259079   1.135   3.065   4.196  0.1353  0.4527 -0.7547
12530TIP3   OH259080   4.596   1.042  11.339 -0.1986 -0.4891  0.7424
12530TIP3    H159081   4.555   0.992  11.269 -0.5010 -1.1113  1.3548
12530TIP3    H259082   4.573   1.133  11.321 -0.0834 -0.6262 -0.0875
12531TIP3   OH259083   5.660   3.673  17.235 -0.2569  0.6269 -0.8289
12531TIP3    H159084   5.696   3.584  17.234 -1.9280 -0.1390  1.7680
12531TIP3    H259085   5.712   3.719  17.301  0.2079  1.3963 -1.7342
12532TIP3   OH259086   3.687   5.066   0.957  0.0119  0.1077  0.6179
12532TIP3    H159087   3.658   5.027   1.039  0.4872 -0.1147  0.6853
12532TIP3    H259088   3.783   5.065   0.963  0.0328  1.3432  0.6478
12533TIP3   OH259089   0.845   1.233  16.360  0.0347 -0.1513  0.3238
12533TIP3    H159090   0.791   1.189  16.426 -0.9849  0.3645 -0.1526
12533TIP3    H259091   0.843   1.325  16.385 -0.1910  0.0197 -0.2923
12534TIP3   OH259092   1.477   1.081   6.052  0.1727  0.1559  0.3598
12534TIP3    H159093   1.404   1.079   5.990  0.2840  1.2244  0.1951
12534TIP3    H259094   1.447   1.138   6.123  0.5106 -0.1045  0.7141
12535TIP3   OH259095   1.908   1.686  12.829  0.4794  0.0067  0.1502
12535TIP3    H159096   1.921   1.593  12.810  2.7620 -0.1761  2.4238
12535TIP3    H259097   1.939   1.697  12.919  0.1743  2.9739 -0.0658
12536TIP3   OH259098   4.699   1.652  12.989  0.1860  0.5731  0.2972
12536TIP3    H159099   4.794   1.638  12.997  0.6810  1.2115 -3.3488
12536TIP3    H259100   4.662   1.564  12.993  1.2571  0.0230 -1.3064
12537TIP3   OH259101   6.461   4.478  14.166  0.0134 -0.4029  0.5529
12537TIP3    H159102   6.526   4.545  14.144 -2.1042  1.0634 -1.5053
12537TIP3    H259103   6.499   4.397  14.133  1.2573  0.2695  0.2907
12538TIP3   OH259104   0.638   5.192  16.904 -0.1790 -0.5923 -0.0566
12538TIP3    H159105   0.583   5.122  16.870 -1.1338 -0.0206  0.3009
12538TIP3    H259106   0.623   5.191  16.998  1.4065 -1.2737  0.2042
12539TIP3   OH259107   0.685   5.992  16.272 -0.1496 -0.2757 -0.1306
12539TIP3    H159108   0.780   6.001  16.274 -0.1200 -0.2416 -1.1432
12539TIP3    H259109   0.669   5.905  16.309  0.0957  0.7066  2.3227
12540TIP3   OH259110   0.690   2.413   5.935  0.2233 -0.2348 -0.4940
12540TIP3    H159111   0.615   2.381   5.885  1.1686  0.1704 -2.1793
12540TIP3    H259112   0.747   2.336   5.945 -0.6238 -0.6820  1.2562
12541TIP3   OH259113   6.134   5.430  16.951  0.2679 -0.1300 -0.6421
12541TIP3    H159114   6.180   5.365  16.897  2.6960  1.5122 -0.5975
12541TIP3    H259115   6.172   5.420  17.038 -0.3907  0.3733 -0.2895
12542TIP3   OH259116   5.510   3.629  11.636 -0.2708 -0.5834  0.3044
12542TIP3    H159117   5.563   3.579  11.698  0.0579 -1.6320 -0.8017
12542TIP3    H259118   5.475   3.564  11.576 -2.6096  0.1408  0.8521
12543TIP3   OH259119   4.038   2.667  14.685 -1.0963  0.3752  0.6788
12543TIP3    H159120   3.948   2.641  14.665 -0.8318  0.4912 -0.6776
12543TIP3    H259121   4.046   2.652  14.779 -2.0111 -1.2136  0.5245
12544TIP3   OH259122   0.063   6.601   6.528  0.2364 -0.0665  0.0279
12544TIP3    H159123   0.101   6.607   6.616 -2.1510  0.6660  1.0417
12544TIP3    H259124   0.100   6.675   6.481  3.3175 -1.7494 -0.3433
12545TIP3   OH259125   4.843   2.612  10.365  0.2191 -0.1762 -0.0218
12545TIP3    H159126   4.756   2.634  10.333 -0.4703 -1.0722  1.2130
12545TIP3    H259127   4.866   2.532  10.318  0.8699  0.6705 -1.1872
12546TIP3   OH259128   2.309   4.012  12.523 -0.4551 -0.0818  0.0805
12546TIP3    H159129   2.284   4.057  12.443 -0.3511  0.4059  0.3229
12546TIP3    H259130   2.226   3.987  12.564 -0.5280  0.6715  0.3907
12547TIP3   OH259131   5.528   1.799   5.963  0.1938 -0.2070  0.7489
12547TIP3    H159132   5.540   1.706   5.945 -0.8304 -0.7904  2.8456
12547TIP3    H259133   5.551   1.808   6.056 -1.4201  1.3129  1.0249
12548TIP3   OH259134   1.185   6.501  11.687 -0.0182 -0.6795  0.2038
12548TIP3    H159135   1.255   6.454  11.641  0.6721  1.1591 -0.6678
12548TIP3    H259136   1.215   6.592  11.690 -1.9504 -0.0418  0.6746
12549TIP3   OH259137   0.108   6.820   4.572 -0.5185 -0.0057 -0.1406
12549TIP3    H159138   0.100   6.909   4.538 -1.0268  0.7800  1.9907
12549TIP3    H259139   0.161   6.828   4.651  0.7753 -1.8327 -0.7836
12550TIP3   OH259140   4.734   4.588  11.311 -0.0074  0.5699 -0.3321
12550TIP3    H159141   4.739   4.498  11.278 -0.6828  0.3264  0.2067
12550TIP3    H259142   4.776   4.584  11.397  0.5672  0.9199 -0.5906
12551TIP3   OH259143   3.998   3.001  14.914  0.4533  0.4636 -0.0892
12551TIP3    H159144   4.033   3.082  14.951  0.6456  1.4843 -2.3995
12551TIP3    H259145   3.904   3.016  14.908  0.4117  0.2704  0.1034
12552TIP3   OH259146   5.049   3.155   0.887  0.0581  0.1634  0.4216
12552TIP3    H159147   5.124   3.105   0.854  1.6497  1.9854  1.1796
12552TIP3    H259148   5.038   3.226   0.823 -1.3366 -0.3771  0.0587
12553TIP3   OH259149   5.208   5.486   1.536 -0.2253 -0.3391 -0.4281
12553TIP3    H159150   5.143   5.422   1.504  0.8037 -1.2065 -0.8065
12553TIP3    H259151   5.215   5.550   1.465 -0.8359 -0.1045 -0.2848
12554TIP3   OH259152   4.620   4.352  17.186  0.6024  0.6963  0.5131
12554TIP3    H159153   4.585   4.269  17.219  0.8762  1.3221  2.4511
12554TIP3    H259154   4.626   4.408  17.263  2.8432  1.6835 -0.3219
12555TIP3   OH259155   0.381   1.548  12.733 -0.2314  0.0748  0.1097
12555TIP3    H159156   0.305   1.606  12.734  0.1557  0.5950 -0.7388
12555TIP3    H259157   0.382   1.509  12.821  0.0462  2.0529  0.9972
12556TIP3   OH259158   0.624   4.624  10.627 -0.3066 -0.4170  0.2163
12556TIP3    H159159   0.620   4.714  10.661 -1.9060  0.4915 -2.2597
12556TIP3    H259160   0.686   4.629  10.554 -0.3795 -1.3344  0.0866
12557TIP3   OH259161   4.131   0.546   1.651  0.6275  0.5471 -0.5469
12557TIP3    H159162   4.208   0.490   1.655  1.1935  1.3129 -0.3914
12557TIP3    H259163   4.059   0.491   1.681  1.4373  0.3536  1.1119
12558TIP3   OH259164   0.667   5.978   0.057 -0.2481 -0.1790 -0.6676
12558TIP3    H159165   0.695   6.024  -0.022  1.2022 -0.0019 -0.0610
12558TIP3    H259166   0.649   6.047   0.121  0.8833 -0.3877 -0.1044
12559TIP3   OH259167   2.550   5.420  14.818  0.0896 -0.0441 -0.7256
12559TIP3    H159168   2.638   5.405  14.782  0.3158  0.6184 -0.4397
12559TIP3    H259169   2.537   5.348  14.880  0.6441  0.1668 -0.3670
12560TIP3   OH259170   0.607   5.692   6.093 -0.2773 -0.6158 -0.7938
12560TIP3    H159171   0.679   5.755   6.100 -0.0413 -0.7087 -2.1703
12560TIP3    H259172   0.603   5.650   6.179  2.6099 -1.9964 -1.2812
12561TIP3   OH259173   6.368   1.944   0.995 -0.0411 -0.4009  0.2121
12561TIP3    H159174   6.393   1.913   0.908  2.5463 -0.5840  0.9950
12561TIP3    H259175   6.289   1.996   0.980 -0.5500 -1.7576 -2.0195
12562TIP3   OH259176   5.490   3.167   3.850  0.2244 -0.5304 -0.2525
12562TIP3    H159177   5.442   3.227   3.907  3.8378  2.8022 -0.4965
12562TIP3    H259178   5.527   3.102   3.909  0.7101  0.6228  0.7238
12563TIP3   OH259179   0.126   1.717  15.427  0.1999 -0.5878 -0.2822
12563TIP3    H159180   0.208   1.673  15.449 -0.1634 -1.2083 -0.1486
12563TIP3    H259181   0.143   1.809  15.442  0.1985 -0.9191  1.8362
12564TIP3   OH259182   2.069   5.757   5.327 -0.4072 -0.0825  0.4533
12564TIP3    H159183   2.066   5.681   5.268  1.0538 -0.5632  0.9607
12564TIP3    H259184   1.980   5.768   5.358 -0.6121 -1.6396  0.4240
12565TIP3   OH259185   3.502   5.185   3.956  0.2623  0.0136 -0.0299
12565TIP3    H159186   3.485   5.119   3.889  0.1734 -0.3041  0.3063
12565TIP3    H259187   3.539   5.136   4.029 -0.0590  0.2958  0.3222
12566TIP3   OH259188   6.073   6.480  11.073 -0.5220  0.4366 -0.4604
12566TIP3    H159189   5.984   6.514  11.060 -0.5412  1.8778  2.8596
12566TIP3    H259190   6.099   6.513  11.159  2.6080 -1.3712 -0.6237
12567TIP3   OH259191   3.608   3.033   0.762  0.2705 -0.1967 -0.4610
12567TIP3    H159192   3.533   3.073   0.806  0.1725 -0.8933  0.0212
12567TIP3    H259193   3.605   3.067   0.673  0.3934  1.1398  0.0325
12568TIP3   OH259194   0.724   4.166  17.178 -0.4484  0.3839  0.2192
12568TIP3    H159195   0.777   4.142  17.254 -0.9787 -0.2072  0.4079
12568TIP3    H259196   0.758   4.251  17.151  0.8049 -0.1338  0.1378
12569TIP3   OH259197   1.902   0.526  14.040 -0.5680  0.1478 -0.0089
12569TIP3    H159198   1.861   0.520  14.126  2.7912  0.4319  1.6903
12569TIP3    H259199   1.890   0.440  14.001 -1.0055 -0.3683  1.2432
12570TIP3   OH259200   3.060   0.104   5.392  0.1402 -0.1000  0.0279
12570TIP3    H159201   3.151   0.135   5.393  0.8213 -2.0146 -0.7926
12570TIP3    H259202   3.028   0.126   5.305  0.6502 -1.7254 -0.5839
12571TIP3   OH259203   4.560   6.721  16.236 -0.3542  0.1149  0.0016
12571TIP3    H159204   4.505   6.729  16.158 -0.8489  1.0959  0.4347
12571TIP3    H259205   4.639   6.770  16.214  0.4133 -1.3833 -0.6611
12572TIP3   OH259206   0.487   6.745   2.525 -0.1462 -0.4848 -0.0406
12572TIP3    H159207   0.428   6.700   2.585 -0.1655  0.0807  0.3718
12572TIP3    H259208   0.575   6.726   2.557 -0.0817 -1.6869 -0.9114
12573TIP3   OH259209   5.273   0.890   4.994  0.2441 -0.0926  0.0896
12573TIP3    H159210   5.271   0.917   4.902 -0.7349  1.1230  0.4655
12573TIP3    H259211   5.181   0.880   5.018  0.4742  0.2749  1.1362
12574TIP3   OH259212   0.904   6.175   0.326  0.2787  0.0393  0.4065
12574TIP3    H159213   0.842   6.207   0.260 -0.7373 -3.2610 -0.3831
12574TIP3    H259214   0.986   6.166   0.278 -0.3732 -2.0181 -0.4329
12575TIP3   OH259215   4.009   0.144   2.122 -0.1034  0.2395 -0.3361
12575TIP3    H159216   3.954   0.170   2.049  1.4390  1.7796 -0.9732
12575TIP3    H259217   4.051   0.225   2.151 -1.5568 -0.0994  3.0275
12576TIP3   OH259218   1.165   5.581   1.286 -0.4112  0.4686 -0.4853
12576TIP3    H159219   1.245   5.529   1.275  0.3076  1.4749 -0.1258
12576TIP3    H259220   1.097   5.531   1.242  0.2332 -0.8772  0.0385
12577TIP3   OH259221   5.038   2.940   2.554 -0.6675 -0.1479  0.0803
12577TIP3    H159222   5.113   2.881   2.551 -1.6643 -1.3747 -1.7031
12577TIP3    H259223   4.965   2.885   2.581 -1.1123  0.8489  0.9595
12578TIP3   OH259224   0.463   0.563   1.488  0.2144  0.0672 -0.3678
12578TIP3    H159225   0.545   0.548   1.440 -0.3955 -0.6719 -1.1857
12578TIP3    H259226   0.476   0.649   1.529  0.9013  0.5479 -1.5398
12579TIP3   OH259227   3.564   2.824  13.060 -0.3584  0.4879 -0.0161
12579TIP3    H159228   3.537   2.783  13.142  0.0744 -0.3817 -0.2990
12579TIP3    H259229   3.617   2.899  13.088  1.7836 -1.1473  0.5353
12580TIP3   OH259230   2.685   3.776  12.091 -0.4480 -0.2508  0.9479
12580TIP3    H159231   2.743   3.851  12.075 -0.9225 -0.2701 -0.9585
12580TIP3    H259232   2.738   3.700  12.068 -0.3130 -0.4472  1.8921
12581TIP3   OH259233   3.518   4.692  14.616  0.1763  0.1396 -0.3205
12581TIP3    H159234   3.537   4.765  14.557 -2.5936 -0.2554 -1.7955
12581TIP3    H259235   3.556   4.616  14.572  3.5832  0.6809  1.5006
12582TIP3   OH259236   3.572   5.092  11.509 -0.2939  0.2435 -0.1415
12582TIP3    H159237   3.611   5.017  11.555 -1.4978  0.0537  0.5876
12582TIP3    H259238   3.629   5.106  11.433  0.5368 -0.7451  0.2904
12583TIP3   OH259239   1.609   3.018   1.070  0.2072 -0.1754 -0.2067
12583TIP3    H159240   1.606   3.084   1.000 -0.8696  2.6325  2.3717
12583TIP3    H259241   1.521   2.980   1.070  0.2262 -0.2184 -0.4481
12584TIP3   OH259242   3.836   2.493  11.371  0.3912 -0.1092  0.2112
12584TIP3    H159243   3.777   2.567  11.386  1.1497  1.0056 -2.0898
12584TIP3    H259244   3.899   2.525  11.307  2.4852 -1.8476  1.3188
12585TIP3   OH259245   0.876   4.502  14.268 -0.0067  0.3785 -0.6327
12585TIP3    H159246   0.934   4.462  14.204 -0.0979 -0.6632 -0.0641
12585TIP3    H259247   0.815   4.555  14.215  0.0282 -0.3236 -1.3851
12586TIP3   OH259248   2.279   0.501  15.434  0.1649  0.9049  0.9414
12586TIP3    H159249   2.243   0.424  15.477 -2.8922  1.5344 -0.3965
12586TIP3    H259250   2.268   0.572  15.498 -0.9162  1.0693  0.5859
12587TIP3   OH259251   0.774   2.989  14.776 -0.9365 -0.3572 -0.2012
12587TIP3    H159252   0.729   2.973  14.859  0.4421  1.8640  1.0408
12587TIP3    H259253   0.809   2.903  14.751 -0.7531 -0.9325  1.9019
12588TIP3   OH259254   0.991   5.390   1.184 -0.2854 -0.3244 -0.0536
12588TIP3    H159255   0.993   5.330   1.259 -2.0051  0.2837  0.5014
12588TIP3    H259256   1.007   5.334   1.108 -0.5371 -1.2684  0.5802
12589TIP3   OH259257   2.791   3.286   3.323  0.0809  0.2375  0.2062
12589TIP3    H159258   2.832   3.216   3.373 -0.0473  0.8304  1.1634
12589TIP3    H259259   2.790   3.361   3.383 -1.9265  0.3869  0.0307
12590TIP3   OH259260   6.391   4.068   1.161 -0.2536  0.1676  0.4811
12590TIP3    H159261   6.307   4.056   1.205 -0.3403  0.7747  0.4875
12590TIP3    H259262   6.452   4.015   1.211 -0.8143 -1.0180 -0.0798
12591TIP3   OH259263   3.540   0.456   3.988  0.2262  0.2175 -0.0258
12591TIP3    H159264   3.455   0.419   3.967 -0.3745  0.1265  2.4188
12591TIP3    H259265   3.597   0.380   4.001  0.9475  0.2875 -2.6007
12592TIP3   OH259266   0.164   5.274   3.627  0.3628  0.3083  0.8335
12592TIP3    H159267   0.210   5.202   3.670  0.2869 -1.0371 -1.2903
12592TIP3    H259268   0.075   5.270   3.663  0.2550 -0.9006  0.4412
12593TIP3   OH259269   2.030   2.423  12.036 -0.1551 -0.5324  0.4980
12593TIP3    H159270   2.083   2.346  12.057  0.5829 -0.5389 -1.3389
12593TIP3    H259271   1.948   2.409  12.083 -0.4308 -2.9686 -0.6586
12594TIP3   OH259272   0.044   4.671   1.268  0.3755 -0.2398  0.0806
12594TIP3    H159273   0.004   4.592   1.304 -0.7384  0.7375  1.0686
12594TIP3    H259274  -0.020   4.702   1.203  0.7243 -0.0660 -0.1797
12595TIP3   OH259275   1.121   4.885   0.864 -0.3371 -0.3386 -0.0546
12595TIP3    H159276   1.161   4.963   0.825  0.3616 -0.6127  0.1075
12595TIP3    H259277   1.119   4.903   0.958  1.2187 -1.1267  0.1528
12596TIP3   OH259278   5.554   6.638  12.748  0.0313 -0.0253  0.1951
12596TIP3    H159279   5.646   6.639  12.771 -0.1315  0.4600  0.8459
12596TIP3    H259280   5.552   6.611  12.656  0.7266 -1.2240  0.5328
12597TIP3   OH259281   5.537   0.065   2.703 -0.0254  0.1909  0.9639
12597TIP3    H159282   5.621   0.055   2.748 -0.1928 -0.9720  1.0272
12597TIP3    H259283   5.476   0.013   2.754 -1.1492  2.2945  1.8172
12598TIP3   OH259284   5.315   3.817  11.267 -0.1624  0.1619 -0.0077
12598TIP3    H159285   5.400   3.795  11.304  0.0976 -0.1672 -0.7834
12598TIP3    H259286   5.277   3.732  11.242 -0.2410  0.3871 -0.6730
12599TIP3   OH259287   4.889   2.139   0.008 -0.1723 -0.1337  0.1034
12599TIP3    H159288   4.929   2.086   0.078  0.4508  0.4907  0.2181
12599TIP3    H259289   4.866   2.075  -0.060 -0.8574 -0.7601  0.9086
12600TIP3   OH259290   4.374   3.932   1.103  0.2839  0.3384 -0.0969
12600TIP3    H159291   4.391   3.843   1.072 -1.4268 -0.5888  1.4957
12600TIP3    H259292   4.287   3.953   1.068 -0.3640  0.4383  1.5435
12601TIP3   OH259293   3.114   5.463   1.938  0.1713  0.1319  0.7454
12601TIP3    H159294   3.061   5.499   2.009  0.7991 -0.1961  1.4006
12601TIP3    H259295   3.204   5.476   1.967  0.4517  0.7345 -0.3783
12602TIP3   OH259296   4.258   0.882   4.326 -0.1410  0.3201 -0.1032
12602TIP3    H159297   4.254   0.801   4.376  0.3285  0.3447 -0.0200
12602TIP3    H259298   4.280   0.855   4.237  2.5710  0.5423  0.4708
12603TIP3   OH259299   0.173   2.243  12.488  0.1121 -0.4426  0.2215
12603TIP3    H159300   0.202   2.330  12.460 -0.2954 -0.3560  0.0495
12603TIP3    H259301   0.142   2.202  12.407  0.7029 -0.9091  0.2303
12604TIP3   OH259302   6.215   5.085  15.044  0.1581  0.2594 -0.3855
12604TIP3    H159303   6.260   5.024  14.985 -2.2174 -0.4145 -1.5386
12604TIP3    H259304   6.236   5.053  15.131  1.6400 -0.2353 -0.9041
12605TIP3   OH259305   2.810   0.688   5.558  0.5923 -0.4156 -0.0845
12605TIP3    H159306   2.740   0.641   5.603 -0.4700  1.0762 -0.1708
12605TIP3    H259307   2.765   0.742   5.493  1.8746  0.0767 -0.5859
12606TIP3   OH259308   5.487   1.915  12.427 -0.2697  0.1242 -0.4472
12606TIP3    H159309   5.448   1.854  12.365  0.9774 -0.0202 -1.1128
12606TIP3    H259310   5.467   1.878  12.513  0.0528 -0.9766 -0.8320
12607TIP3   OH259311   5.145   5.535  15.258  0.0777  0.2409 -0.1009
12607TIP3    H159312   5.115   5.455  15.302 -0.3110  0.9741  0.9816
12607TIP3    H259313   5.109   5.606  15.311  1.5238  1.1412 -0.3126
12608TIP3   OH259314   3.471   5.805  17.081 -0.5235  0.5954  0.3147
12608TIP3    H159315   3.448   5.790  16.989  0.4935  3.1557 -0.4176
12608TIP3    H259316   3.387   5.812  17.125 -1.0454  0.7484 -0.6829
12609TIP3   OH259317   1.745   4.988  13.359  0.1401 -0.3126  0.2823
12609TIP3    H159318   1.714   5.039  13.283 -0.6743 -0.9364  0.1892
12609TIP3    H259319   1.671   4.986  13.419  0.5631 -0.3908  0.8070
12610TIP3   OH259320   3.536   6.044   3.351 -0.1215 -0.0334  0.1632
12610TIP3    H159321   3.469   6.012   3.292 -0.3081  0.5606  0.0449
12610TIP3    H259322   3.550   5.973   3.414 -1.0131 -0.0739  0.3152
12611TIP3   OH259323   0.368   3.929  15.292  0.3001  0.0971  0.1896
12611TIP3    H159324   0.282   3.950  15.327 -0.0508 -1.1538  0.0785
12611TIP3    H259325   0.380   3.990  15.219 -0.7178 -0.0858 -0.1399
12612TIP3   OH259326   5.531   1.022   0.945 -0.1469 -0.1483  0.1323
12612TIP3    H159327   5.570   0.951   0.996 -1.2552 -0.0787  1.0936
12612TIP3    H259328   5.485   1.075   1.010 -0.7357  0.5015 -0.8156
12613TIP3   OH259329   5.820   2.601   5.653 -0.4196  0.7062 -0.2050
12613TIP3    H159330   5.910   2.622   5.676 -0.3042  0.9942 -0.9075
12613TIP3    H259331   5.783   2.563   5.733  0.1021  1.2691  0.3137
12614TIP3   OH259332   1.399   0.790   3.524 -0.6905 -0.7728 -0.2845
12614TIP3    H159333   1.357   0.775   3.608 -1.6296 -1.7829 -0.9286
12614TIP3    H259334   1.390   0.885   3.510 -0.3958 -0.5761  0.8058
12615TIP3   OH259335   1.329   1.863   3.177  0.2586  0.5205 -1.1125
12615TIP3    H159336   1.332   1.828   3.265 -0.1892 -0.3421 -1.4324
12615TIP3    H259337   1.237   1.889   3.165  0.4363  1.1628 -1.1277
12616TIP3   OH259338   4.938   1.640   2.859 -0.4723 -0.0963  0.0029
12616TIP3    H159339   4.978   1.724   2.882 -0.1269 -0.2584  0.0007
12616TIP3    H259340   4.942   1.588   2.940 -0.8176 -0.0592  0.0438
12617TIP3   OH259341   5.240   3.416   4.208 -0.5686 -0.4119  0.5013
12617TIP3    H159342   5.160   3.418   4.156 -0.5565 -0.2064  0.4892
12617TIP3    H259343   5.246   3.504   4.246  0.5766  0.1390 -0.9181
12618TIP3   OH259344   1.089   3.127   2.506  0.4467  0.1271 -0.5166
12618TIP3    H159345   1.088   3.206   2.561  0.1907  0.8728 -1.5647
12618TIP3    H259346   0.997   3.109   2.490  0.5308  2.3428 -4.0542
12619TIP3   OH259347   2.972   2.072  13.463  0.8728 -0.2923  0.2385
12619TIP3    H159348   3.020   2.057  13.544  2.2934 -2.6807 -0.9917
12619TIP3    H259349   2.928   1.988  13.445  2.1687 -0.4515 -2.4647
12620TIP3   OH259350   2.488   3.476  12.567  0.2240 -0.3931  0.0880
12620TIP3    H159351   2.477   3.568  12.592 -0.8034 -0.2000 -1.0484
12620TIP3    H259352   2.433   3.427  12.628  0.4888 -0.2371  0.4576
12621TIP3   OH259353   1.711   6.433   4.319 -0.1623 -0.0047  0.3313
12621TIP3    H159354   1.689   6.409   4.229 -0.3967  1.6973 -0.0743
12621TIP3    H259355   1.798   6.473   4.313  0.1014 -0.4665  0.9611
12622TIP3   OH259356   6.095   5.176   4.568 -0.4885  0.5419 -0.0530
12622TIP3    H159357   6.109   5.087   4.536  0.8152  1.2597 -1.5260
12622TIP3    H259358   6.001   5.179   4.588 -0.1920 -1.7321  1.8791
12623TIP3   OH259359   5.601   1.899  16.046 -0.3454  0.0849  0.1319
12623TIP3    H159360   5.532   1.940  15.994 -0.1845  2.6961  1.9098
12623TIP3    H259361   5.679   1.950  16.026 -0.0454  0.4087  2.0784
12624TIP3   OH259362   6.002   6.571   0.777 -0.3932 -0.0455 -0.1332
12624TIP3    H159363   5.926   6.595   0.830 -0.6856  0.9724 -0.9936
12624TIP3    H259364   6.024   6.651   0.730 -0.7688 -1.2071 -2.3489
12625TIP3   OH259365   1.413   1.150   1.976 -0.0861 -0.1260  0.3091
12625TIP3    H159366   1.405   1.055   1.972  1.0550 -0.3284  2.1172
12625TIP3    H259367   1.471   1.172   1.904 -2.3676 -0.5044 -1.7078
12626TIP3   OH259368   1.699   2.198   5.000  0.2871 -0.0878 -0.0973
12626TIP3    H159369   1.730   2.273   5.051 -0.3528 -0.9572  1.6102
12626TIP3    H259370   1.708   2.225   4.909  1.9732  1.3001  0.4557
12627TIP3   OH259371   6.567   1.535   3.998 -0.1980 -0.1748 -0.2816
12627TIP3    H159372   6.586   1.449   4.036  2.6576  0.6029  0.1872
12627TIP3    H259373   6.522   1.581   4.068  1.6006 -0.0671  0.8568
12628TIP3   OH259374   3.063   2.893   6.034  0.2976 -0.2120  0.0403
12628TIP3    H159375   3.052   2.820   6.096 -1.4098  0.2406  0.2766
12628TIP3    H259376   3.112   2.958   6.084  1.0234 -0.8082  0.1288
12629TIP3   OH259377   2.008   5.218   5.111  0.6621 -0.1064 -0.0095
12629TIP3    H159378   1.968   5.136   5.081 -0.5082  1.4490 -2.8741
12629TIP3    H259379   1.988   5.221   5.204 -0.9468 -2.1608 -0.2458
12630TIP3   OH259380   3.016   0.395   2.767 -0.1701  0.0168  0.4929
12630TIP3    H159381   2.942   0.444   2.804 -0.2936  0.1956  0.0125
12630TIP3    H259382   3.001   0.305   2.795 -0.6460  0.0290  0.2856
12631TIP3   OH259383   2.681   4.530   0.727  0.4051  0.0595 -0.0129
12631TIP3    H159384   2.589   4.507   0.714  0.4657  0.2630 -0.8770
12631TIP3    H259385   2.727   4.447   0.732  0.0321 -0.0626  1.5744
12632TIP3   OH259386   4.395   1.055   3.617 -0.3054 -0.0331  0.0597
12632TIP3    H159387   4.456   1.100   3.558  1.0014 -2.5787 -0.6230
12632TIP3    H259388   4.424   1.079   3.705 -0.9400  2.0997 -0.2977
12633TIP3   OH259389   3.377   6.766  15.941  0.0236 -0.2393 -0.3357
12633TIP3    H159390   3.324   6.724  16.009 -0.4921 -0.6190 -0.9647
12633TIP3    H259391   3.341   6.732  15.859  1.0631 -0.2855 -0.7770
12634TIP3   OH259392   1.546   0.308  14.342  0.2704  0.0872  0.3320
12634TIP3    H159393   1.500   0.341  14.419 -0.5741 -2.3704  0.9082
12634TIP3    H259394   1.482   0.253  14.297  1.0956  0.6212 -1.5580
12635TIP3   OH259395   6.474   5.991   4.557  0.3187  0.4771 -0.2461
12635TIP3    H159396   6.457   5.923   4.492 -1.3008  1.5934 -1.0199
12635TIP3    H259397   6.471   6.073   4.507 -2.7513  1.4904  1.5215
12636TIP3   OH259398   1.646   1.166  12.572  0.3905  0.1964 -0.0845
12636TIP3    H159399   1.699   1.206  12.641  0.5462  0.3056 -0.2659
12636TIP3    H259400   1.574   1.228  12.557 -0.1792 -0.2857  0.6522
12637TIP3   OH259401   4.622   2.451  10.894 -0.2062  0.0620 -0.3897
12637TIP3    H159402   4.578   2.392  10.833 -2.1104 -1.0368  1.9906
12637TIP3    H259403   4.590   2.538  10.871 -1.3311 -0.3991 -0.6073
12638TIP3   OH259404   0.683   5.419  16.667 -0.4604 -0.3978 -0.0925
12638TIP3    H159405   0.695   5.501  16.618  0.6131  0.3212  1.3299
12638TIP3    H259406   0.766   5.407  16.713 -0.5754 -2.3775 -0.3922
12639TIP3   OH259407   2.268   4.802   4.128  0.2216 -0.1568  0.1604
12639TIP3    H159408   2.210   4.806   4.052  0.6609  0.1943 -0.1595
12639TIP3    H259409   2.209   4.785   4.202 -0.3484  0.7482 -0.0798
12640TIP3   OH259410   0.614   2.863   4.949 -0.2997 -0.2122 -0.0362
12640TIP3    H159411   0.632   2.880   4.856  1.3829  4.1900  0.9679
12640TIP3    H259412   0.523   2.892   4.962 -0.0117  0.6520  0.0323
12641TIP3   OH259413   2.410   1.178  13.202 -1.3593  0.3255 -0.5849
12641TIP3    H159414   2.411   1.116  13.129  1.0607  2.0395 -2.1013
12641TIP3    H259415   2.487   1.155  13.254 -2.1107  0.2015  0.4916
12642TIP3   OH259416   0.682   2.466  15.460  0.3477  0.1612 -0.0331
12642TIP3    H159417   0.592   2.467  15.493  0.8325  0.1863  1.3202
12642TIP3    H259418   0.673   2.469  15.365 -1.0860 -0.0619  0.0894
12643TIP3   OH259419   5.650   6.428  14.604 -0.3220 -1.3160 -0.1501
12643TIP3    H159420   5.625   6.336  14.612  0.2949 -1.5707 -1.0571
12643TIP3    H259421   5.701   6.432  14.523  1.0478 -0.4722  0.7420
12644TIP3   OH259422   3.434   2.395  12.742 -0.6604 -0.1112 -0.6933
12644TIP3    H159423   3.442   2.381  12.647 -1.0849 -0.0227 -0.7431
12644TIP3    H259424   3.381   2.474  12.750  3.0596  2.4987 -0.4257
12645TIP3   OH259425   5.117   2.455  11.587 -0.1212 -0.1295  0.0915
12645TIP3    H159426   5.144   2.427  11.675 -1.4425  1.4940  1.0520
12645TIP3    H259427   5.061   2.384  11.555 -0.7573 -0.1212  1.1452
12646TIP3   OH259428   5.031   3.712  13.847  0.1060  0.2703 -0.6277
12646TIP3    H159429   5.071   3.782  13.898 -2.8641  0.8368  1.0301
12646TIP3    H259430   4.970   3.757  13.788  0.1474 -0.7292 -1.4422
12647TIP3   OH259431   1.551   4.567  15.664  0.1892  0.3869 -0.1882
12647TIP3    H159432   1.529   4.505  15.595  1.1637  0.8676 -0.9347
12647TIP3    H259433   1.596   4.514  15.730 -1.2708 -0.1856  0.3714
12648TIP3   OH259434   4.722   2.400   4.805  0.6296  0.0963  0.0787
12648TIP3    H159435   4.712   2.461   4.732  0.6966 -0.5537 -0.4814
12648TIP3    H259436   4.762   2.323   4.766  0.6894 -0.2459  0.8124
12649TIP3   OH259437   0.342   1.896  16.105 -0.1391 -0.2470 -0.5688
12649TIP3    H159438   0.345   1.975  16.159  1.6397 -0.1795 -0.7509
12649TIP3    H259439   0.381   1.828  16.159 -1.5882 -0.9905 -0.4479
12650TIP3   OH259440   2.813   4.561   4.383 -0.2792  0.0835  0.7934
12650TIP3    H159441   2.887   4.593   4.331 -0.9362  1.0650  0.4512
12650TIP3    H259442   2.771   4.640   4.416 -2.1865 -0.4013 -0.4263
12651TIP3   OH259443   0.202   1.498  11.603  0.1388 -0.0875 -0.3101
12651TIP3    H159444   0.294   1.509  11.627 -0.2787 -0.2082  1.4039
12651TIP3    H259445   0.160   1.580  11.629 -0.3566 -0.2630 -0.5408
12652TIP3   OH259446   0.171   5.445  15.197 -0.2901 -0.2450 -0.0105
12652TIP3    H159447   0.220   5.526  15.188  1.1426 -1.1462 -0.3733
12652TIP3    H259448   0.159   5.434  15.291  0.2100 -0.0346  0.0793
12653TIP3   OH259449   0.283   5.921  13.107  0.1531 -0.2507 -0.2924
12653TIP3    H159450   0.243   5.979  13.172  0.5462  0.5677 -0.7834
12653TIP3    H259451   0.313   5.845  13.158  0.6518  0.4776  0.5089
12654TIP3   OH259452   4.959   6.632  17.226  0.0975  0.4049 -0.3093
12654TIP3    H159453   4.876   6.598  17.191  0.3291 -2.2256  1.5382
12654TIP3    H259454   5.026   6.574  17.191  0.8940  0.9811  0.2222
12655TIP3   OH259455   0.034   6.502  15.669 -0.1412  0.2979  0.2559
12655TIP3    H159456  -0.046   6.526  15.715 -1.0344 -1.2463 -0.4474
12655TIP3    H259457   0.102   6.508  15.736 -1.0441  0.4279  1.1796
12656TIP3   OH259458   4.191   5.593   5.698 -0.0875 -0.1782 -0.3768
12656TIP3    H159459   4.125   5.619   5.763 -0.2026  1.4179 -1.0930
12656TIP3    H259460   4.273   5.629   5.732 -0.0598  0.1924 -0.8240
12657TIP3   OH259461   5.239   0.070  14.841 -0.1334 -0.2310  0.0873
12657TIP3    H159462   5.301   0.063  14.913  0.5319  2.5674 -0.1664
12657TIP3    H259463   5.243  -0.015  14.797  0.9713 -1.2444  2.1201
12658TIP3   OH259464   0.861   5.233  11.997 -0.1440 -0.2437  0.1615
12658TIP3    H159465   0.847   5.326  11.983 -0.1412 -0.3182 -0.3379
12658TIP3    H259466   0.780   5.191  11.966 -0.3516 -0.3688  0.8563
12659TIP3   OH259467   3.484   6.321   5.657 -0.4993  0.0596  0.2599
12659TIP3    H159468   3.496   6.290   5.567  1.9678 -0.8896  0.8744
12659TIP3    H259469   3.392   6.304   5.676 -0.7473 -0.8804 -1.6762
12660TIP3   OH259470   1.903   3.106  13.691 -0.2073 -0.0343 -0.1284
12660TIP3    H159471   1.939   3.156  13.618 -0.3678  0.2059 -0.0444
12660TIP3    H259472   1.893   3.017  13.658 -1.3549  0.3149 -0.7678
12661TIP3   OH259473   4.689   2.033  13.331 -0.0873  0.1617  0.8464
12661TIP3    H159474   4.716   2.111  13.283 -0.0801 -0.3694 -0.0221
12661TIP3    H259475   4.753   1.966  13.307 -1.7466 -0.9011 -0.6589
12662TIP3   OH259476   4.960   6.380   4.407  0.2251 -0.3594  0.2443
12662TIP3    H159477   5.036   6.334   4.370 -0.2289 -1.2642  0.4152
12662TIP3    H259478   4.884   6.338   4.365 -0.2470 -0.6867  1.4147
12663TIP3   OH259479   3.513   0.009   5.267 -0.5544  0.0562  0.6912
12663TIP3    H159480   3.558   0.071   5.325 -0.7087  1.5755 -0.7720
12663TIP3    H259481   3.564   0.010   5.187 -0.9264 -1.2579  0.4290
12664TIP3   OH259482   5.977   5.378  12.753 -0.1910  0.1073 -0.3986
12664TIP3    H159483   5.940   5.410  12.671 -0.5867 -3.7211 -1.8203
12664TIP3    H259484   5.973   5.283  12.746  2.4854 -0.3589  2.8457
12665TIP3   OH259485   2.197   1.288   0.068 -0.2926  0.2382 -0.0632
12665TIP3    H159486   2.174   1.323  -0.018  1.3210 -0.8127 -0.9465
12665TIP3    H259487   2.114   1.286   0.116 -1.2769  0.4873 -1.7124
12666TIP3   OH259488   5.201   0.890  11.595 -0.2698  0.4417 -0.5308
12666TIP3    H159489   5.198   0.820  11.660  2.6469  0.2546 -0.5475
12666TIP3    H259490   5.229   0.846  11.515  0.9791  1.5088 -0.6898
12667TIP3   OH259491   4.017   3.920  11.066  0.2658 -0.8054  0.0376
12667TIP3    H159492   3.952   3.989  11.070 -1.5647 -2.4101 -0.7802
12667TIP3    H259493   3.996   3.862  11.140  1.2427 -0.9292  0.2272
12668TIP3   OH259494   0.570   6.272  16.215  0.4967  0.0206  0.2371
12668TIP3    H159495   0.494   6.223  16.249  0.2465 -0.7096 -1.3267
12668TIP3    H259496   0.645   6.234  16.260  0.1458 -0.7718  0.1600
12669TIP3   OH259497   3.436   3.682  11.165 -0.7976  0.4499  0.0987
12669TIP3    H159498   3.448   3.619  11.236 -3.2934  0.6715  0.7370
12669TIP3    H259499   3.385   3.635  11.099  0.2584  0.7254 -0.9452
12670TIP3   OH259500   6.023   0.692   0.608 -0.0487  0.5566  0.0022
12670TIP3    H159501   6.114   0.719   0.603 -0.3390  1.8476  1.5537
12670TIP3    H259502   5.977   0.752   0.549 -0.0414  0.4885 -0.0741
12671TIP3   OH259503   3.280   0.969   4.614  0.1552  0.1207 -0.3717
12671TIP3    H159504   3.221   1.043   4.594 -2.6045 -1.6625  0.8919
12671TIP3    H259505   3.325   0.951   4.531 -2.2605  0.5323 -1.8172
12672TIP3   OH259506   4.933   4.930   1.980 -0.9937 -0.2930 -0.0066
12672TIP3    H159507   4.915   4.947   2.072 -2.3143 -0.6682 -0.1945
12672TIP3    H259508   4.861   4.970   1.932 -0.8460 -0.9585 -0.8221
12673TIP3   OH259509   3.778   1.668   0.847 -0.1350  0.1441 -0.5624
12673TIP3    H159510   3.800   1.621   0.927 -0.0713 -1.3571 -1.4374
12673TIP3    H259511   3.684   1.652   0.834 -0.1179  0.2653 -0.8542
12674TIP3   OH259512   0.391   1.006   3.616 -0.0298  0.1774 -0.3865
12674TIP3    H159513   0.301   1.028   3.640  0.6155  0.7203  1.6218
12674TIP3    H259514   0.425   1.087   3.576  0.2885  0.7453  1.0061
12675TIP3   OH259515   5.762   3.377  14.144 -0.2690 -0.0731 -0.0344
12675TIP3    H159516   5.824   3.339  14.082  0.8967 -0.5160  1.3611
12675TIP3    H259517   5.741   3.305  14.204 -0.3784  0.6683  0.8373
12676TIP3   OH259518   1.494   0.941   2.311 -0.5923  0.0755 -0.2224
12676TIP3    H159519   1.570   0.908   2.264 -0.4675  0.5162 -0.3329
12676TIP3    H259520   1.529   1.011   2.366 -0.1626 -2.4704  2.8919
12677TIP3   OH259521   5.897   2.436   5.875 -0.1644  0.0023 -0.5348
12677TIP3    H159522   5.860   2.386   5.948  1.8294  2.0620  1.9791
12677TIP3    H259523   5.951   2.373   5.827 -2.3645 -1.6395 -0.9031
12678TIP3   OH259524   2.756   1.885  15.023  0.8653 -0.4873  0.3749
12678TIP3    H159525   2.825   1.875  15.089  0.0190 -2.2389  1.0255
12678TIP3    H259526   2.792   1.844  14.945  1.9452  1.7584 -0.3610
12679TIP3   OH259527   4.150   0.411  14.338 -0.2795 -0.4650 -0.0242
12679TIP3    H159528   4.158   0.413  14.434 -1.7188  0.0965  0.0869
12679TIP3    H259529   4.203   0.335  14.312 -2.0483 -2.2548  1.4269
12680TIP3   OH259530   2.004   0.080  15.452  0.0036 -0.5734 -0.4785
12680TIP3    H159531   2.005   0.148  15.385  0.9275  0.6369  0.7360
12680TIP3    H259532   1.919   0.037  15.442  0.0793 -0.3371 -2.3222
12681TIP3   OH259533   0.463   3.442  16.582 -0.4638  0.3227  0.0497
12681TIP3    H159534   0.531   3.502  16.613 -1.8432  1.5880  0.6587
12681TIP3    H259535   0.448   3.467  16.491  1.8131 -1.7662 -0.9578
12682TIP3   OH259536   2.392   0.384  15.787 -0.2848  0.3981  0.3318
12682TIP3    H159537   2.408   0.335  15.706  1.5621  1.0234  0.2986
12682TIP3    H259538   2.387   0.475  15.759 -1.4290  0.4527  0.6952
12683TIP3   OH259539   2.486   1.033   0.052  0.4366  0.2957  0.1765
12683TIP3    H159540   2.435   0.952   0.060  2.5647 -1.4390 -2.9208
12683TIP3    H259541   2.477   1.058  -0.040  0.4155  3.2309  0.9282
12684TIP3   OH259542   1.443   5.875  14.402 -0.1742  0.3901  0.1486
12684TIP3    H159543   1.462   5.953  14.455 -0.2737 -0.2537  1.1403
12684TIP3    H259544   1.364   5.838  14.442 -0.4365  0.0733 -0.6590
12685TIP3   OH259545   3.857   3.174  14.083 -0.3179  0.1561 -0.0111
12685TIP3    H159546   3.937   3.214  14.048 -0.7105  0.4131 -0.6282
12685TIP3    H259547   3.786   3.227  14.047 -0.8595 -1.2359 -1.0300
12686TIP3   OH259548   2.085   1.177  12.209  0.0988  0.7454 -0.1423
12686TIP3    H159549   2.054   1.200  12.121 -0.2181  0.3464 -0.1362
12686TIP3    H259550   2.052   1.247  12.265  1.4361  1.7200 -0.5448
12687TIP3   OH259551   3.558   4.421   2.703 -0.6141 -0.2452 -0.0822
12687TIP3    H159552   3.597   4.433   2.789 -0.4714 -1.3419  0.0221
12687TIP3    H259553   3.497   4.494   2.693  0.1469  0.4710  0.5022
12688TIP3   OH259554   1.195   1.465  16.219  0.1167  0.7111  0.5178
12688TIP3    H159555   1.099   1.465  16.217  0.1267  0.1791 -0.3249
12688TIP3    H259556   1.219   1.376  16.192  0.8800  1.5791 -1.7273
12689TIP3   OH259557   6.762   2.566  13.313 -0.7549  0.2174  0.2602
12689TIP3    H159558   6.782   2.476  13.340 -1.8767 -0.6405 -1.7397
12689TIP3    H259559   6.740   2.610  13.395  2.5373 -0.5594  1.6648
12690TIP3   OH259560   5.417   1.450   1.526  0.1051 -0.9581 -0.4790
12690TIP3    H159561   5.369   1.379   1.568  0.1112 -0.2799  0.6917
12690TIP3    H259562   5.470   1.488   1.596 -0.4961  0.7137 -0.9030
12691TIP3   OH259563   3.180   2.923   2.131  0.5054  0.9769 -0.8183
12691TIP3    H159564   3.162   3.014   2.108 -1.7163  0.8495  0.2651
12691TIP3    H259565   3.117   2.903   2.201  2.2583 -0.8022  0.3137
12692TIP3   OH259566   0.797   4.457  14.759 -0.2561 -0.2108  0.3763
12692TIP3    H159567   0.792   4.552  14.753 -1.0971 -0.3352 -1.0513
12692TIP3    H259568   0.829   4.429  14.673 -2.6558 -1.3863 -0.1934
12693TIP3   OH259569   4.739   3.102   0.988  0.0610  0.4257 -0.5609
12693TIP3    H159570   4.768   3.106   0.897 -0.1838  2.7820 -0.5693
12693TIP3    H259571   4.805   3.048   1.032  2.0454  2.0337 -1.4834
12694TIP3   OH259572   3.614   0.310   0.164  0.1194  0.1192 -0.8427
12694TIP3    H159573   3.520   0.296   0.152  0.4923 -2.3490 -1.0065
12694TIP3    H259574   3.624   0.326   0.257 -0.4481  0.2533 -0.8020
12695TIP3   OH259575   2.412   1.653   0.686  0.1227 -0.5567  0.1531
12695TIP3    H159576   2.426   1.747   0.679 -0.0437 -0.5054  0.5155
12695TIP3    H259577   2.395   1.637   0.779  0.0760 -0.9327  0.0830
12696TIP3   OH259578   2.500   0.394   2.650  0.1579  0.2792  0.3462
12696TIP3    H159579   2.528   0.341   2.574  1.3451  0.4133  0.6734
12696TIP3    H259580   2.549   0.357   2.723 -1.3491 -0.1597  1.1499
12697TIP3   OH259581   2.184   4.521  13.520  0.1988  0.5639 -0.2076
12697TIP3    H159582   2.222   4.509  13.432  2.9594 -0.3090  1.0284
12697TIP3    H259583   2.252   4.566  13.569 -1.5936  1.6500  1.3280
12698TIP3   OH259584   2.984   5.657  17.058 -0.0389  0.3640  0.2457
12698TIP3    H159585   2.923   5.677  17.129  0.8345 -0.9149  1.3839
12698TIP3    H259586   2.935   5.676  16.978 -0.8255  2.4132  1.1790
12699TIP3   OH259587   1.968   3.772  16.424 -0.1907  0.0056 -0.1831
12699TIP3    H159588   2.025   3.741  16.494 -1.9979  0.4335  1.5220
12699TIP3    H259589   2.012   3.744  16.343  1.0866 -1.9418  1.1376
12700TIP3   OH259590   6.159   2.085  14.737  0.0663 -0.2886  0.2236
12700TIP3    H159591   6.080   2.065  14.787  0.3170 -0.6200  0.4867
12700TIP3    H259592   6.157   2.023  14.664  0.6539 -1.0266  0.8375
12701TIP3   OH259593   4.855   2.612   2.332  0.2803 -0.5243  0.1450
12701TIP3    H159594   4.938   2.625   2.286  0.0682  0.0067 -0.0905
12701TIP3    H259595   4.819   2.700   2.343  0.2190 -0.6681  1.1300
12702TIP3   OH259596   2.462   0.593   5.442 -0.3840 -0.0386  0.0713
12702TIP3    H159597   2.460   0.587   5.538 -0.3191 -0.6452  0.0356
12702TIP3    H259598   2.501   0.510   5.413 -1.0035 -0.1331 -0.5074
12703TIP3   OH259599   3.067   4.644   5.199 -0.1006 -0.4559  0.6085
12703TIP3    H159600   3.086   4.552   5.178 -1.6723 -0.7789  0.5322
12703TIP3    H259601   3.084   4.691   5.117  1.1255 -0.6048  0.7683
12704TIP3   OH259602   0.117   4.313  16.479 -0.4778  0.0894 -0.3809
12704TIP3    H159603   0.151   4.362  16.405  1.4812  2.2123  1.8264
12704TIP3    H259604   0.180   4.243  16.492 -0.9767 -0.4593 -0.8629
12705TIP3   OH259605   1.186   2.564   6.030 -0.1314  0.3214  0.5577
12705TIP3    H159606   1.161   2.575   5.938  0.2254 -0.5956  0.3446
12705TIP3    H259607   1.123   2.617   6.079  0.1582  1.4296 -0.2684
12706TIP3   OH259608   1.644   1.528   0.175  0.6045  0.5067 -0.1206
12706TIP3    H159609   1.657   1.485   0.090  0.5727 -0.7319  0.4865
12706TIP3    H259610   1.563   1.578   0.165  1.3106  1.4615 -1.2403
12707TIP3   OH259611   4.897   5.548   3.391  0.6154  0.2787 -0.6705
12707TIP3    H159612   4.979   5.509   3.420  1.3783  1.7062 -0.8436
12707TIP3    H259613   4.853   5.575   3.472  0.7940  0.4342 -0.6240
12708TIP3   OH259614   1.320   0.618  11.662 -0.3677  0.3887 -0.3617
12708TIP3    H159615   1.362   0.615  11.576 -0.6504 -2.4324 -0.4450
12708TIP3    H259616   1.269   0.537  11.667 -0.4125  0.5333  2.4224
12709TIP3   OH259617   5.758   1.162   5.461 -0.2659 -0.9680 -0.2159
12709TIP3    H159618   5.842   1.184   5.501 -0.7145  0.1997  0.1003
12709TIP3    H259619   5.720   1.097   5.519  0.7073 -1.9888 -0.7129
12710TIP3   OH259620   3.372   0.780   3.082 -0.1638  0.7975  0.3741
12710TIP3    H159621   3.323   0.792   3.000  1.7591 -1.9356 -1.2587
12710TIP3    H259622   3.445   0.840   3.075 -0.2704  0.9203  0.3070
12711TIP3   OH259623   6.264   5.343  12.653  0.5756 -0.3984  0.9380
12711TIP3    H159624   6.271   5.381  12.741  1.4151  0.3989  0.5321
12711TIP3    H259625   6.284   5.415  12.594  0.8531 -1.1448  0.1106
12712TIP3   OH259626   0.430   6.744   4.478 -0.0675 -0.1248 -0.6907
12712TIP3    H159627   0.420   6.752   4.573  0.3748  2.1054 -0.8100
12712TIP3    H259628   0.511   6.695   4.467  1.1128  1.6073  0.0834
12713TIP3   OH259629   1.471   1.532   3.984 -0.7339  0.2244  0.6836
12713TIP3    H159630   1.530   1.537   4.059  0.2679  1.2548 -0.1589
12713TIP3    H259631   1.383   1.536   4.023 -0.2355  0.2930  1.8293
12714TIP3   OH259632   5.155   6.459   0.762  0.6116  0.0064 -0.2148
12714TIP3    H159633   5.081   6.519   0.750 -0.2206 -0.8686  0.4945
12714TIP3    H259634   5.198   6.457   0.676  0.1880  1.0119 -0.4567
12715TIP3   OH259635   2.705   1.053  16.349  0.0098 -0.4558  0.2713
12715TIP3    H159636   2.705   1.050  16.445  1.5470  1.2390  0.3559
12715TIP3    H259637   2.748   0.972  16.323  1.4577  0.0306  1.0833
12716TIP3   OH259638   1.213   4.961   2.445 -0.2180  0.1180  0.3278
12716TIP3    H159639   1.195   5.042   2.396  0.2781  0.4557  0.7104
12716TIP3    H259640   1.298   4.975   2.485  0.5302 -1.1561 -0.7665
12717TIP3   OH259641   0.505   2.715   2.741 -0.1835  0.0297 -0.2902
12717TIP3    H159642   0.420   2.674   2.725  0.8400 -2.0374 -0.5083
12717TIP3    H259643   0.540   2.733   2.654  1.0467 -2.1853 -0.2874
12718TIP3   OH259644   3.631   5.731  11.519 -0.0000  0.1147 -0.0335
12718TIP3    H159645   3.556   5.677  11.544 -0.2794  0.5787  0.1399
12718TIP3    H259646   3.606   5.770  11.436 -0.3666  1.0553  0.5092
12719TIP3   OH259647   3.958   1.689   1.820  0.4826  0.0225 -0.5037
12719TIP3    H159648   3.929   1.730   1.739  1.1161  0.5658 -0.4571
12719TIP3    H259649   4.024   1.749   1.856  1.5533 -1.1151 -0.5274
12720TIP3   OH259650   2.282   1.382  13.296  0.4179 -0.2920 -0.0579
12720TIP3    H159651   2.332   1.315  13.251  0.9432 -1.2440  1.8706
12720TIP3    H259652   2.328   1.395  13.379 -1.2501  0.4417  0.7875
12721TIP3   OH259653   6.084   3.838  16.308 -0.4024 -0.0208  0.2117
12721TIP3    H159654   6.084   3.914  16.366 -0.8039 -0.3717  0.6711
12721TIP3    H259655   5.991   3.822  16.289 -0.2161  1.2735 -2.0828
12722TIP3   OH259656   4.097   1.806  15.359 -0.6208  0.0547 -0.4031
12722TIP3    H159657   4.056   1.730  15.402  0.0502  0.6884  1.3757
12722TIP3    H259658   4.137   1.855  15.430  0.4980  1.1454 -1.7677
12723TIP3   OH259659   2.677   0.369  11.849  0.2721 -0.3227  0.4294
12723TIP3    H159660   2.690   0.423  11.926 -0.1985  1.2118 -0.5521
12723TIP3    H259661   2.597   0.319  11.868 -0.6963  1.1575  0.3256
12724TIP3   OH259662   3.990   3.943  12.127  0.0201 -0.5753  0.1039
12724TIP3    H159663   4.033   3.883  12.066 -1.5385 -0.4808 -1.1233
12724TIP3    H259664   3.898   3.939  12.103 -0.2719  1.4173  0.7852
12725TIP3   OH259665   6.340   6.747   1.212  0.1383  0.2429  0.7282
12725TIP3    H159666   6.339   6.835   1.249 -0.0207  0.5729 -0.0499
12725TIP3    H259667   6.252   6.713   1.229 -1.1201  1.7219 -2.4554
12726TIP3   OH259668   3.547   4.584   4.996 -0.2798 -0.1772  0.1526
12726TIP3    H159669   3.572   4.601   4.905 -1.5469  0.0740 -0.1570
12726TIP3    H259670   3.582   4.659   5.044 -0.6950  0.3361 -0.3283
12727TIP3   OH259671   6.643   6.079   4.229 -0.0235 -0.7712 -0.4575
12727TIP3    H159672   6.581   6.095   4.301  0.4681  1.7542 -0.5545
12727TIP3    H259673   6.709   6.021   4.267  0.3063  0.6563  1.2001
12728TIP3   OH259674   2.018   1.694   3.049  0.0727 -0.3688  0.1809
12728TIP3    H159675   2.094   1.683   3.105  0.9581  1.5261 -0.6155
12728TIP3    H259676   2.052   1.683   2.960 -0.1029  2.7238 -0.3156
12729TIP3   OH259677   5.775   3.072   4.882  0.3553  0.3369  0.1329
12729TIP3    H159678   5.812   3.071   4.970  1.5799  0.2387 -0.3651
12729TIP3    H259679   5.846   3.039   4.826 -0.2524  0.8123 -0.9419
12730TIP3   OH259680   6.547   1.077   5.867 -0.5162 -0.3173 -0.8065
12730TIP3    H159681   6.599   1.148   5.829  2.0279 -1.9279 -0.4821
12730TIP3    H259682   6.519   1.025   5.792  2.3270 -2.0434 -0.7418
12731TIP3   OH259683   2.054   2.781  15.579  0.5332  0.1250 -0.6469
12731TIP3    H159684   2.144   2.814  15.568  0.4313  0.0267 -1.8269
12731TIP3    H259685   2.045   2.769  15.673  1.0367  2.1951 -0.2984
12732TIP3   OH259686   0.546   3.198   5.873 -0.6952 -0.0938  0.3658
12732TIP3    H159687   0.527   3.125   5.814 -1.5816 -0.3812  1.0045
12732TIP3    H259688   0.612   3.164   5.933  2.8239  1.2376 -2.5274
12733TIP3   OH259689   5.706   1.106  11.638  0.5025  0.1498  0.2469
12733TIP3    H159690   5.702   1.014  11.611 -0.9041  0.5179 -0.8421
12733TIP3    H259691   5.797   1.131  11.622  0.3466 -0.4106 -1.6582
12734TIP3   OH259692   2.322   5.936   1.695 -0.0329 -0.1207  0.5044
12734TIP3    H159693   2.269   5.888   1.758 -0.0264 -0.9906 -0.1557
12734TIP3    H259694   2.268   6.012   1.672 -0.5325 -0.4309  0.6508
12735TIP3   OH259695   6.345   2.266  14.936  0.0317 -0.9248  0.0816
12735TIP3    H159696   6.264   2.289  14.981  0.1784  2.5015 -1.2202
12735TIP3    H259697   6.414   2.283  15.000 -0.0883 -0.9584  0.2197
12736TIP3   OH259698   5.497   2.347   2.292  0.0075 -0.1460 -0.5125
12736TIP3    H159699   5.462   2.400   2.221  0.1828  2.5383  1.3280
12736TIP3    H259700   5.517   2.410   2.362 -2.5890 -2.8961  2.9172
12737TIP3   OH259701   2.103   2.110  14.830 -0.5223 -0.1300 -0.3729
12737TIP3    H159702   2.064   2.025  14.850  0.4311 -0.5303 -0.2030
12737TIP3    H259703   2.195   2.101  14.856 -0.5727  1.1751  0.3183
12738TIP3   OH259704   4.441   4.673  14.360  0.2473  0.0088 -0.2706
12738TIP3    H159705   4.388   4.751  14.378 -0.9782 -1.0907  1.0651
12738TIP3    H259706   4.518   4.682  14.415 -0.6556 -0.4755  1.0855
12739TIP3   OH259707   0.123   3.817   3.337 -0.1066 -0.1189  0.4946
12739TIP3    H159708   0.107   3.897   3.387  1.7721  1.1190 -0.8048
12739TIP3    H259709   0.041   3.803   3.289 -0.7426  0.5759  1.3661
12740TIP3   OH259710   5.460   2.827  16.364  0.2553  0.3913  0.0619
12740TIP3    H159711   5.379   2.812  16.315  0.4641  1.8357 -0.7714
12740TIP3    H259712   5.507   2.893  16.313  1.6086  0.1309  0.9392
12741TIP3   OH259713   1.928   4.887   3.768  0.5031 -0.1509 -0.1602
12741TIP3    H159714   1.837   4.870   3.795  1.0443  0.0796  1.8415
12741TIP3    H259715   1.920   4.917   3.678 -1.5060  0.7565  0.2793
12742TIP3   OH259716   4.197   4.890  13.660 -0.1977 -0.2954 -0.2339
12742TIP3    H159717   4.156   4.892  13.746  1.0098 -1.0430  0.3687
12742TIP3    H259718   4.290   4.880  13.678 -0.0876 -2.1073 -1.6533
12743TIP3   OH259719   0.367   5.097  13.402  0.0113  0.6085 -0.1154
12743TIP3    H159720   0.412   5.109  13.486  0.9817  1.5841 -0.7612
12743TIP3    H259721   0.427   5.134  13.338 -1.1825  0.7922 -1.1318
12744TIP3   OH259722   1.610   6.433   4.945  0.1449  0.3603  0.4206
12744TIP3    H159723   1.622   6.450   4.852 -0.0101  3.1201  0.8712
12744TIP3    H259724   1.697   6.444   4.984 -0.1770  1.3245  0.8910
12745TIP3   OH259725   0.489   2.875  12.606 -0.9259 -0.0710  0.0457
12745TIP3    H159726   0.491   2.958  12.655 -0.7911  0.2297 -0.4671
12745TIP3    H259727   0.443   2.815  12.664  2.3036 -0.6928  2.1131
12746TIP3   OH259728   0.953   6.067  11.761  0.4266 -0.0872  0.6543
12746TIP3    H159729   0.889   6.017  11.811 -1.1453 -0.4845 -1.6921
12746TIP3    H259730   1.011   6.001  11.722  0.4104  0.0958  0.3148
12747TIP3   OH259731   2.531   3.810  13.783  0.1237  0.3926 -0.5783
12747TIP3    H159732   2.485   3.830  13.701  1.0465 -1.9147 -1.6823
12747TIP3    H259733   2.497   3.725  13.809 -0.6659  1.3983  1.8441
12748TIP3   OH259734   4.541   0.502   4.852 -0.0242  0.0143 -0.8249
12748TIP3    H159735   4.584   0.442   4.791  0.7953 -0.0798 -0.1679
12748TIP3    H259736   4.565   0.590   4.821  3.2439 -0.0577  1.3316
12749TIP3   OH259737   0.025   3.838  15.569  0.5622 -0.2009 -0.0180
12749TIP3    H159738   0.055   3.780  15.639  0.5813  1.3807  1.3143
12749TIP3    H259739  -0.051   3.883  15.605 -0.7620 -0.9337 -1.7979
12750TIP3   OH259740   4.568   5.052  12.659  0.0920  0.4088 -0.1250
12750TIP3    H159741   4.530   4.996  12.591 -0.5092 -1.4775  1.7124
12750TIP3    H259742   4.514   5.131  12.657 -0.0346  0.2916 -1.7187
12751TIP3   OH259743   4.504   6.386  10.983 -0.3749 -0.2485  0.1306
12751TIP3    H159744   4.493   6.311  10.924 -1.5981  1.0932 -1.3693
12751TIP3    H259745   4.439   6.370  11.052 -0.2774 -0.8297  0.0963
12752TIP3   OH259746   0.193   1.897  15.160 -0.1790 -0.3994  0.4408
12752TIP3    H159747   0.234   1.903  15.074 -1.2093 -1.1746 -0.1107
12752TIP3    H259748   0.177   1.804  15.173 -2.6700 -0.0325  0.2176
12753TIP3   OH259749   5.797   0.826   3.792  0.5972 -0.2091 -0.2153
12753TIP3    H159750   5.720   0.858   3.744 -0.0756 -1.9741 -0.3666
12753TIP3    H259751   5.763   0.799   3.877  1.1174 -0.5820 -0.1238
12754TIP3   OH259752   4.438   1.175   2.999  0.2358  0.2272  0.4374
12754TIP3    H159753   4.414   1.088   3.031  0.0778  0.3024  0.5208
12754TIP3    H259754   4.477   1.219   3.075  2.2269 -0.4943 -0.1201
12755TIP3   OH259755   0.761   4.802  17.150  0.1451 -0.7723 -0.0933
12755TIP3    H159756   0.830   4.785  17.086  0.1351 -2.9960  0.4458
12755TIP3    H259757   0.785   4.749  17.226 -1.7108 -0.9183  0.4190
12756TIP3   OH259758   5.083   2.750  15.165 -0.3455  0.6234  0.3222
12756TIP3    H159759   5.158   2.736  15.107 -1.9182  0.2408 -1.6913
12756TIP3    H259760   5.074   2.845  15.170  1.2109  0.7013  1.8325
12757TIP3   OH259761   1.616   0.175   6.396  0.2344  0.3330  0.9213
12757TIP3    H159762   1.566   0.256   6.412 -0.9651 -0.4881  1.3975
12757TIP3    H259763   1.549   0.107   6.392  0.9664 -0.2682 -2.2958
12758TIP3   OH259764   1.300   1.983   4.259 -0.3054 -0.0908 -0.5329
12758TIP3    H159765   1.359   2.004   4.187 -1.0219  0.8123 -0.8606
12758TIP3    H259766   1.212   1.991   4.222 -0.7072  1.1674  0.6300
12759TIP3   OH259767   2.475   6.064  15.971 -0.3773 -0.2686  0.1653
12759TIP3    H159768   2.446   6.110  16.050 -0.5180  0.5100 -0.3372
12759TIP3    H259769   2.508   6.133  15.914  0.6622 -0.9370 -0.0548
12760TIP3   OH259770   0.703   0.885  11.438  0.1187  0.1067 -0.1073
12760TIP3    H159771   0.737   0.974  11.446 -0.0832  0.2198 -0.4559
12760TIP3    H259772   0.641   0.875  11.510 -1.3126  0.9299 -1.1792
12761TIP3   OH259773   0.489   1.192  12.685 -0.2464 -0.3061 -0.5156
12761TIP3    H159774   0.447   1.278  12.684 -2.4774 -1.3552 -0.8071
12761TIP3    H259775   0.525   1.182  12.597 -0.8374 -0.0523 -0.7933
12762TIP3   OH259776   1.782   3.116   5.992  0.1408  0.1968  0.2738
12762TIP3    H159777   1.846   3.083   5.929  1.7712 -0.9832  2.4760
12762TIP3    H259778   1.745   3.194   5.951  2.6772  0.6470 -1.2351
12763TIP3   OH259779   1.286   5.106  10.978 -0.1344  0.2701 -0.2636
12763TIP3    H159780   1.192   5.120  10.966 -0.2672 -0.4203 -0.0988
12763TIP3    H259781   1.315   5.070  10.894 -0.2572 -0.6576  0.0853
12764TIP3   OH259782   5.992   4.842   0.120  0.0114  0.7746  0.2337
12764TIP3    H159783   6.017   4.802   0.204 -0.5927 -0.4804 -0.1722
12764TIP3    H259784   5.904   4.876   0.136 -0.4576 -0.2425 -0.1381
12765TIP3   OH259785   3.352   1.603  11.772  0.1777  0.4621 -0.4351
12765TIP3    H159786   3.396   1.603  11.857  0.7236  0.9379 -0.7115
12765TIP3    H259787   3.285   1.671  11.779 -1.1705 -0.9194  0.3141
12766TIP3   OH259788   5.041   6.509  16.551 -0.4716  0.7800 -0.2471
12766TIP3    H159789   4.997   6.452  16.488  0.7452 -0.1552 -0.2765
12766TIP3    H259790   5.028   6.597  16.517 -1.3959  0.4259 -0.8165
12767TIP3   OH259791   3.279   3.174  12.985  0.1205  0.0822 -0.1120
12767TIP3    H159792   3.245   3.150  13.071  0.1149  2.0374  0.4602
12767TIP3    H259793   3.210   3.228  12.946  1.1538  1.2830 -0.3183
12768TIP3   OH259794   4.671   3.999  12.158  0.2141  0.1133  0.5670
12768TIP3    H159795   4.698   4.086  12.129 -1.5010 -0.0837 -1.7912
12768TIP3    H259796   4.592   4.014  12.209 -0.1122 -0.0571  0.1166
12769TIP3   OH259797   5.314   2.774  15.002  0.2066  0.0488 -0.1260
12769TIP3    H159798   5.408   2.775  15.018 -0.0600  0.2679  1.5503
12769TIP3    H259799   5.303   2.824  14.921  1.4356  0.9580  0.2533
12770TIP3   OH259800   5.114   0.203  11.416 -0.0892  0.0447  0.2281
12770TIP3    H159801   5.198   0.169  11.447  0.0624  1.9378  1.9919
12770TIP3    H259802   5.103   0.286  11.461 -2.6864  0.0845 -0.3658
12771TIP3   OH259803   5.660   5.042  14.165  0.6222  0.5340  0.4864
12771TIP3    H159804   5.608   5.121  14.151  0.2197  0.2475  0.3458
12771TIP3    H259805   5.738   5.055  14.111  0.1905  0.4881 -0.1507
12772TIP3   OH259806   1.348   3.290  11.069 -0.6026  0.0794  0.2003
12772TIP3    H159807   1.421   3.271  11.011  1.1604  0.4773  2.2335
12772TIP3    H259808   1.274   3.308  11.010  1.5452  2.1810 -1.9372
12773TIP3   OH259809   1.438   6.412  11.579  0.1343  0.3472  1.2563
12773TIP3    H159810   1.522   6.388  11.618 -0.0723 -1.1354  0.8218
12773TIP3    H259811   1.455   6.494  11.533  1.5497 -0.3846  0.4676
12774TIP3   OH259812   2.055   6.206  13.806 -0.6227 -0.5609  0.2142
12774TIP3    H159813   2.133   6.229  13.756 -0.5465 -0.9685  0.1409
12774TIP3    H259814   2.084   6.135  13.864 -0.5829  0.2512  1.1910
12775TIP3   OH259815   3.684   4.386   3.347 -0.2663 -0.8463 -0.1420
12775TIP3    H159816   3.735   4.313   3.312 -0.9845 -1.6006  0.3815
12775TIP3    H259817   3.749   4.444   3.387  0.2595 -1.4221 -0.1638
12776TIP3   OH259818   3.613   2.816   3.343  0.5679  0.0062  0.1500
12776TIP3    H159819   3.611   2.722   3.326 -0.3758 -0.0744  0.6802
12776TIP3    H259820   3.656   2.854   3.266  0.4088 -0.7943 -0.3363
12777TIP3   OH259821   4.615   1.200  16.702  0.0904  0.0877 -0.0664
12777TIP3    H159822   4.601   1.273  16.642 -0.5580 -0.6219 -0.7887
12777TIP3    H259823   4.682   1.231  16.763 -0.0012  1.1891 -0.5223
12778TIP3   OH259824   1.574   4.138  17.036  0.4912  0.3689  0.6094
12778TIP3    H159825   1.557   4.214  16.981 -2.2835 -0.7179 -0.1200
12778TIP3    H259826   1.554   4.167  17.125  1.3048  1.0403  0.5721
12779TIP3   OH259827   3.000   3.067  12.277  0.1774 -0.4221 -0.0630
12779TIP3    H159828   2.960   3.018  12.348 -2.2501 -1.1826 -1.8922
12779TIP3    H259829   3.072   3.011  12.246  1.1714 -0.1330  1.6660
12780TIP3   OH259830   5.882   1.800  12.721 -0.2115  0.1249  0.0016
12780TIP3    H159831   5.831   1.719  12.715  0.0883  0.0790 -2.8974
12780TIP3    H259832   5.973   1.771  12.719 -0.1042  0.5046 -1.0969
12781TIP3   OH259833   4.077   4.760   4.700  0.4491 -0.4246  0.4565
12781TIP3    H159834   4.044   4.832   4.753 -0.2723 -0.0540 -0.4677
12781TIP3    H259835   4.172   4.764   4.708  0.3747  0.1999  0.9693
12782TIP3   OH259836   0.287   4.016   1.694  0.0172 -0.0686 -0.5932
12782TIP3    H159837   0.214   3.965   1.727 -0.2446 -0.0793 -1.1834
12782TIP3    H259838   0.246   4.088   1.645  0.3689  0.9243  0.5342
12783TIP3   OH259839   1.376   6.148  17.193 -0.2475  0.4987 -0.0685
12783TIP3    H159840   1.427   6.095  17.133  3.0170  1.2977  1.8982
12783TIP3    H259841   1.303   6.091  17.219  0.5936 -1.3091 -1.5516
12784TIP3   OH259842   4.569   6.036  11.836  0.3023 -0.0484 -0.3670
12784TIP3    H159843   4.643   6.031  11.776  0.9709  0.1258  0.4245
12784TIP3    H259844   4.579   5.959  11.893  0.4244  0.4797  0.3410
12785TIP3   OH259845   4.428   5.305   4.237 -0.0821  0.1738  0.1931
12785TIP3    H159846   4.433   5.284   4.330  0.7135  0.0977  0.1326
12785TIP3    H259847   4.476   5.388   4.228  1.7625 -0.9387 -0.4999
12786TIP3   OH259848   5.397   6.187   3.024 -0.4557  0.8106  0.6537
12786TIP3    H159849   5.371   6.099   2.998  0.7268 -0.1161  2.5283
12786TIP3    H259850   5.330   6.215   3.086 -0.0591  0.6453  1.1637
12787TIP3   OH259851   4.142   0.938  15.726  0.6961  0.8118  0.4027
12787TIP3    H159852   4.079   0.867  15.714 -0.0062  1.4591  0.2436
12787TIP3    H259853   4.205   0.926  15.655  1.2473 -0.3548  1.0791
12788TIP3   OH259854   1.662   1.558  11.668  0.4908  0.5456  0.7735
12788TIP3    H159855   1.637   1.649  11.649  0.7603  0.9538  2.2336
12788TIP3    H259856   1.597   1.529  11.731 -0.3916 -0.7467 -0.7211
12789TIP3   OH259857   6.306   1.984  11.178  0.4132 -0.1680  0.0525
12789TIP3    H159858   6.375   1.965  11.114  0.4344 -2.1378  0.6278
12789TIP3    H259859   6.351   1.983  11.262  0.0303  0.5145  0.2694
12790TIP3   OH259860   5.164   4.776  11.666  0.0645  0.2371 -0.3233
12790TIP3    H159861   5.256   4.788  11.643  0.0162 -0.2098 -0.7640
12790TIP3    H259862   5.149   4.682  11.655 -0.0061  0.0321  1.3890
12791TIP3   OH259863   6.614   4.610  14.689 -0.0112  0.6490  0.0730
12791TIP3    H159864   6.658   4.527  14.707  0.0867  0.7452  0.2815
12791TIP3    H259865   6.522   4.592  14.709  0.1846  0.9265  1.2667
12792TIP3   OH259866   6.250   2.891   3.207 -0.0052 -0.1839  0.6097
12792TIP3    H159867   6.257   2.866   3.115  0.5903  1.2342  0.2456
12792TIP3    H259868   6.341   2.897   3.237 -0.2151 -1.7590  1.6199
12793TIP3   OH259869   4.376   2.742  14.251 -0.3403 -0.3085 -0.2389
12793TIP3    H159870   4.287   2.741  14.288 -0.6270  0.9708 -0.8926
12793TIP3    H259871   4.414   2.824  14.281 -0.2519  0.3165 -2.0381
12794TIP3   OH259872   2.623   0.082  16.284 -0.0535 -0.6203  0.0742
12794TIP3    H159873   2.546   0.027  16.271 -0.5864 -0.2391  1.5276
12794TIP3    H259874   2.680   0.032  16.341 -0.1339 -0.0516  0.6585
12795TIP3   OH259875   2.456   0.367   4.809  0.4496  0.4982  0.4189
12795TIP3    H159876   2.529   0.335   4.757 -0.1104 -0.3751  0.1588
12795TIP3    H259877   2.450   0.306   4.882  0.2787  0.8432  0.6939
12796TIP3   OH259878   3.659   2.462  13.638 -0.0305 -0.1966 -0.0879
12796TIP3    H159879   3.713   2.391  13.675  0.2157 -0.2665 -0.5810
12796TIP3    H259880   3.654   2.442  13.545 -1.6761 -0.6838  0.1032
12797TIP3   OH259881   6.540   0.430  15.740 -0.5584 -0.2007  0.3248
12797TIP3    H159882   6.503   0.396  15.658 -0.5559  0.7263 -0.0698
12797TIP3    H259883   6.465   0.465  15.787 -0.5146 -0.4561  0.5844
12798TIP3   OH259884   3.418   6.134  16.720 -0.0598  0.2238  0.2550
12798TIP3    H159885   3.361   6.058  16.705  0.5743  0.2034 -2.2468
12798TIP3    H259886   3.506   6.097  16.726  0.2477  0.7444 -0.9611
12799TIP3   OH259887   1.999   3.493   5.042 -0.4188 -0.1794 -0.3170
12799TIP3    H159888   1.917   3.511   5.088  1.0049  2.6394  1.2763
12799TIP3    H259889   2.065   3.492   5.112  1.2966  0.4091 -1.9083
12800TIP3   OH259890   2.140   1.819  11.670 -0.0743  0.2422 -0.5497
12800TIP3    H159891   2.175   1.731  11.684 -1.6169 -0.2619  0.3527
12800TIP3    H259892   2.092   1.838  11.751 -0.3745  1.6108 -1.0436
12801TIP3   OH259893   5.770   1.934  12.303  0.1794  0.7483  0.7503
12801TIP3    H159894   5.764   1.840  12.288 -0.7469  0.6819  1.4845
12801TIP3    H259895   5.697   1.954  12.361  1.2217  1.6940  1.7632
12802TIP3   OH259896   1.407   6.563  15.642 -0.0167  0.0618 -0.3411
12802TIP3    H159897   1.375   6.506  15.712 -1.7532 -0.9615 -1.9406
12802TIP3    H259898   1.491   6.524  15.616  1.3243  1.2261  2.0429
12803TIP3   OH259899   4.658   4.757  12.529 -0.1938  0.6083  0.3388
12803TIP3    H159900   4.688   4.687  12.471  0.1908  0.0511  1.1855
12803TIP3    H259901   4.728   4.766  12.594 -0.2025  1.8529  0.1871
12804TIP3   OH259902   2.242   4.425  14.658 -0.3470 -0.2145 -0.0679
12804TIP3    H159903   2.158   4.426  14.611 -0.2599  1.9574 -0.2185
12804TIP3    H259904   2.307   4.446  14.592  0.0622  0.3258  0.4972
12805TIP3   OH259905   6.347   0.203   6.025 -0.4269 -0.1568 -0.6272
12805TIP3    H159906   6.423   0.145   6.035 -0.0902  0.2460 -0.8485
12805TIP3    H259907   6.276   0.157   6.071 -0.1341 -0.6874 -0.6984
12806TIP3   OH259908   0.280   3.705  14.730 -0.3330 -0.1214  0.1154
12806TIP3    H159909   0.259   3.672  14.642 -0.5987 -1.0385  0.5128
12806TIP3    H259910   0.335   3.637  14.768  2.0686  1.5469 -0.3264
12807TIP3   OH259911   1.005   3.217   1.394 -0.4234 -0.3881  0.1546
12807TIP3    H159912   0.979   3.277   1.324 -1.7292 -1.0489  0.0468
12807TIP3    H259913   1.029   3.274   1.467 -3.3092  0.3076  0.6447
12808TIP3   OH259914   4.910   6.346  15.203 -0.0668  0.2246 -0.2749
12808TIP3    H159915   4.962   6.330  15.282 -1.5707  0.1793  0.7374
12808TIP3    H259916   4.839   6.403  15.233 -0.7621  0.0512 -1.5643
12809TIP3   OH259917   0.101   3.286   3.265 -0.2379  0.1614 -0.2192
12809TIP3    H159918   0.097   3.294   3.170 -0.4489  1.2294 -0.1157
12809TIP3    H259919   0.161   3.355   3.293  0.8090 -0.9337  0.3189
12810TIP3   OH259920   2.591   4.735   3.474 -0.3566 -0.2183 -0.0620
12810TIP3    H159921   2.685   4.718   3.473 -0.2327  0.4676 -0.3138
12810TIP3    H259922   2.560   4.695   3.556  0.5096  1.3954  1.0891
12811TIP3   OH259923   3.959   4.718  15.223 -0.3853  0.8456 -1.3113
12811TIP3    H159924   3.953   4.642  15.165 -0.6155 -0.7789  0.7810
12811TIP3    H259925   3.872   4.725  15.262  0.1616  1.0497 -0.1154
12812TIP3   OH259926   0.224   3.657   1.576 -0.5052 -0.2872 -0.0136
12812TIP3    H159927   0.208   3.621   1.664  2.0996  0.2074  0.7145
12812TIP3    H259928   0.144   3.704   1.554 -0.9054  0.2643  2.4596
12813TIP3   OH259929   4.021   1.046   5.579 -0.2526  0.5315 -0.5411
12813TIP3    H159930   4.000   0.976   5.517  0.4006  1.8004 -2.2138
12813TIP3    H259931   4.016   1.126   5.528 -1.0056  1.7355  1.3632
12814TIP3   OH259932   1.191   1.596  12.222 -0.6314 -0.7354  0.4464
12814TIP3    H159933   1.123   1.571  12.159 -1.1828  0.7843  0.4148
12814TIP3    H259934   1.199   1.520  12.279 -1.2523 -1.5290 -0.4927
12815TIP3   OH259935   2.120   0.526   3.475  0.1253  0.3678 -0.0665
12815TIP3    H159936   2.187   0.541   3.408  0.0142  0.0330 -0.2535
12815TIP3    H259937   2.082   0.441   3.452  0.7215 -0.1988  0.9503
12816TIP3   OH259938   5.850   4.766  16.920 -0.0266  0.5596 -0.2996
12816TIP3    H159939   5.773   4.727  16.961  0.5394  0.0297  0.2662
12816TIP3    H259940   5.892   4.693  16.875 -0.3865  1.0435 -1.4444
12817TIP3   OH259941   4.603   0.793   3.188 -0.3687 -0.2783 -0.3036
12817TIP3    H159942   4.617   0.707   3.227  3.2382  0.4433  0.1783
12817TIP3    H259943   4.652   0.790   3.106 -0.4481  1.2194 -0.4127
12818TIP3   OH259944   0.210   0.419  14.751  0.1119 -0.1258 -0.4989
12818TIP3    H159945   0.137   0.465  14.709  0.2374 -2.1711 -3.0519
12818TIP3    H259946   0.280   0.484  14.753 -0.5219  0.6204 -1.6913
12819TIP3   OH259947   3.667   2.055   5.266 -0.6209 -0.0709 -0.2114
12819TIP3    H159948   3.590   2.087   5.314 -1.3334 -2.1324  0.1198
12819TIP3    H259949   3.651   1.960   5.258  2.8875 -0.9202  1.7850
12820TIP3   OH259950   2.320   2.750  10.514 -0.0836  0.2311 -0.2824
12820TIP3    H159951   2.310   2.660  10.545  1.3100  0.7584  1.7769
12820TIP3    H259952   2.240   2.794  10.540 -0.3478 -0.1648 -0.4247
12821TIP3   OH259953   4.219   2.994  13.909 -0.2175  0.8537 -0.1103
12821TIP3    H159954   4.308   2.980  13.878 -0.5113 -0.4580 -0.3991
12821TIP3    H259955   4.229   3.041  13.992  0.7632  0.1567  0.1704
12822TIP3   OH259956   1.458   1.998   3.488  0.2966 -0.4042 -0.4655
12822TIP3    H159957   1.420   2.060   3.425 -1.7782 -0.0828  1.0208
12822TIP3    H259958   1.436   1.912   3.453  1.2707 -0.2822 -1.4088
12823TIP3   OH259959   3.345   6.039  13.755  0.1311  0.2349  0.1783
12823TIP3    H159960   3.345   6.036  13.851 -0.7273 -1.0349  0.1530
12823TIP3    H259961   3.437   6.027  13.731  0.6793  2.7008  0.8715
12824TIP3   OH259962   5.862   5.136  10.741 -0.5638 -0.2176  0.4801
12824TIP3    H159963   5.861   5.050  10.784 -1.5155 -0.2695  0.3792
12824TIP3    H259964   5.796   5.129  10.672 -1.7763  1.0772  1.4610
12825TIP3   OH259965   3.968   3.108  13.392  0.4828 -0.3502 -0.4619
12825TIP3    H159966   4.021   3.047  13.341 -0.0219 -0.8485 -0.4005
12825TIP3    H259967   4.011   3.114  13.477  0.5741 -0.5614 -0.4939
12826TIP3   OH259968   3.364   2.056  16.489 -1.0092  0.3617  0.2277
12826TIP3    H159969   3.334   2.040  16.579  1.6153 -1.3406  0.8320
12826TIP3    H259970   3.370   1.970  16.450 -1.0212  1.0212 -1.2456
12827TIP3   OH259971   4.150   1.505   2.754 -0.3249  0.5755  0.1355
12827TIP3    H159972   4.232   1.458   2.762  0.3160  1.4733 -1.0896
12827TIP3    H259973   4.117   1.510   2.844  1.2681  0.7624  0.7256
12828TIP3   OH259974   6.562   3.525  13.758  0.1788  0.4120  0.1018
12828TIP3    H159975   6.612   3.451  13.792 -0.3825  0.7088  1.6117
12828TIP3    H259976   6.628   3.583  13.719  0.8531  0.1419  0.8343
12829TIP3   OH259977   2.794   0.100  12.410  0.1806  0.4174  0.2277
12829TIP3    H159978   2.798   0.071  12.501 -1.0852 -0.2861  0.0719
12829TIP3    H259979   2.886   0.105  12.382  0.5023 -3.1765  0.3748
12830TIP3   OH259980   6.127   5.898   0.563  0.3901 -0.1305 -0.1406
12830TIP3    H159981   6.184   5.909   0.487  2.2071 -1.9584  0.9087
12830TIP3    H259982   6.039   5.888   0.526  1.1961 -0.6444 -1.9739
12831TIP3   OH259983   1.000   1.164  15.439 -0.1874 -0.0021 -0.0839
12831TIP3    H159984   1.092   1.146  15.461 -0.7275  0.0825  2.2995
12831TIP3    H259985   0.983   1.250  15.478 -1.6122 -0.5297  0.4460
12832TIP3   OH259986   3.290   3.050   0.541  0.2524  0.7030  0.7983
12832TIP3    H159987   3.379   3.080   0.558  0.6987  0.4551 -1.0796
12832TIP3    H259988   3.296   2.955   0.534 -0.3332  0.5933  1.6288
12833TIP3   OH259989   1.133   4.844  12.997 -0.3769  0.0194  0.4121
12833TIP3    H159990   1.191   4.881  12.931  0.3079  3.4239  2.7702
12833TIP3    H259991   1.153   4.750  12.996  1.3108  0.3330 -2.5066
12834TIP3   OH259992   3.369   5.608   4.191 -0.4134  0.2350 -0.0470
12834TIP3    H159993   3.336   5.689   4.152 -0.1767 -0.2964 -1.3756
12834TIP3    H259994   3.429   5.573   4.125  1.6203  0.3876  1.6744
12835TIP3   OH259995   5.638   5.377  14.531  0.1585  0.2910  0.1252
12835TIP3    H159996   5.603   5.288  14.530  0.8627  0.0044  0.3737
12835TIP3    H259997   5.566   5.432  14.501 -0.2007 -0.3913 -0.2718
12836TIP3   OH259998   0.611   0.440  16.977  0.1556 -0.1906  0.3587
12836TIP3    H159999   0.582   0.361  17.022 -0.9544  0.5894  1.0209
12836TIP3    H260000   0.696   0.460  17.017 -0.4625  0.0559  1.5690
12837TIP3   OH260001   4.314   0.717   4.726  0.6211  0.1733 -0.4332
12837TIP3    H160002   4.350   0.714   4.815 -0.0795 -0.4377 -0.1701
12837TIP3    H260003   4.334   0.631   4.690  0.5174  0.2702 -0.7181
12838TIP3   OH260004   3.468   1.708   2.392  0.1584 -0.2579  0.0109
12838TIP3    H160005   3.499   1.785   2.438 -1.1149  0.0709  0.3510
12838TIP3    H260006   3.429   1.742   2.312 -2.4345 -0.2846  1.1985
12839TIP3   OH260007   2.561   3.451   0.556  0.3158 -0.1651 -0.5414
12839TIP3    H160008   2.493   3.517   0.568 -0.9058 -1.3119 -1.1405
12839TIP3    H260009   2.629   3.476   0.619 -1.2329  0.2147  1.0041
12840TIP3   OH260010   3.686   5.692  15.345 -0.3094  0.8427 -0.1470
12840TIP3    H160011   3.598   5.663  15.324  0.0090  0.1299 -0.5290
12840TIP3    H260012   3.727   5.710  15.260  1.2602 -2.8698 -0.2484
12841TIP3   OH260013   0.184   4.788  12.152 -0.0842  0.5428 -0.2156
12841TIP3    H160014   0.219   4.857  12.209 -1.2972  1.1466 -0.1749
12841TIP3    H260015   0.258   4.761  12.099  0.6029  1.3308  0.3230
12842TIP3   OH260016   5.026   4.516  15.030 -0.1343  1.1219  0.0878
12842TIP3    H160017   5.036   4.487  14.940  1.9440  1.2491  0.2400
12842TIP3    H260018   4.933   4.533  15.041 -0.2254  2.4051 -2.4352
12843TIP3   OH260019   6.006   2.953  17.122  0.5997 -0.3832  0.4251
12843TIP3    H160020   6.031   3.033  17.168 -2.4974  0.1642  1.2654
12843TIP3    H260021   6.050   2.883  17.169  2.2465  0.6799  0.5123
12844TIP3   OH260022   5.046   2.206  12.547 -0.1848  0.3884  0.1727
12844TIP3    H160023   5.116   2.240  12.604  1.2743  2.6120 -2.8255
12844TIP3    H260024   4.974   2.269  12.558 -0.2218  0.3459  0.1757
12845TIP3   OH260025   2.053   5.845  16.309  0.0563 -0.3275  0.0281
12845TIP3    H160026   1.970   5.819  16.349 -0.4195 -0.8793 -1.3060
12845TIP3    H260027   2.043   5.825  16.216  1.1630  0.9108 -0.3821
12846TIP3   OH260028   1.307   5.158  11.917 -0.3724 -0.1227  0.0971
12846TIP3    H160029   1.271   5.155  11.829 -0.1306 -0.9396  0.0256
12846TIP3    H260030   1.230   5.159  11.974 -0.5204 -0.9186 -0.0840
12847TIP3   OH260031   6.714   1.837  14.123 -0.2230  0.3090 -0.0018
12847TIP3    H160032   6.750   1.923  14.145 -0.7204  0.5222 -0.0026
12847TIP3    H260033   6.660   1.813  14.198  0.7013 -0.4584  0.4298
12848TIP3   OH260034   0.754   5.569   2.217  0.0363 -0.1865  0.8703
12848TIP3    H160035   0.672   5.618   2.209 -0.9395 -2.0393 -1.0910
12848TIP3    H260036   0.760   5.547   2.310 -0.9808  1.1100  1.2625
12849TIP3   OH260037   2.319   0.861   1.067 -0.1660 -0.2215 -0.1938
12849TIP3    H160038   2.287   0.795   1.129  0.0376  0.3417  0.5099
12849TIP3    H260039   2.336   0.812   0.987 -4.0525 -0.3911 -1.0527
12850TIP3   OH260040   3.967   6.200  13.303 -0.1570  0.5045 -0.0680
12850TIP3    H160041   3.978   6.169  13.393  1.4550 -1.6768 -0.9626
12850TIP3    H260042   4.028   6.273  13.295 -0.1970  0.6076  0.5803
12851TIP3   OH260043   3.273   1.971   2.686 -0.1540  0.2890  0.1543
12851TIP3    H160044   3.251   2.024   2.610 -1.4025 -0.0241  0.2776
12851TIP3    H260045   3.189   1.958   2.731  0.3916 -0.4577  0.9784
12852TIP3   OH260046   5.013   6.643   4.540 -0.3240 -1.0505 -0.2495
12852TIP3    H160047   4.918   6.629   4.533 -0.8704  1.8874  0.7592
12852TIP3    H260048   5.046   6.623   4.452 -2.3120  0.9349 -1.5112
12853TIP3   OH260049   4.290   1.815   1.348  0.4859  0.1456  0.0662
12853TIP3    H160050   4.269   1.889   1.291 -1.5695 -2.3080 -2.5271
12853TIP3    H260051   4.373   1.781   1.314  0.6576  0.3469  0.2851
12854TIP3   OH260052   5.515   0.002   5.731 -0.4575  0.3858  0.0530
12854TIP3    H160053   5.449   0.014   5.799 -0.5205 -0.1065  0.0815
12854TIP3    H260054   5.578  -0.059   5.769 -1.4643 -1.3603 -0.9946
12855TIP3   OH260055   1.775   1.213  14.303 -0.2966 -0.6768 -0.6868
12855TIP3    H160056   1.782   1.245  14.392 -2.7340  3.2745 -1.7792
12855TIP3    H260057   1.861   1.176  14.283  1.7430  2.5442  1.7627
12856TIP3   OH260058   3.818   6.624  15.705 -0.2402  0.2546 -0.5288
12856TIP3    H160059   3.807   6.543  15.755  1.8858  0.2344 -0.0592
12856TIP3    H260060   3.744   6.679  15.731 -1.0733 -1.1057 -0.0095
12857TIP3   OH260061   0.732   4.843  16.821 -0.6132 -0.4149 -0.0206
12857TIP3    H160062   0.641   4.867  16.807  0.0666  1.8378 -0.7563
12857TIP3    H260063   0.777   4.926  16.836  0.9840 -1.6408  2.3814
12858TIP3   OH260064   4.449   4.483   1.273  0.3802 -0.0282  0.0085
12858TIP3    H160065   4.371   4.510   1.321 -0.1377 -1.0528 -0.2369
12858TIP3    H260066   4.422   4.404   1.226  1.8803 -1.0458  0.8292
12859TIP3   OH260067   4.641   0.115  16.044  0.0389  0.7950 -0.0306
12859TIP3    H160068   4.713   0.167  16.009  0.1920  1.2422  0.9359
12859TIP3    H260069   4.584   0.178  16.088 -0.4374  0.3137  0.0482
12860TIP3   OH260070   5.015   5.321   1.446 -0.4377  0.1021 -0.5019
12860TIP3    H160071   4.927   5.311   1.410 -0.2300  0.9038 -1.2514
12860TIP3    H260072   5.042   5.232   1.470 -1.9482  0.0032  0.9356
12861TIP3   OH260073   1.318   3.481   1.601 -0.5425  0.1114 -0.3826
12861TIP3    H160074   1.260   3.532   1.657  0.0572  0.8356 -0.4090
12861TIP3    H260075   1.281   3.490   1.513  0.4260  1.8159 -0.6485
12862TIP3   OH260076   6.460   1.523  14.359  0.3998 -0.0678  0.0585
12862TIP3    H160077   6.507   1.604  14.380  0.9738 -0.0839 -1.1293
12862TIP3    H260078   6.432   1.535  14.268  0.5063 -1.2159 -0.1317
12863TIP3   OH260079   4.858   3.551   1.053  0.2394  0.1985 -0.0593
12863TIP3    H160080   4.795   3.598   1.108  0.5856  1.2105 -0.5207
12863TIP3    H260081   4.804   3.489   1.003 -0.5092  1.6442 -1.0697
12864TIP3   OH260082   5.927   0.350   4.867 -0.4109 -0.2220  0.5401
12864TIP3    H160083   5.920   0.441   4.838 -3.5742 -0.2178  1.1010
12864TIP3    H260084   5.914   0.299   4.787 -1.4863 -0.1777  0.6799
12865TIP3   OH260085   0.048   5.487   3.936  0.3740  0.5973  0.0554
12865TIP3    H160086   0.079   5.570   3.901  1.4592  0.0979 -0.1945
12865TIP3    H260087   0.007   5.443   3.861  1.2573  0.2192 -0.2172
12866TIP3   OH260088   2.026   2.652   0.910 -0.6285 -0.5431  0.3241
12866TIP3    H160089   2.018   2.714   0.838  0.5408  1.1597  1.5981
12866TIP3    H260090   1.965   2.685   0.977 -0.9695 -1.5291  0.5114
12867TIP3   OH260091   4.698   1.263   0.806 -0.6909  0.5194 -0.0263
12867TIP3    H160092   4.692   1.339   0.748  2.2891 -0.1947 -1.3587
12867TIP3    H260093   4.720   1.299   0.892 -0.3399  1.2354 -0.4149
12868TIP3   OH260094   3.634   5.223  12.597  0.3939 -0.0888  0.2897
12868TIP3    H160095   3.700   5.289  12.576 -1.3276  2.0997  1.5256
12868TIP3    H260096   3.563   5.238  12.535  0.2530 -1.2018  0.1676
12869TIP3   OH260097   2.744   5.259  12.520  0.1029  0.1478  0.3474
12869TIP3    H160098   2.676   5.239  12.585 -1.7673 -0.8259 -1.8133
12869TIP3    H260099   2.812   5.193  12.535  0.3085  0.7258  2.1109
12870TIP3   OH260100   3.780   1.870  16.270  0.5796  0.3179  0.1324
12870TIP3    H160101   3.858   1.865  16.215  1.0306  2.9066  0.4496
12870TIP3    H260102   3.807   1.831  16.353  1.1796  0.1421 -0.1417
12871TIP3   OH260103   0.093   5.995   1.186 -0.0671 -0.3019 -0.2067
12871TIP3    H160104   0.161   5.995   1.120  0.5908 -1.3445  0.4604
12871TIP3    H260105   0.081   6.088   1.208  2.8851 -0.2260  1.4249
12872TIP3   OH260106   0.448   3.065  15.828 -0.2442  0.5031 -0.2856
12872TIP3    H160107   0.473   3.085  15.918 -2.5061 -0.9978  0.7369
12872TIP3    H260108   0.390   3.137  15.802  0.8046  1.1981 -0.7549
12873TIP3   OH260109   1.429   5.598  11.913  0.9701  0.3063 -0.4386
12873TIP3    H160110   1.364   5.640  11.857 -0.8564 -1.3718  0.3436
12873TIP3    H260111   1.461   5.667  11.970 -1.4600  0.8459  0.3575
12874TIP3   OH260112   5.799   4.383   5.398  0.4126 -0.0267  0.4703
12874TIP3    H160113   5.771   4.304   5.443 -2.2261 -0.1083 -1.1956
12874TIP3    H260114   5.733   4.448   5.420  1.6820  1.2679  0.5373
12875TIP3   OH260115   4.008   1.092   4.613 -0.3842  0.0518  0.2372
12875TIP3    H160116   4.017   0.999   4.637  0.5452  0.1118  0.1181
12875TIP3    H260117   4.059   1.102   4.533  0.1850  0.8501  0.6977
12876TIP3   OH260118   0.181   5.636  11.244 -0.1469  0.1752 -0.0083
12876TIP3    H160119   0.102   5.689  11.249 -0.8756 -0.9682  0.8610
12876TIP3    H260120   0.217   5.653  11.156 -1.7342  0.1600 -0.6663
12877TIP3   OH260121   0.932   3.979  16.156  0.0791  0.1613  0.0278
12877TIP3    H160122   0.871   4.041  16.117  0.0795  1.9255  2.7159
12877TIP3    H260123   1.016   4.025  16.156  1.0367 -1.5001 -1.8348
12878TIP3   OH260124   0.656   1.096  13.422 -0.7240  0.4169 -0.2793
12878TIP3    H160125   0.624   1.025  13.477 -0.4947  0.2002 -0.4254
12878TIP3    H260126   0.733   1.060  13.378  0.1077  1.1342  0.5624
12879TIP3   OH260127   1.926   4.754  11.017 -0.6088  0.0492 -0.0598
12879TIP3    H160128   1.950   4.761  11.110 -2.0704  0.3810  0.3175
12879TIP3    H260129   1.932   4.660  10.999  0.0204  0.0197  0.2733
12880TIP3   OH260130   1.101   0.306   3.287 -0.7966  0.3727  0.4367
12880TIP3    H160131   1.091   0.400   3.274 -0.9568  0.2965 -0.0001
12880TIP3    H260132   1.188   0.295   3.325  0.2357  0.4796 -1.8749
12881TIP3   OH260133   0.290   1.030  17.053  0.2036  0.2107  0.3249
12881TIP3    H160134   0.385   1.024  17.066  0.4281  0.1318 -1.2754
12881TIP3    H260135   0.278   1.111  17.003 -0.5070 -0.1501 -0.0933
12882TIP3   OH260136   6.221   3.497   2.023  0.5887 -0.6563  0.2748
12882TIP3    H160137   6.214   3.405   2.051 -2.2006 -0.2611  0.9998
12882TIP3    H260138   6.265   3.493   1.938 -0.6540 -2.7743 -0.2963
12883TIP3   OH260139   5.169   1.098  13.292 -0.2369  0.6741  0.4044
12883TIP3    H160140   5.243   1.088  13.352  0.4367 -5.1734 -1.1454
12883TIP3    H260141   5.093   1.067  13.342 -0.2126 -1.0639 -0.5886
12884TIP3   OH260142   1.292   2.185  15.290  0.4701 -0.1143  0.2333
12884TIP3    H160143   1.294   2.235  15.371 -0.8560  1.5155 -0.7044
12884TIP3    H260144   1.248   2.104  15.313 -0.5559  0.6403  0.9970
12885TIP3   OH260145   6.430   2.562   2.153 -0.2295  0.2256  0.0839
12885TIP3    H160146   6.381   2.495   2.106 -0.7490  1.0949 -0.6378
12885TIP3    H260147   6.404   2.551   2.245 -0.4436 -0.4360 -0.0530
12886TIP3   OH260148   4.634   1.394  13.018  0.4698 -0.2909 -0.9782
12886TIP3    H160149   4.645   1.300  13.027  0.8369 -0.1733 -0.0512
12886TIP3    H260150   4.577   1.419  13.091 -0.0098  0.1303 -1.4975
12887TIP3   OH260151   2.829   3.115   3.993  0.3628  0.3447  0.6231
12887TIP3    H160152   2.919   3.119   3.960 -0.2074 -0.9208 -1.1887
12887TIP3    H260153   2.807   3.206   4.013  1.7255  0.7861  0.1929
12888TIP3   OH260154   3.945   6.356   2.476 -0.3052  0.1598  0.6034
12888TIP3    H160155   3.933   6.444   2.439  0.0063  0.2038  0.6050
12888TIP3    H260156   4.039   6.349   2.490 -0.1634 -0.6846 -0.6799
12889TIP3   OH260157   0.136   3.957  14.794 -0.7910 -0.0427 -0.1609
12889TIP3    H160158   0.182   3.873  14.793 -2.4994 -0.9778 -0.5683
12889TIP3    H260159   0.079   3.954  14.718 -0.6838  1.6045 -0.3179
12890TIP3   OH260160   4.537   5.919  14.831 -0.2453  0.6926  0.1626
12890TIP3    H160161   4.459   5.863  14.820 -0.5797  1.0882  0.5235
12890TIP3    H260162   4.602   5.861  14.871  0.7237 -0.5626 -3.0304
12891TIP3   OH260163   0.633   2.058  14.729 -0.1933  0.3019 -0.0202
12891TIP3    H160164   0.663   2.008  14.805  0.2757 -0.5914 -0.7931
12891TIP3    H260165   0.554   2.103  14.760 -1.5665 -2.1901  0.1881
12892TIP3   OH260166   5.718   2.252   2.411  0.2174  0.1797 -0.6827
12892TIP3    H160167   5.641   2.265   2.356 -1.1142  1.4299  1.4118
12892TIP3    H260168   5.682   2.222   2.495  2.0940 -0.2694 -0.0230
12893TIP3   OH260169   5.070   1.889   6.658 -0.5732 -0.6957  0.4058
12893TIP3    H160170   5.117   1.833   6.720  0.6543  0.2373  0.3108
12893TIP3    H260171   5.113   1.974   6.663 -0.9667 -0.3816 -1.1419
12894TIP3   OH260172   6.623   1.800  15.142  0.1367  0.5531 -0.0183
12894TIP3    H160173   6.630   1.748  15.223  0.6765 -0.1560 -0.5175
12894TIP3    H260174   6.649   1.739  15.073 -0.5229  1.1011 -0.7484
12895TIP3   OH260175   4.651   0.955   1.287  0.1390  0.0029 -0.2078
12895TIP3    H160176   4.676   0.862   1.282  0.8139  0.0531  1.8095
12895TIP3    H260177   4.734   1.002   1.281 -0.2148  0.5081 -1.3234
12896TIP3   OH260178   0.434   2.423   6.562 -0.1546  0.1362 -0.9145
12896TIP3    H160179   0.429   2.482   6.637 -0.0577  1.9577 -2.2918
12896TIP3    H260180   0.345   2.392   6.548 -0.0969 -0.5327  0.1960
12897TIP3   OH260181   4.337   1.187  13.604  0.7152 -0.1057 -0.6135
12897TIP3    H160182   4.260   1.134  13.582 -0.3978  0.9740  0.5874
12897TIP3    H260183   4.315   1.275  13.573  0.6007  0.6507  1.5238
12898TIP3   OH260184   4.643   1.897   2.019 -0.1394  0.2010 -0.0878
12898TIP3    H160185   4.606   1.977   1.984 -0.5629 -0.7341 -1.8305
12898TIP3    H260186   4.583   1.828   1.991  0.8926 -0.8760  0.3009
12899TIP3   OH260187   6.132   5.523   5.390  0.4410 -0.0786  0.3021
12899TIP3    H160188   6.112   5.532   5.297 -2.9254 -1.9826  0.7760
12899TIP3    H260189   6.206   5.463   5.393  0.3419 -0.2747 -1.1181
12900TIP3   OH260190   0.628   5.186  13.548  0.2054 -0.4349  0.4447
12900TIP3    H160191   0.713   5.228  13.560  0.3378  0.2276 -2.3423
12900TIP3    H260192   0.649   5.100  13.512 -0.2960  0.3765 -1.9165
12901TIP3   OH260193   2.019   6.224   3.994  0.3353 -0.2354  0.2783
12901TIP3    H160194   2.101   6.246   4.037  0.1195  1.1576 -0.0220
12901TIP3    H260195   2.046   6.186   3.910  0.7365 -2.4445  1.3497
12902TIP3   OH260196   3.420   3.636   0.387 -0.6337 -0.2715  0.2220
12902TIP3    H160197   3.486   3.705   0.396 -0.5071 -0.2214 -1.0520
12902TIP3    H260198   3.380   3.631   0.474  0.3584  0.3881  0.7367
12903TIP3   OH260199   5.290   1.363   0.608  0.3593 -0.2079  0.2518
12903TIP3    H160200   5.344   1.435   0.639  0.9903 -0.6990  0.2895
12903TIP3    H260201   5.245   1.330   0.686  0.2730 -0.0261  0.2777
12904TIP3   OH260202   3.834   2.842   0.638  0.4609  0.0123  0.3750
12904TIP3    H160203   3.882   2.827   0.557 -3.1245  0.7655 -1.9882
12904TIP3    H260204   3.813   2.936   0.637 -2.0983 -0.5129  0.6802
12905TIP3   OH260205   0.159   1.826  16.420 -0.2281 -0.6394  0.3392
12905TIP3    H160206   0.087   1.807  16.481 -0.1229 -0.8657  0.3923
12905TIP3    H260207   0.116   1.838  16.335 -0.3352 -0.7132  0.3826
12906TIP3   OH260208   2.240   0.058   3.914  0.2330 -0.5126  0.6104
12906TIP3    H160209   2.158   0.017   3.942  0.3870 -1.5948 -0.4963
12906TIP3    H260210   2.284   0.082   3.995 -0.7653 -0.7372  1.2312
12907TIP3   OH260211   6.146   6.118  10.539  0.4246 -0.5108 -0.2672
12907TIP3    H160212   6.078   6.051  10.527 -0.7394  0.9972 -2.5046
12907TIP3    H260213   6.225   6.079  10.501 -0.6125 -0.0871 -2.9612
12908TIP3   OH260214   0.976   0.132   6.457  0.8311 -0.4219 -0.0618
12908TIP3    H160215   1.070   0.139   6.441  1.1285 -0.8022  1.4407
12908TIP3    H260216   0.957   0.199   6.523  0.3311 -1.2905  0.6969
12909TIP3   OH260217   3.957   6.789   4.324 -0.5026 -0.1323  0.1101
12909TIP3    H160218   4.032   6.756   4.375 -0.8334  0.7967  1.2182
12909TIP3    H260219   3.993   6.806   4.237  0.6833  0.6899  0.7511
12910TIP3   OH260220   3.609   0.263  17.098  0.9132  0.2376 -0.5490
12910TIP3    H160221   3.602   0.168  17.097  1.6394  0.0934  2.7591
12910TIP3    H260222   3.519   0.294  17.109  0.8895 -0.1355  0.3015
12911TIP3   OH260223   2.720   6.485   3.161 -0.0832 -0.8969  0.6148
12911TIP3    H160224   2.697   6.463   3.251  2.0778  1.4833  1.7930
12911TIP3    H260225   2.789   6.422   3.138 -1.3394 -2.1654  0.2168
12912TIP3   OH260226   3.759   5.257  10.605 -0.6336 -0.1836  0.1904
12912TIP3    H160227   3.791   5.173  10.574 -0.0273  0.3182 -0.5774
12912TIP3    H260228   3.675   5.268  10.561 -0.2922  0.0174 -0.4237
12913TIP3   OH260229   4.621   0.499   5.366  0.0045  0.5802 -0.1194
12913TIP3    H160230   4.638   0.543   5.450  0.3439 -2.4570  1.4836
12913TIP3    H260231   4.706   0.463   5.341 -0.4459  0.0955 -0.9475
12914TIP3   OH260232   3.042   2.882  16.914 -0.3424 -0.2225 -0.5376
12914TIP3    H160233   2.992   2.807  16.949  0.7041 -0.2768  0.9095
12914TIP3    H260234   2.994   2.909  16.836 -1.9277 -1.0734  0.1203
12915TIP3   OH260235   2.527   0.153  12.437  0.1288 -0.0979  0.0769
12915TIP3    H160236   2.516   0.239  12.477  0.9104 -0.5210  1.2322
12915TIP3    H260237   2.622   0.145  12.425 -0.0754 -0.0692 -1.6670
12916TIP3   OH260238   1.756   1.634   3.024  0.2272  0.4426 -0.0004
12916TIP3    H160239   1.848   1.660   3.035  0.1013 -0.2229  2.8191
12916TIP3    H260240   1.711   1.716   3.003  1.2621  0.9781 -0.1738
12917TIP3   OH260241   6.266   1.787  16.356  0.4406 -0.0264 -0.6047
12917TIP3    H160242   6.216   1.705  16.349  2.2572 -1.0808 -1.6934
12917TIP3    H260243   6.241   1.837  16.278  1.3775 -0.7406 -1.3793
12918TIP3   OH260244   6.406   4.841   5.835  0.3621  0.4727 -0.3924
12918TIP3    H160245   6.362   4.919   5.801  0.5042  0.5399 -0.4245
12918TIP3    H260246   6.404   4.779   5.762 -0.1204  0.2951 -0.2258
12919TIP3   OH260247   2.293   3.580   1.102  0.4174  0.0480 -0.3405
12919TIP3    H160248   2.206   3.610   1.074 -0.3828 -1.6379  0.2340
12919TIP3    H260249   2.298   3.606   1.194  1.0836  1.3470 -0.7395
12920TIP3   OH260250   5.688   5.644   4.668 -0.3943 -0.6663 -0.1200
12920TIP3    H160251   5.729   5.606   4.590 -0.4039  1.6428 -1.3153
12920TIP3    H260252   5.742   5.614   4.741  1.6108 -0.2133 -1.3644
12921TIP3   OH260253   3.633   3.351  12.662  0.2076 -0.4544  0.4966
12921TIP3    H160254   3.687   3.337  12.740  0.4098 -1.8299  0.1179
12921TIP3    H260255   3.680   3.417  12.612 -0.3908  1.1354  1.9714
12922TIP3   OH260256   3.225   3.033  16.014  0.1431 -0.1224  0.7546
12922TIP3    H160257   3.202   3.020  15.922 -0.0535 -1.0904  0.9334
12922TIP3    H260258   3.144   3.016  16.062 -0.0264  1.4114  1.0412
12923TIP3   OH260259   2.599   5.834  12.613  0.1470 -0.1352  0.2389
12923TIP3    H160260   2.579   5.900  12.679 -1.0417 -1.0348  0.8078
12923TIP3    H260261   2.531   5.846  12.546  1.3451  0.7682 -0.8173
12924TIP3   OH260262   1.691   5.505   0.798 -0.0472  0.2505 -0.2936
12924TIP3    H160263   1.708   5.533   0.888 -1.6169  0.0586  0.0825
12924TIP3    H260264   1.773   5.522   0.752 -0.2178  3.2883  0.4508
12925TIP3   OH260265   1.204   4.625   2.832  0.4142  0.3959 -0.1162
12925TIP3    H160266   1.162   4.642   2.747  1.0342  0.6615 -0.3795
12925TIP3    H260267   1.132   4.625   2.895  0.1499  2.0273 -0.3980
12926TIP3   OH260268   6.008   1.499   1.310 -0.0960 -0.3690  0.0879
12926TIP3    H160269   5.943   1.557   1.349 -0.7945 -1.8926  1.2254
12926TIP3    H260270   5.969   1.473   1.226  0.8005  1.8046 -1.0463
12927TIP3   OH260271   3.712   4.313   5.839 -0.4619  0.0147  0.2811
12927TIP3    H160272   3.780   4.349   5.782  1.3172 -1.9306  1.1184
12927TIP3    H260273   3.637   4.300   5.781 -0.7163  3.6902 -0.3144
12928TIP3   OH260274   6.108   5.376  11.009 -0.2666  0.0595 -0.6985
12928TIP3    H160275   6.143   5.465  11.012  2.6072 -1.0368  1.7918
12928TIP3    H260276   6.172   5.327  10.957 -0.4349 -1.0529  0.1185
12929TIP3   OH260277   4.110   0.217   2.429 -0.0199 -0.5707  0.0893
12929TIP3    H160278   4.139   0.285   2.367  0.7802 -0.4999  0.5350
12929TIP3    H260279   4.035   0.255   2.474  0.5163  0.0802  0.4406
12930TIP3   OH260280   2.676   5.362   3.502 -0.0350  0.0549  0.0536
12930TIP3    H160281   2.653   5.276   3.538 -0.0474 -0.1004 -0.3202
12930TIP3    H260282   2.744   5.395   3.562  0.0038 -0.2345  0.1747
12931TIP3   OH260283   5.199   3.318   5.778  0.3702  0.2551 -0.3707
12931TIP3    H160284   5.158   3.400   5.752  1.1482  0.5907 -0.5494
12931TIP3    H260285   5.205   3.323   5.873  0.0303  0.2164 -0.3456
12932TIP3   OH260286   5.226   3.049   3.301  0.6118  0.0810 -0.2665
12932TIP3    H160287   5.131   3.060   3.289  0.6771  0.5655 -0.3271
12932TIP3    H260288   5.255   3.132   3.338  0.5617 -1.0293  2.4064
12933TIP3   OH260289   6.430   2.522  13.399  0.4072  0.0328  0.0276
12933TIP3    H160290   6.462   2.434  13.378  2.6584  0.7972  0.1768
12933TIP3    H260291   6.446   2.532  13.493 -2.2607 -0.3546  0.5619
12934TIP3   OH260292   3.870   4.117  14.999 -0.6266  0.0695 -0.1707
12934TIP3    H160293   3.951   4.068  15.015 -0.8865 -0.4811 -0.5212
12934TIP3    H260294   3.896   4.209  15.006 -0.0489 -0.1087  0.0864
12935TIP3   OH260295   3.806   6.665  11.258 -0.9950  0.5254 -0.6774
12935TIP3    H160296   3.805   6.570  11.273 -0.5069  0.6183 -0.0614
12935TIP3    H260297   3.825   6.674  11.164 -0.4590  0.0334 -0.6157
12936TIP3   OH260298   5.581   5.806  15.878  0.2111  0.0660 -0.3611
12936TIP3    H160299   5.526   5.875  15.843 -1.9399 -1.5572 -0.2941
12936TIP3    H260300   5.606   5.754  15.801 -0.1867 -0.4771 -0.1271
12937TIP3   OH260301   4.163   1.085   4.023 -0.0636 -0.0744 -0.3668
12937TIP3    H160302   4.101   1.155   4.004 -0.3698 -0.2328  0.0307
12937TIP3    H260303   4.239   1.129   4.062  0.4111  0.2071 -1.5820
12938TIP3   OH260304   1.426   3.310  13.463  0.7901  0.0683  0.8486
12938TIP3    H160305   1.424   3.296  13.558  2.0025 -1.8873  0.6200
12938TIP3    H260306   1.519   3.322  13.443  0.6014 -0.1234 -0.1604
12939TIP3   OH260307   2.407   0.789   2.647 -0.4678  0.5388  0.1795
12939TIP3    H160308   2.328   0.843   2.644 -1.1998 -0.5019  0.2046
12939TIP3    H260309   2.422   0.763   2.555 -1.2202 -0.7495  0.4066
12940TIP3   OH260310   4.404   6.552   5.122 -0.3485 -0.1067 -0.5526
12940TIP3    H160311   4.402   6.633   5.070  1.4055 -1.1458 -2.2995
12940TIP3    H260312   4.338   6.496   5.082 -0.8542  0.0792  0.0189
12941TIP3   OH260313   6.583   3.651   2.623  0.8325 -0.2626  0.4767
12941TIP3    H160314   6.655   3.618   2.677  1.2797  2.4149  1.6379
12941TIP3    H260315   6.626   3.706   2.557  0.0373 -0.8748 -0.5620
12942TIP3   OH260316   1.875   4.988  11.743 -0.3842 -0.1886  0.3042
12942TIP3    H160317   1.817   5.062  11.762  0.0653 -0.2586  2.0490
12942TIP3    H260318   1.963   5.023  11.756 -0.1543 -0.9174  0.7157
12943TIP3   OH260319   3.948   5.581   1.886  0.2856 -0.3783  0.1284
12943TIP3    H160320   3.958   5.507   1.946  0.8204 -0.6348 -0.2658
12943TIP3    H260321   3.993   5.552   1.806  2.3312  1.1972  0.6778
12944TIP3   OH260322   5.975   5.050  13.301  0.0736 -0.4517 -0.5989
12944TIP3    H160323   6.030   5.065  13.223  0.8049 -0.0681 -0.0187
12944TIP3    H260324   5.900   5.001  13.268 -0.3388  0.9305 -1.8327
12945TIP3   OH260325   2.735   5.313   2.370  0.0593  0.6322 -0.2560
12945TIP3    H160326   2.660   5.357   2.331 -0.9078 -1.2064 -0.5080
12945TIP3    H260327   2.763   5.249   2.304  0.4583 -0.2219  0.7236
12946TIP3   OH260328   4.227   0.691  14.180 -0.1610  0.2389  0.0219
12946TIP3    H160329   4.309   0.673  14.134 -0.5264 -1.0234 -0.1398
12946TIP3    H260330   4.179   0.608  14.178 -1.2420  0.8408  0.5261
12947TIP3   OH260331   3.325   2.253  13.784  0.1948 -0.5997 -0.0114
12947TIP3    H160332   3.386   2.309  13.832 -0.5444  0.0730  0.1722
12947TIP3    H260333   3.245   2.255  13.837 -0.3668 -0.4954 -0.8509
12948TIP3   OH260334   6.578   0.791  14.773 -0.0096  0.2186 -0.2018
12948TIP3    H160335   6.635   0.764  14.701 -0.2907  1.7600 -1.0159
12948TIP3    H260336   6.516   0.719  14.784  2.1145 -1.5316  0.7412
12949TIP3   OH260337   5.542   3.090  16.777  0.6362  0.1364 -1.0167
12949TIP3    H160338   5.573   3.057  16.692  1.0339 -1.2147 -0.3656
12949TIP3    H260339   5.543   3.013  16.834  0.7843  1.1141  0.3299
12950TIP3   OH260340   2.846   4.584   3.518  0.4151  0.2605  0.1695
12950TIP3    H160341   2.872   4.495   3.492  0.0997 -0.4608  2.2782
12950TIP3    H260342   2.922   4.619   3.564  0.8813  1.4544 -1.4452
12951TIP3   OH260343   4.725   2.309  12.371  0.0287 -0.1761 -0.1947
12951TIP3    H160344   4.737   2.216  12.389 -0.4486 -0.4665 -1.3411
12951TIP3    H260345   4.703   2.313  12.278  0.9577  1.1556 -0.3754
12952TIP3   OH260346   4.170   5.239  11.637  0.4835  0.0317 -0.1654
12952TIP3    H160347   4.144   5.187  11.712 -0.2085 -0.5669 -0.8074
12952TIP3    H260348   4.087   5.273  11.602  0.8553  0.8802 -0.2480
12953TIP3   OH260349   3.554   4.769   0.127 -0.3143 -0.3454  0.2181
12953TIP3    H160350   3.577   4.856   0.159 -1.1473  0.7897 -2.1776
12953TIP3    H260351   3.626   4.713   0.158  0.6476  1.3170  1.0950
12954TIP3   OH260352   5.811   3.771  12.389 -0.0753 -0.0624  0.3851
12954TIP3    H160353   5.822   3.739  12.478  2.1744  0.0025  0.1556
12954TIP3    H260354   5.764   3.701  12.344  0.6385 -1.0061  1.0926
12955TIP3   OH260355   5.336   1.823  15.035 -0.1235 -0.2234  0.4186
12955TIP3    H160356   5.294   1.897  14.992  1.7086  0.6289  0.0429
12955TIP3    H260357   5.340   1.755  14.968 -1.6159 -0.6165  0.7004
12956TIP3   OH260358   0.717   4.155  11.460  0.0386 -0.2327  0.2084
12956TIP3    H160359   0.654   4.224  11.435 -1.6836 -0.5577  3.4338
12956TIP3    H260360   0.768   4.194  11.531  2.6895 -0.4658 -1.4830
12957TIP3   OH260361   2.693   4.887  13.182 -0.0387 -0.7042  0.3854
12957TIP3    H160362   2.692   4.833  13.103  1.0511  0.5409 -0.5185
12957TIP3    H260363   2.784   4.883  13.212 -0.4130 -1.0242  1.4648
12958TIP3   OH260364   4.623   2.250  17.260 -0.2404  0.0376 -0.0554
12958TIP3    H160365   4.626   2.213  17.171 -0.7924 -0.0611 -0.0316
12958TIP3    H260366   4.709   2.231  17.297  0.6632  1.7124 -1.2295
12959TIP3   OH260367   5.720   6.193   1.030 -0.3352  0.2995  0.1014
12959TIP3    H160368   5.809   6.166   1.009 -0.2848  0.7374 -0.2539
12959TIP3    H260369   5.701   6.265   0.970 -2.2120 -2.0500 -2.2409
12960TIP3   OH260370   3.160   1.682  12.060 -0.2742 -0.1418  0.5817
12960TIP3    H160371   3.106   1.648  12.132 -0.9274  4.7303  2.5875
12960TIP3    H260372   3.227   1.734  12.103  0.1862  1.7704 -2.3096
12961TIP3   OH260373   3.163   5.593  14.516 -0.4162  0.1014  0.4704
12961TIP3    H160374   3.139   5.567  14.604 -0.3057 -1.5835  0.0246
12961TIP3    H260375   3.242   5.542  14.497  0.5241  1.7066  0.0184
12962TIP3   OH260376   5.403   2.290   1.867  0.6146 -0.0480  0.4647
12962TIP3    H160377   5.426   2.247   1.949  0.1412 -0.0722  0.5864
12962TIP3    H260378   5.419   2.225   1.799  1.3004  0.0748  0.5078
12963TIP3   OH260379   0.718   6.818   0.350  0.0757 -0.0085  0.0734
12963TIP3    H160380   0.780   6.745   0.344 -0.0088 -0.0768  0.0412
12963TIP3    H260381   0.724   6.862   0.266  0.9820  0.7059  0.5053
12964TIP3   OH260382   4.302   6.554   4.701  0.5069  0.9443  0.9856
12964TIP3    H160383   4.272   6.623   4.760 -2.0396  0.5101  0.2819
12964TIP3    H260384   4.301   6.475   4.755  1.7851  1.1656  1.3402
12965TIP3   OH260385   1.522   1.730   2.731 -0.9312  0.4582  0.5969
12965TIP3    H160386   1.587   1.754   2.798 -1.9767  0.4142  1.6382
12965TIP3    H260387   1.566   1.750   2.648  0.6805 -0.2184  1.2501
12966TIP3   OH260388   3.427   3.661  14.660 -0.5290  0.0403 -0.1880
12966TIP3    H160389   3.423   3.709  14.577  2.6411 -0.4625 -0.6866
12966TIP3    H260390   3.470   3.578  14.638 -2.3885 -1.3842  1.4163
12967TIP3   OH260391   2.920   3.581   3.092  0.2931 -0.1122  0.0412
12967TIP3    H160392   2.824   3.585   3.089  0.2876  1.1275  1.3547
12967TIP3    H260393   2.939   3.487   3.098 -0.8039 -0.4248 -1.1499
12968TIP3   OH260394   5.730   4.821   2.248  0.4141 -0.0921 -0.0039
12968TIP3    H160395   5.643   4.857   2.267  0.0861 -0.1636 -1.3122
12968TIP3    H260396   5.738   4.744   2.305  0.7568  1.5020  2.1593
12969TIP3   OH260397   2.628   5.830  16.571  0.3948  0.7206 -0.4429
12969TIP3    H160398   2.714   5.789  16.562 -1.1875 -2.5158 -1.6028
12969TIP3    H260399   2.614   5.874  16.487  1.3593  2.1830  0.1564
12970TIP3   OH260400   5.416   1.795   1.410 -0.1463  0.0144  0.0062
12970TIP3    H160401   5.333   1.810   1.365 -0.8718 -1.1992  0.9266
12970TIP3    H260402   5.434   1.702   1.399  1.6031  0.4553 -1.0285
12971TIP3   OH260403   5.379   4.319  15.607 -0.1730 -0.1731  0.6532
12971TIP3    H160404   5.416   4.381  15.545  1.2795  0.0284  1.6714
12971TIP3    H260405   5.287   4.342  15.614  0.0256  0.8771 -0.1373
12972TIP3   OH260406   1.591   3.756   2.703 -0.4660  0.1367 -0.3390
12972TIP3    H160407   1.514   3.812   2.693  0.5905  1.7321  0.2619
12972TIP3    H260408   1.580   3.716   2.789 -0.9089 -0.0979 -0.5009
12973TIP3   OH260409   2.792   2.601   6.226 -0.2984  0.1184 -0.4151
12973TIP3    H160410   2.701   2.629   6.219 -0.2496  0.7810  1.3085
12973TIP3    H260411   2.800   2.570   6.316  0.8134 -1.2665 -0.9901
12974TIP3   OH260412   1.253   5.672   6.347  0.1089  0.4695 -0.4839
12974TIP3    H160413   1.297   5.616   6.411 -0.8294  0.6574  0.3272
12974TIP3    H260414   1.315   5.743   6.331  0.0680  0.7824  0.7152
12975TIP3   OH260415   6.179   0.415  14.781 -0.1962  0.0468  0.0935
12975TIP3    H160416   6.098   0.448  14.743  0.0479 -2.4635 -2.7845
12975TIP3    H260417   6.157   0.328  14.814  1.5266 -1.1166 -1.6905
12976TIP3   OH260418   1.571   0.142  14.658 -0.3260  0.4843 -0.7645
12976TIP3    H160419   1.655   0.106  14.627 -0.0243  1.0917 -0.6608
12976TIP3    H260420   1.506   0.079  14.627  0.2303 -0.3722 -0.2199
12977TIP3   OH260421   5.807   6.782  14.929  0.1782  0.2038  0.3711
12977TIP3    H160422   5.838   6.766  15.018 -1.4286 -0.4410  0.8318
12977TIP3    H260423   5.748   6.857  14.937  1.3527  1.2654 -0.4603
12978TIP3   OH260424   1.063   0.563  15.214 -0.5318  0.0941 -0.5899
12978TIP3    H160425   1.100   0.629  15.272 -2.1197 -0.7403  1.4417
12978TIP3    H260426   1.132   0.546  15.150  1.7359  0.1860  1.7437
12979TIP3   OH260427   2.378   4.387  16.133 -0.8418  0.6821 -0.2676
12979TIP3    H160428   2.404   4.384  16.225  0.0272  0.4565 -0.5190
12979TIP3    H260429   2.362   4.296  16.109 -0.2931  0.6634 -0.5626
12980TIP3   OH260430   1.805   4.694  14.223 -0.1792 -0.2331  0.2475
12980TIP3    H160431   1.795   4.789  14.222  0.9888 -0.0964  0.8007
12980TIP3    H260432   1.716   4.661  14.220 -0.6690  0.8930  1.7290
12981TIP3   OH260433   5.323   5.005  14.774 -0.4093 -0.4286  0.0264
12981TIP3    H160434   5.349   4.988  14.683  1.3854 -2.1640  0.8445
12981TIP3    H260435   5.358   5.092  14.793  0.7012 -0.7752 -0.4088
12982TIP3   OH260436   1.060   4.718   4.331  0.1776  0.0164 -0.0424
12982TIP3    H160437   1.105   4.771   4.398 -0.7158  1.8620 -0.8597
12982TIP3    H260438   1.025   4.644   4.378 -1.4238  1.8800  1.7704
12983TIP3   OH260439   1.170   2.393   1.214  0.8792 -0.6709  0.1135
12983TIP3    H160440   1.149   2.447   1.291 -0.0213 -0.6644 -0.1363
12983TIP3    H260441   1.257   2.358   1.233  2.1893  2.1052 -0.3856
12984TIP3   OH260442   5.432   1.820  11.524 -0.5084  0.1896  0.0490
12984TIP3    H160443   5.360   1.868  11.566 -0.4980 -0.9262  1.3798
12984TIP3    H260444   5.510   1.870  11.548 -0.4668 -0.6027  1.6830
12985TIP3   OH260445   4.746   5.931  14.419 -0.0032  0.7023 -0.5128
12985TIP3    H160446   4.773   6.005  14.365 -0.8198 -0.7084 -2.9187
12985TIP3    H260447   4.800   5.858  14.389  1.5081  0.4710  2.5171
12986TIP3   OH260448   4.409   2.966   1.095  0.1117  0.1518 -0.0966
12986TIP3    H160449   4.323   2.984   1.057  0.4276  0.1575 -0.8166
12986TIP3    H260450   4.471   3.006   1.033  0.5561  1.7856  1.3505
12987TIP3   OH260451   1.872   4.820   0.909  0.4199  0.4027  0.1308
12987TIP3    H160452   1.804   4.884   0.888  0.4398  0.8623  1.4028
12987TIP3    H260453   1.840   4.737   0.873 -0.6608  0.6901  0.4273
12988TIP3   OH260454   5.244   4.330   4.700 -0.0157 -0.9868  0.1600
12988TIP3    H160455   5.282   4.386   4.633 -0.7944 -0.7671 -0.1060
12988TIP3    H260456   5.292   4.352   4.780 -1.7885  1.6784  0.5416
12989TIP3   OH260457   1.303   5.499   6.555  0.1861 -0.6861  0.4112
12989TIP3    H160458   1.240   5.556   6.600 -1.9047 -3.3755  0.9623
12989TIP3    H260459   1.379   5.497   6.613  0.4116  1.7377  0.2514
12990TIP3   OH260460   3.355   0.834   5.419  0.6942 -0.2761 -0.2003
12990TIP3    H160461   3.447   0.818   5.441  0.2788 -0.0098  1.7964
12990TIP3    H260462   3.338   0.922   5.450 -0.5619 -0.7624  0.5313
12991TIP3   OH260463   4.273   0.522   2.822 -0.1856 -0.1638 -0.3199
12991TIP3    H160464   4.289   0.431   2.797 -0.7084 -0.2575 -0.3354
12991TIP3    H260465   4.227   0.560   2.747  1.1361  0.4677 -0.8246
12992TIP3   OH260466   0.745   2.527   1.802 -0.4436  0.0838  0.2934
12992TIP3    H160467   0.810   2.597   1.799 -0.5927  0.1978 -0.4100
12992TIP3    H260468   0.685   2.547   1.730 -0.8490 -0.4165  0.4864
12993TIP3   OH260469   5.222   1.400   3.789 -0.1021 -0.2222 -1.0090
12993TIP3    H160470   5.257   1.327   3.739 -1.1117 -0.6769 -1.0651
12993TIP3    H260471   5.130   1.379   3.802  0.3335 -0.5639  1.8314
12994TIP3   OH260472   1.545   0.112  13.071  0.4366  0.6074 -0.4327
12994TIP3    H160473   1.485   0.124  13.145 -0.6254 -0.9675 -1.0176
12994TIP3    H260474   1.632   0.106  13.112 -0.0073  0.9871  0.5892
12995TIP3   OH260475   6.757   1.659   4.713 -0.2502  0.3840  0.4407
12995TIP3    H160476   6.794   1.605   4.782 -1.4985 -0.9599  0.1002
12995TIP3    H260477   6.813   1.736   4.709  0.7878 -0.2835  1.8340
12996TIP3   OH260478   6.797   5.675   2.998  0.6913 -0.0422 -0.2630
12996TIP3    H160479   6.790   5.608   2.930  2.5604 -0.6922  0.1612
12996TIP3    H260480   6.789   5.627   3.080  1.6210  0.3000  0.0333
12997TIP3   OH260481   2.086   2.633  11.495  0.1638  0.2923 -0.8382
12997TIP3    H160482   2.136   2.715  11.501 -0.5328  0.7931 -1.8158
12997TIP3    H260483   2.144   2.567  11.533  1.0883  1.0787 -0.8594
12998TIP3   OH260484   6.537   5.957   1.910 -0.0699  0.1651  0.4279
12998TIP3    H160485   6.472   5.965   1.841  0.6028  0.7647 -0.1451
12998TIP3    H260486   6.490   5.916   1.983 -1.0262  0.4076 -0.0481
12999TIP3   OH260487   3.384   4.757   5.333 -0.5755  0.3646  0.3050
12999TIP3    H160488   3.293   4.728   5.332 -0.3903 -0.2768 -2.2394
12999TIP3    H260489   3.380   4.849   5.361 -1.8018 -0.1682  1.9564
13000TIP3   OH260490   2.489   6.322  14.436 -0.1319 -0.2074  0.1542
13000TIP3    H160491   2.491   6.300  14.343  1.6980  0.9241 -0.0869
13000TIP3    H260492   2.580   6.338  14.459 -0.3416 -2.1304  2.5521
13001TIP3   OH260493   2.467   1.951  14.838 -0.3874  0.0021 -0.3201
13001TIP3    H160494   2.428   2.029  14.876  2.7850  1.1209  0.8167
13001TIP3    H260495   2.513   1.983  14.760  0.1225 -0.8587 -0.3835
13002TIP3   OH260496   0.478   4.669  11.319 -0.2763  0.0281 -0.4034
13002TIP3    H160497   0.560   4.641  11.359 -0.9221 -0.7745  0.3802
13002TIP3    H260498   0.489   4.763  11.303  0.7890 -0.0846 -0.3125
13003TIP3   OH260499   3.793   2.983  12.086 -0.1357 -0.0350  0.3410
13003TIP3    H160500   3.816   2.966  12.178 -0.7475 -0.4177  0.4278
13003TIP3    H260501   3.702   3.011  12.089 -0.7894 -2.0271 -0.3492
13004TIP3   OH260502   5.826   6.325   4.822 -0.0603 -0.1544  0.5506
13004TIP3    H160503   5.882   6.352   4.896  0.3648  0.6925 -0.0744
13004TIP3    H260504   5.773   6.402   4.802  0.3990 -0.1134 -0.5476
13005TIP3   OH260505   4.631   2.334  11.572 -0.2248  0.6598  0.5690
13005TIP3    H160506   4.716   2.379  11.564 -0.1285  0.4537  0.4157
13005TIP3    H260507   4.587   2.352  11.489 -0.9116  1.9448  1.2028
13006TIP3   OH260508   3.742   0.444  13.167  0.0847  0.5507 -0.7835
13006TIP3    H160509   3.702   0.462  13.082  0.0862 -2.0632 -1.3759
13006TIP3    H260510   3.836   0.453  13.152  0.0034  1.8204 -0.6024
13007TIP3   OH260511   0.337   5.689  13.242 -0.0255  0.1806  0.6250
13007TIP3    H160512   0.255   5.641  13.230  0.1115 -0.1604  1.0395
13007TIP3    H260513   0.399   5.623  13.271  0.5029  0.3622 -0.0865
13008TIP3   OH260514   0.582   1.045  10.760 -0.4262  0.0058  0.0534
13008TIP3    H160515   0.555   1.091  10.840 -0.7609  1.6312 -0.9525
13008TIP3    H260516   0.674   1.067  10.751 -0.2884 -0.5167  0.2223
13009TIP3   OH260517   0.804   3.387  16.279  0.3134 -0.1410  0.5844
13009TIP3    H160518   0.848   3.307  16.308 -1.1184 -0.4295  2.0538
13009TIP3    H260519   0.772   3.427  16.359 -0.6238  0.9266 -0.3086
13010TIP3   OH260520   2.372   3.184  15.471  0.2775  0.3162  0.0505
13010TIP3    H160521   2.459   3.173  15.434  0.4007 -0.6186  0.5995
13010TIP3    H260522   2.387   3.207  15.563 -0.0492  0.8059 -0.0140
13011TIP3   OH260523   0.742   2.073  16.738 -0.1316 -0.3681 -0.0074
13011TIP3    H160524   0.820   2.069  16.683  1.5201  0.0693  2.2172
13011TIP3    H260525   0.747   2.159  16.780 -2.1757 -0.0744 -0.3210
13012TIP3   OH260526   3.701   0.275  10.617 -0.1615  0.3214  0.5267
13012TIP3    H160527   3.652   0.345  10.574  1.3280  0.3439 -1.1730
13012TIP3    H260528   3.698   0.201  10.556  0.6358 -0.1744  1.0661
13013TIP3   OH260529   3.734   3.061   0.099  0.5538  0.2077  0.1962
13013TIP3    H160530   3.721   3.003   0.174 -0.4232  0.5953  0.3426
13013TIP3    H260531   3.704   3.147   0.130  0.0225  0.3402 -0.6769
13014TIP3   OH260532   1.723   4.005  13.790  0.0991 -0.3031  0.5322
13014TIP3    H160533   1.815   4.026  13.805  0.1928 -1.0566  1.0408
13014TIP3    H260534   1.693   3.966  13.873 -0.4163 -0.9325  0.0573
13015TIP3   OH260535   2.728   5.015   4.991  0.3124  0.2442  0.3554
13015TIP3    H160536   2.822   5.001   5.007  0.7529  2.8120  0.3718
13015TIP3    H260537   2.685   4.938   5.028  2.4478 -1.2047 -0.0814
13016TIP3   OH260538   1.372   1.812  14.127 -0.0460 -1.0281 -0.7658
13016TIP3    H160539   1.436   1.761  14.077 -0.0040 -1.2273 -0.5050
13016TIP3    H260540   1.376   1.776  14.215 -0.0015 -0.5638 -0.5791
13017TIP3   OH260541   5.501   5.409  11.593 -0.6803  0.2874  0.7646
13017TIP3    H160542   5.530   5.484  11.645  0.1939 -0.5997  1.5688
13017TIP3    H260543   5.406   5.408  11.604 -0.8663  2.2127 -0.5398
13018TIP3   OH260544   2.969   5.669  13.853  0.3397  0.4457  0.2626
13018TIP3    H160545   2.995   5.594  13.906 -1.0322 -0.4208 -0.2788
13018TIP3    H260546   3.049   5.697  13.809  0.9394 -0.4259  0.8027
13019TIP3   OH260547   2.243   4.893  10.853  0.0716 -0.1562 -0.1973
13019TIP3    H160548   2.219   4.804  10.825 -3.4415  0.9658 -1.0115
13019TIP3    H260549   2.214   4.949  10.781 -2.9489  2.1598  2.6936
13020TIP3   OH260550   0.412   1.227   0.367  0.3765 -0.5499  0.7654
13020TIP3    H160551   0.470   1.272   0.306  0.3607 -1.0367  0.3845
13020TIP3    H260552   0.325   1.264   0.350 -0.3195 -3.3121 -2.1664
13021TIP3   OH260553   1.321   3.702   2.509 -0.0167 -0.0732  0.9712
13021TIP3    H160554   1.356   3.788   2.529  0.7387 -0.3565  0.9074
13021TIP3    H260555   1.363   3.644   2.572  0.1245 -0.5215  0.4678
13022TIP3   OH260556   1.737   1.294  16.726 -0.2423  0.3589  1.1837
13022TIP3    H160557   1.652   1.264  16.760 -0.3140 -1.2580 -0.3480
13022TIP3    H260558   1.714   1.356  16.657 -0.2886 -1.4454 -0.5017
13023TIP3   OH260559   2.050   4.887  13.275  0.0058  0.2555 -0.0755
13023TIP3    H160560   1.960   4.907  13.300  0.2873  1.5514 -0.0927
13023TIP3    H260561   2.060   4.794  13.296 -1.0280  0.3356  0.8186
13024TIP3   OH260562   4.026   3.964   3.592  0.2271  0.2656  0.3458
13024TIP3    H160563   3.956   3.976   3.528 -0.1746 -1.9330  0.3554
13024TIP3    H260564   4.107   3.979   3.542 -0.0735 -1.6220 -0.7440
13025TIP3   OH260565   0.559   6.762  17.002  0.3057  0.3223  0.7102
13025TIP3    H160566   0.473   6.756  16.961  1.4674  1.4495 -2.0187
13025TIP3    H260567   0.541   6.782  17.094 -2.3199  0.9548  0.0890
13026TIP3   OH260568   6.153   4.445  15.600 -0.3143  0.2841  0.0246
13026TIP3    H160569   6.163   4.397  15.518  1.4979 -1.4830  1.2274
13026TIP3    H260570   6.166   4.537  15.576  0.2534 -0.2266 -1.6681
13027TIP3   OH260571   1.606   0.382  14.894  0.4436 -0.1947 -0.2123
13027TIP3    H160572   1.556   0.324  14.837 -1.7602  1.2112  0.2303
13027TIP3    H260573   1.645   0.324  14.959 -1.3665 -1.2260 -0.0269
13028TIP3   OH260574   1.303   0.227   2.362 -0.2923  0.1594  0.1484
13028TIP3    H160575   1.335   0.252   2.449  1.0207 -0.5100 -0.1273
13028TIP3    H260576   1.227   0.284   2.347 -0.6071  0.1941  1.7813
13029TIP3   OH260577   0.166   6.066  12.284 -0.6761 -0.4746 -0.1977
13029TIP3    H160578   0.197   6.017  12.361 -0.7852  0.2887  0.3373
13029TIP3    H260579   0.071   6.056  12.287 -0.5805 -1.8196 -1.1690
13030TIP3   OH260580   0.022   5.976   5.418  0.1732 -0.3005  0.1315
13030TIP3    H160581  -0.013   5.897   5.460  0.3612 -0.9680 -0.9445
13030TIP3    H260582  -0.053   6.017   5.376  0.0916  0.0490  0.6161
13031TIP3   OH260583   5.657   2.907   3.435  0.1867  1.3855 -0.2057
13031TIP3    H160584   5.598   2.852   3.384 -0.1500  1.9284 -0.4115
13031TIP3    H260585   5.603   2.983   3.458  1.3512  2.8203 -2.0584
13032TIP3   OH260586   6.605   1.967   1.466  0.0937 -0.2068 -0.0498
13032TIP3    H160587   6.688   1.999   1.500 -0.1562  0.8530 -0.3969
13032TIP3    H260588   6.624   1.880   1.432  0.8847 -0.2779  0.5607
13033TIP3   OH260589   2.984   2.196  15.001 -0.3564 -0.1352  0.6282
13033TIP3    H160590   2.989   2.125  14.938 -0.6152  1.1983 -0.9335
13033TIP3    H260591   2.940   2.267  14.954  1.4537  1.6780  1.5721
13034TIP3   OH260592   0.215   5.879  17.228 -0.4767 -0.7014  0.4785
13034TIP3    H160593   0.303   5.854  17.255  0.3248 -0.4227 -1.7391
13034TIP3    H260594   0.190   5.814  17.162 -0.8267  0.7375 -0.8540
13035TIP3   OH260595   4.763   6.258  10.801 -0.4504 -0.2693 -0.4912
13035TIP3    H160596   4.754   6.341  10.754  0.7968 -0.3181 -0.8392
13035TIP3    H260597   4.676   6.219  10.798 -0.5079 -0.0347 -2.3259
13036TIP3   OH260598   5.536   6.760   1.459 -0.4004  0.2199  0.0669
13036TIP3    H160599   5.527   6.667   1.478 -1.1335 -0.0414 -1.4921
13036TIP3    H260600   5.552   6.800   1.544 -3.7357 -0.8655  1.2777
13037TIP3   OH260601   1.653   4.104  15.794  0.5481 -0.5042  0.9160
13037TIP3    H160602   1.741   4.084  15.763 -0.2829 -0.0827 -1.7919
13037TIP3    H260603   1.603   4.025  15.776 -0.3165  0.3148 -0.3611
13038TIP3   OH260604   5.518   1.239  15.639 -0.1882  0.1348 -0.4013
13038TIP3    H160605   5.509   1.324  15.682  3.6861 -0.6451  2.2589
13038TIP3    H260606   5.481   1.177  15.702  1.3648 -0.5583 -0.1352
13039TIP3   OH260607   3.229   4.486   0.741 -0.8304 -0.3849  0.3342
13039TIP3    H160608   3.227   4.441   0.656  0.2940  0.0421  0.0739
13039TIP3    H260609   3.170   4.560   0.730 -2.5220 -1.6397  0.6903
13040TIP3   OH260610   1.318   0.937   0.489  0.2405  0.3912 -0.6440
13040TIP3    H160611   1.403   0.962   0.526  0.7581  1.4930 -2.5102
13040TIP3    H260612   1.315   0.842   0.499  1.9640  0.2704 -1.0822
13041TIP3   OH260613   1.399   2.712   3.865  1.0110  0.2740  1.1683
13041TIP3    H160614   1.398   2.799   3.904  2.2378  0.4856  0.7553
13041TIP3    H260615   1.411   2.653   3.939  1.3615  0.5386  1.3245
13042TIP3   OH260616   1.131   2.594   2.457  0.2723 -0.1289  0.0772
13042TIP3    H160617   1.111   2.609   2.365  0.0822  1.8059  0.4230
13042TIP3    H260618   1.159   2.502   2.461  1.7713  0.2089 -2.1460
13043TIP3   OH260619   0.483   2.881   0.532 -0.4272 -0.3973  0.0064
13043TIP3    H160620   0.561   2.931   0.556 -1.0744  0.4460  0.3641
13043TIP3    H260621   0.497   2.794   0.570  0.8365 -0.5939 -0.8699
13044TIP3   OH260622   5.094   5.335  13.145  0.1418  0.5932  0.2095
13044TIP3    H160623   5.040   5.400  13.191  0.3270  0.6521  0.3446
13044TIP3    H260624   5.035   5.261  13.130  0.2358  0.3455  1.0463
13045TIP3   OH260625   2.754   4.517  13.624 -1.0309  0.2648 -0.3186
13045TIP3    H160626   2.662   4.506  13.601 -0.5445  0.3939 -2.4419
13045TIP3    H260627   2.756   4.511  13.719 -2.7839 -3.1978 -0.4299
13046TIP3   OH260628   6.608   2.395  13.929  0.3763 -0.4659 -0.5444
13046TIP3    H160629   6.701   2.387  13.951  0.8340  0.4097 -2.1097
13046TIP3    H260630   6.605   2.388  13.834 -1.0056  1.0023 -0.6296
13047TIP3   OH260631   4.190   0.802   4.069  0.2306  0.1123 -0.5697
13047TIP3    H160632   4.219   0.783   3.980 -0.3794  0.6997 -0.8923
13047TIP3    H260633   4.162   0.893   4.067 -1.7354 -0.4762 -0.2731
13048TIP3   OH260634   1.709   5.965  12.654 -0.6314  0.3974  0.3976
13048TIP3    H160635   1.715   5.874  12.684  0.6060  1.1741  2.6019
13048TIP3    H260636   1.772   5.970  12.581 -0.5657 -0.4539  0.3851
13049TIP3   OH260637   3.567   0.066  11.040  0.4895  0.6901  0.1587
13049TIP3    H160638   3.572   0.094  10.949  0.0991  1.4957  0.3774
13049TIP3    H260639   3.526  -0.021  11.036 -2.2798  1.9662 -0.2365
13050TIP3   OH260640   1.346   6.214   3.355  0.3814 -0.2491 -0.2579
13050TIP3    H160641   1.401   6.292   3.363  1.2635 -0.8663 -0.2283
13050TIP3    H260642   1.320   6.195   3.445 -0.0767  0.1839 -0.2986
13051TIP3   OH260643   1.660   4.706   0.243 -0.1318  0.1158  0.1730
13051TIP3    H160644   1.569   4.735   0.236 -0.3201 -0.3645  0.5871
13051TIP3    H260645   1.657   4.612   0.227  0.4187  0.2425 -0.7067
13052TIP3   OH260646   3.796   5.182  15.818  0.7523  0.4930  0.2179
13052TIP3    H160647   3.764   5.204  15.905  1.1300  0.9951  0.2300
13052TIP3    H260648   3.716   5.166  15.767  0.5671 -1.4110  1.0605
13053TIP3   OH260649   3.976   1.847   3.069 -0.1320 -0.1662  0.1477
13053TIP3    H160650   3.944   1.764   3.032  1.6534 -0.6621 -0.3485
13053TIP3    H260651   4.038   1.820   3.137  2.2463  0.7160 -1.5854
13054TIP3   OH260652   6.260   1.141   6.014 -0.1163  0.3400 -0.2241
13054TIP3    H160653   6.262   1.056   6.058  0.7048 -0.2810 -1.4228
13054TIP3    H260654   6.301   1.201   6.077 -2.2459  0.2188  1.3302
13055TIP3   OH260655   3.825   1.155  11.772 -0.1106  0.3175  0.2177
13055TIP3    H160656   3.770   1.118  11.841 -0.8693  0.5329 -0.2798
13055TIP3    H260657   3.765   1.180  11.703  0.7192 -0.5695 -0.8432
13056TIP3   OH260658   4.110   5.286   2.999 -0.2123 -0.5136  0.0282
13056TIP3    H160659   4.070   5.324   3.077 -0.2292 -0.3658 -0.0537
13056TIP3    H260660   4.192   5.248   3.031 -0.3603 -0.7141  0.1733
13057TIP3   OH260661   4.979   5.946   2.200  0.1944  0.4473 -0.0485
13057TIP3    H160662   5.029   5.865   2.188  1.4354  0.8533  2.0446
13057TIP3    H260663   5.046   6.014   2.202 -0.8573  1.5629 -1.9978
13058TIP3   OH260664   4.292   6.363  11.161 -0.2352 -0.0077 -0.9172
13058TIP3    H160665   4.288   6.349  11.256  0.7101 -0.6700 -0.9705
13058TIP3    H260666   4.216   6.316  11.127 -1.7140  1.8802 -0.3127
13059TIP3   OH260667   1.821   0.469   5.754 -0.3000  0.8290  0.5336
13059TIP3    H160668   1.882   0.539   5.732 -0.0080  0.9418  1.7080
13059TIP3    H260669   1.743   0.514   5.787 -0.3078  0.6091  0.8103
13060TIP3   OH260670   4.771   4.371  16.238 -0.1563  0.6113  0.3858
13060TIP3    H160671   4.779   4.464  16.217  0.2795  0.5164  0.1248
13060TIP3    H260672   4.861   4.337  16.234 -0.4445 -0.0753 -0.7754
13061TIP3   OH260673   2.643   4.048   0.523 -0.0990  0.0298  0.4321
13061TIP3    H160674   2.583   3.976   0.504  1.0576 -1.0639  0.8331
13061TIP3    H260675   2.656   4.045   0.618  1.2663 -0.3268  0.2523
13062TIP3   OH260676   1.753   4.238   1.127 -0.6641 -0.1440 -0.1486
13062TIP3    H160677   1.665   4.272   1.144 -0.1382  0.1180  2.3997
13062TIP3    H260678   1.811   4.314   1.141 -0.0100 -0.4127 -1.3830
13063TIP3   OH260679   3.736   5.379   0.179 -0.2601 -0.4179 -0.5131
13063TIP3    H160680   3.815   5.351   0.227 -0.0619 -0.5074 -0.8953
13063TIP3    H260681   3.729   5.317   0.106  0.0232  0.3758 -1.2079
13064TIP3   OH260682   3.835   0.632   4.899 -0.1263  0.3307  0.0564
13064TIP3    H160683   3.898   0.670   4.960 -0.1659  1.7989 -0.7888
13064TIP3    H260684   3.886   0.572   4.846  0.3675  0.7624  0.0326
13065TIP3   OH260685   1.761   2.823  14.167 -0.0939 -0.0768  0.2533
13065TIP3    H160686   1.794   2.832  14.078  0.3089 -0.5264  0.3582
13065TIP3    H260687   1.724   2.735  14.171  1.4284 -0.7046  1.0316
13066TIP3   OH260688   4.454   3.907  12.313  0.4355 -0.0943 -0.0377
13066TIP3    H160689   4.401   3.864  12.380 -0.4103  0.5649 -0.2794
13066TIP3    H260690   4.418   3.875  12.230  2.6782 -2.3790 -0.2042
13067TIP3   OH260691   1.813   6.701  13.965  0.0709  1.0781  0.8239
13067TIP3    H160692   1.886   6.641  13.975  1.4219  2.3287 -1.2863
13067TIP3    H260693   1.836   6.776  14.021 -0.3017  0.8421  1.2992
13068TIP3   OH260694   3.785   5.993   0.419 -0.2264  0.2023  0.3230
13068TIP3    H160695   3.859   6.032   0.372 -0.2638 -0.1338 -0.0186
13068TIP3    H260696   3.815   5.904   0.441  0.3376  0.8237  2.1972
13069TIP3   OH260697   2.763   5.571   4.445  0.0764 -0.0882 -0.7763
13069TIP3    H160698   2.817   5.650   4.452  0.3419 -0.2936 -0.5186
13069TIP3    H260699   2.735   5.553   4.535  0.2082 -0.4234 -0.8033
13070TIP3   OH260700   0.083   5.052  13.463 -0.1190 -0.2431  0.4785
13070TIP3    H160701   0.013   4.988  13.451  0.0492 -0.7686  2.1472
13070TIP3    H260702   0.149   5.027  13.398 -1.2772 -0.0191 -0.8015
13071TIP3   OH260703   3.803   1.056  15.989  0.1266  1.1106  0.0075
13071TIP3    H160704   3.884   1.099  16.016  1.0621  1.0932 -2.5388
13071TIP3    H260705   3.737   1.125  15.991 -0.0234  0.9422  2.8841
13072TIP3   OH260706   0.307   5.695   2.704  0.6536  0.5247  0.0350
13072TIP3    H160707   0.382   5.701   2.644  1.8784 -1.0473  1.3575
13072TIP3    H260708   0.250   5.629   2.664  0.6064  0.7744 -0.3121
13073TIP3   OH260709   6.371   4.813   2.089  0.2102 -0.4621  0.4567
13073TIP3    H160710   6.340   4.899   2.117  0.2229 -0.6583  1.0753
13073TIP3    H260711   6.466   4.819   2.092  0.2219 -0.2428 -0.2824
13074TIP3   OH260712   4.573   4.358   1.754 -0.8849  0.6475 -0.1692
13074TIP3    H160713   4.606   4.447   1.741 -3.6545  1.6922 -0.4260
13074TIP3    H260714   4.515   4.365   1.830 -1.3437 -0.8851 -0.3693
13075TIP3   OH260715   3.610   3.363   3.826  0.1135 -0.3543  0.2293
13075TIP3    H160716   3.664   3.299   3.779 -1.5535  0.1909 -2.4685
13075TIP3    H260717   3.534   3.313   3.854 -1.6321  0.5880 -2.6727
13076TIP3   OH260718   2.041   6.482  14.937 -0.3738  0.0799  0.2912
13076TIP3    H160719   2.057   6.568  14.977 -1.6110  0.8294 -0.7880
13076TIP3    H260720   2.049   6.498  14.843  1.7669 -1.5113  0.1741
13077TIP3   OH260721   6.612   6.167  13.389  0.2428  0.5496  0.1640
13077TIP3    H160722   6.560   6.097  13.350  2.9797 -1.3592 -0.2332
13077TIP3    H260723   6.602   6.155  13.483  1.4442 -1.0098  0.1110
13078TIP3   OH260724   1.046   5.763  16.691  0.2166 -0.1764  0.1602
13078TIP3    H160725   1.134   5.726  16.695  0.4676  0.5235  1.1600
13078TIP3    H260726   1.005   5.737  16.773 -0.6382 -0.7828 -0.4397
13079TIP3   OH260727   2.903   6.345  16.654 -0.2467 -0.1013  0.2167
13079TIP3    H160728   2.835   6.279  16.669 -0.1881  0.0566  1.1771
13079TIP3    H260729   2.978   6.314  16.705 -0.1458  0.6030  0.4943
13080TIP3   OH260730   6.496   2.675  16.079 -0.2543 -0.1462  0.2333
13080TIP3    H160731   6.509   2.712  16.166 -1.6490 -0.1418  0.4579
13080TIP3    H260732   6.403   2.654  16.076 -0.3890  0.5826 -1.5374
13081TIP3   OH260733   2.758   3.700  16.434  0.2084  0.2646 -0.8723
13081TIP3    H160734   2.683   3.751  16.403  0.8103  0.1666 -2.5289
13081TIP3    H260735   2.820   3.766  16.467 -1.6125  0.2182  2.8978
13082TIP3   OH260736   1.817   0.366  17.231 -0.2598 -0.0380 -0.1997
13082TIP3    H160737   1.768   0.403  17.305 -1.8304  0.8661 -1.6503
13082TIP3    H260738   1.836   0.276  17.258 -0.1526  0.5066  1.6070
13083TIP3   OH260739   2.475   6.553   2.755  0.4841 -0.2826 -0.5363
13083TIP3    H160740   2.451   6.643   2.733  1.8891  0.3737  0.4521
13083TIP3    H260741   2.569   6.558   2.776  0.7533 -2.1193 -1.1881
13084TIP3   OH260742   3.528   2.992  11.599  0.7596 -0.3478  0.0589
13084TIP3    H160743   3.621   3.013  11.608  0.2372  1.8717  0.5335
13084TIP3    H260744   3.496   2.989  11.689 -0.0150  0.7518 -0.1774
13085TIP3   OH260745   1.084   3.541  15.113  0.6102 -0.1915  0.2317
13085TIP3    H160746   1.030   3.608  15.071  1.3668  0.7994  0.8250
13085TIP3    H260747   1.020   3.476  15.143 -0.2544  0.8357  0.6820
13086TIP3   OH260748   1.600   4.551   4.083 -0.4586 -0.5026  0.0945
13086TIP3    H160749   1.668   4.568   4.148 -1.4706  2.7255  0.3926
13086TIP3    H260750   1.521   4.591   4.120 -1.5999 -0.6823 -2.0430
13087TIP3   OH260751   4.830   4.005  16.026  0.0774  0.3548 -0.2238
13087TIP3    H160752   4.829   4.084  15.972  1.5009 -0.2589 -1.1647
13087TIP3    H260753   4.901   4.019  16.089 -0.0274  0.0450 -0.0313
13088TIP3   OH260754   2.138   4.364   4.858 -0.2564 -0.1675  0.8065
13088TIP3    H160755   2.189   4.285   4.876  0.1924 -0.0251  0.1705
13088TIP3    H260756   2.199   4.436   4.875 -0.1911 -0.0013 -0.0989
13089TIP3   OH260757   1.821   6.599   2.958 -0.1309  0.1636  0.0483
13089TIP3    H160758   1.873   6.534   3.005 -2.6486 -0.6328  1.8641
13089TIP3    H260759   1.870   6.681   2.968  0.9805 -0.6345  1.3233
13090TIP3   OH260760   1.816   5.686   0.293 -0.2450  0.0358  0.7690
13090TIP3    H160761   1.875   5.635   0.347 -0.3031  0.6205  1.3949
13090TIP3    H260762   1.859   5.771   0.284 -0.2359 -0.0555 -0.1035
13091TIP3   OH260763   3.645   1.409  14.333  0.4922 -0.0131 -0.0777
13091TIP3    H160764   3.679   1.384  14.247  2.2906 -0.4046  0.7321
13091TIP3    H260765   3.610   1.327  14.369 -0.4068  0.1826 -0.4826
13092TIP3   OH260766   4.539   2.589   1.625 -0.2913  0.2064  0.5858
13092TIP3    H160767   4.493   2.558   1.547  0.9393 -0.8214  0.2620
13092TIP3    H260768   4.478   2.652   1.664 -2.0602 -1.2451  0.2720
13093TIP3   OH260769   0.391   4.320   3.960  0.2885  1.0146 -0.1402
13093TIP3    H160770   0.320   4.375   3.994  0.1564  1.0099 -0.3985
13093TIP3    H260771   0.405   4.353   3.870  0.1059  0.5274 -0.3472
13094TIP3   OH260772   2.613   4.952  15.186  0.1590 -0.6734  0.6898
13094TIP3    H160773   2.566   4.868  15.190 -1.1195  0.0835  2.0182
13094TIP3    H260774   2.705   4.928  15.200 -0.0399 -1.9845 -0.1520
13095TIP3   OH260775   2.147   1.332   4.338  0.2035 -0.1140  0.1447
13095TIP3    H160776   2.201   1.308   4.263  1.0629 -1.7901  1.2486
13095TIP3    H260777   2.071   1.274   4.332  0.7953 -1.0270  1.1287
13096TIP3   OH260778   2.362   1.706   4.746  0.1942  0.1114 -0.0815
13096TIP3    H160779   2.407   1.748   4.821  0.7578 -0.0887 -0.3039
13096TIP3    H260780   2.273   1.742   4.749 -0.9626 -2.7385  2.9685
13097TIP3   OH260781   5.138   6.636  11.958  0.0048  0.7238 -0.0552
13097TIP3    H160782   5.227   6.602  11.951 -0.8094 -1.3677 -0.7523
13097TIP3    H260783   5.127   6.693  11.882  0.6746  0.8055 -0.0891
13098TIP3   OH260784   2.185   6.497  16.377 -0.0302 -0.2613  0.3070
13098TIP3    H160785   2.205   6.411  16.340  0.3918 -0.2951  0.6195
13098TIP3    H260786   2.107   6.526  16.328 -0.4303 -0.9978  0.4991
13099TIP3   OH260787   4.524   4.168  11.876 -0.2720  0.2595 -0.2959
13099TIP3    H160788   4.561   4.253  11.898 -0.7182  0.3780  0.0165
13099TIP3    H260789   4.468   4.147  11.951  0.3573 -0.6134 -0.0728
13100TIP3   OH260790   1.181   0.240   4.427  0.2596  0.2596  0.4726
13100TIP3    H160791   1.175   0.242   4.522  0.3073 -0.0681  0.4835
13100TIP3    H260792   1.274   0.248   4.407  0.3596 -0.7113  0.4899
13101TIP3   OH260793   6.720   2.898   4.596  0.2533 -0.0727  0.4913
13101TIP3    H160794   6.786   2.832   4.572 -0.9144 -1.3805  0.7838
13101TIP3    H260795   6.745   2.976   4.547  0.6359 -1.2803 -1.2952
13102TIP3   OH260796   4.050   5.388   2.057 -0.1057 -0.3253  0.2045
13102TIP3    H160797   4.023   5.301   2.087  0.0396 -0.2603  0.5220
13102TIP3    H260798   4.128   5.409   2.109 -1.5921  1.0604  1.9249
13103TIP3   OH260799   3.521   6.201   0.802 -0.1951  0.0068 -0.4742
13103TIP3    H160800   3.462   6.126   0.807 -1.0214  0.7323  1.0435
13103TIP3    H260801   3.531   6.218   0.708 -1.8032 -0.5830 -0.7645
13104TIP3   OH260802   1.021   5.952   3.091  0.6758  0.0918  0.0377
13104TIP3    H160803   1.020   5.860   3.120  0.6941  0.0145 -0.2033
13104TIP3    H260804   1.091   5.992   3.141 -0.5303  0.4232  1.5056
13105TIP3   OH260805   4.225   4.757   3.857  0.1759 -0.0165 -0.1247
13105TIP3    H160806   4.169   4.835   3.862  0.2418  0.1817 -2.2499
13105TIP3    H260807   4.196   4.712   3.778  1.4136 -1.1799  0.0733
13106TIP3   OH260808   2.125   5.752   4.264 -0.8462 -0.4238  0.1943
13106TIP3    H160809   2.148   5.772   4.354 -0.0576  1.3583 -0.3906
13106TIP3    H260810   2.035   5.783   4.254 -0.0517  1.7719 -0.3544
13107TIP3   OH260811   0.259   2.585   4.576  0.3758  0.1285  0.1683
13107TIP3    H160812   0.200   2.592   4.651  0.1862 -0.1125  0.0423
13107TIP3    H260813   0.328   2.524   4.605 -0.6298 -1.3308 -0.4528
13108TIP3   OH260814   4.799   6.460  15.698  0.1900 -0.5534 -0.6952
13108TIP3    H160815   4.790   6.468  15.602 -0.2832 -0.1195 -0.6222
13108TIP3    H260816   4.810   6.367  15.713  0.0641 -0.6487 -1.1620
13109TIP3   OH260817   2.341   0.492  14.488  0.1499 -0.1860  0.1009
13109TIP3    H160818   2.433   0.476  14.511  0.1497 -1.2587 -0.5663
13109TIP3    H260819   2.345   0.557  14.418  0.4682 -0.9025 -0.5606
13110TIP3   OH260820   3.029   4.771   1.935  0.0896 -0.5566 -0.1582
13110TIP3    H160821   3.110   4.784   1.985  0.0518  0.3119 -0.3176
13110TIP3    H260822   3.023   4.848   1.879 -1.3988 -0.1032  0.5926
13111TIP3   OH260823   2.724   4.764   3.806 -0.6802  0.1931  1.0444
13111TIP3    H160824   2.670   4.700   3.759 -0.8683 -0.0456  1.5863
13111TIP3    H260825   2.753   4.718   3.884  0.7415  0.1533  0.4993
13112TIP3   OH260826   1.504   4.610  16.264  0.1784 -0.4635  0.0475
13112TIP3    H160827   1.431   4.549  16.275  1.4058 -2.1979 -1.1397
13112TIP3    H260828   1.554   4.602  16.346  0.2755 -0.9701 -0.0584
13113TIP3   OH260829   5.378   3.663   1.050  0.6472 -0.2628  0.0341
13113TIP3    H160830   5.385   3.755   1.027  3.0862 -0.4118 -0.0311
13113TIP3    H260831   5.284   3.644   1.051  0.0576  2.5947  1.6716
13114TIP3   OH260832   2.986   3.501  16.799  0.0158  0.0385  0.1912
13114TIP3    H160833   2.981   3.555  16.720  1.8253  2.8858  1.9345
13114TIP3    H260834   2.988   3.411  16.766 -0.8646  1.0917 -2.9037
13115TIP3   OH260835   4.322   6.741   1.502  0.4483  0.6840  0.0806
13115TIP3    H160836   4.414   6.767   1.509  0.3690  0.7952  0.7123
13115TIP3    H260837   4.277   6.819   1.471  0.9459 -0.0748 -2.6920
13116TIP3   OH260838   0.763   4.183   0.163  0.0897  0.3028 -0.2197
13116TIP3    H160839   0.768   4.248   0.233 -1.3778  0.1709  0.0189
13116TIP3    H260840   0.705   4.115   0.197  1.5145 -1.0793 -0.5172
13117TIP3   OH260841   1.753   4.778   2.664  0.2722 -0.0216 -0.0023
13117TIP3    H160842   1.781   4.719   2.594  1.4411  0.4119  0.0901
13117TIP3    H260843   1.658   4.783   2.655  0.2102 -1.5952 -0.2705
13118TIP3   OH260844   4.259   5.946  16.752  0.3185 -0.0961 -0.5964
13118TIP3    H160845   4.316   5.988  16.817  1.6782  1.6121 -2.8383
13118TIP3    H260846   4.319   5.897  16.696 -0.4581  1.1111 -2.5352
13119TIP3   OH260847   6.698   3.211  16.815 -0.2878 -0.4462  0.6157
13119TIP3    H160848   6.754   3.141  16.780 -0.3518 -0.8558  1.3257
13119TIP3    H260849   6.731   3.291  16.774  0.5289 -0.7471  0.6880
13120TIP3   OH260850   3.066   4.104   3.461  0.2706  0.3648  0.2411
13120TIP3    H160851   3.073   4.010   3.477 -2.7207  0.1161  0.3748
13120TIP3    H260852   3.044   4.111   3.368 -0.8789  0.8516  0.5447
13121TIP3   OH260853   3.236   1.122  12.628 -0.0431 -0.0447 -0.2525
13121TIP3    H160854   3.164   1.064  12.653 -1.6148  0.4861 -3.3136
13121TIP3    H260855   3.306   1.103  12.691 -1.9176 -2.4338  1.1719
13122TIP3   OH260856   1.194   4.766   1.364 -0.1436  0.0032  0.3240
13122TIP3    H160857   1.245   4.830   1.414 -0.2103 -0.8471  1.4961
13122TIP3    H260858   1.240   4.683   1.377 -1.3397 -0.6168  0.6898
13123TIP3   OH260859   2.759   4.983  12.122 -0.8532 -0.0794 -0.1206
13123TIP3    H160860   2.689   4.943  12.070  0.0647 -0.5078 -1.0468
13123TIP3    H260861   2.792   5.054  12.067  0.4819 -0.8749 -0.3601
13124TIP3   OH260862   4.378   3.252  11.558  0.3637 -0.3548 -0.3331
13124TIP3    H160863   4.316   3.240  11.486  1.2508 -0.3366 -1.1043
13124TIP3    H260864   4.403   3.344  11.553 -1.2679  0.2060  1.3876
13125TIP3   OH260865   6.651   4.494   1.246 -0.1355  0.2298 -0.1493
13125TIP3    H160866   6.631   4.484   1.153  3.4846 -1.6908 -0.8142
13125TIP3    H260867   6.608   4.420   1.288  0.8194 -0.7006 -0.7765
13126TIP3   OH260868   0.516   2.939  16.946  0.0917  0.0649  0.3434
13126TIP3    H160869   0.509   2.921  16.852 -0.3658  0.1221  0.3656
13126TIP3    H260870   0.454   2.879  16.986 -1.0759  1.3397  0.4549
13127TIP3   OH260871   2.267   0.727   3.283  0.1074  0.3756 -0.0287
13127TIP3    H160872   2.253   0.721   3.189  1.8771 -1.1587 -0.2201
13127TIP3    H260873   2.360   0.743   3.293  0.2541 -1.2196  1.4919
13128TIP3   OH260874   5.530   5.179  11.734  0.3237 -0.1811 -0.1444
13128TIP3    H160875   5.580   5.211  11.808 -1.1710  1.0954  0.3400
13128TIP3    H260876   5.516   5.256  11.679 -1.3514 -0.4679 -0.1293
13129TIP3   OH260877   0.092   3.755   5.905 -0.4189  0.4876  0.4667
13129TIP3    H160878   0.048   3.832   5.868  1.1555  0.8864 -0.6160
13129TIP3    H260879   0.098   3.694   5.831  1.7370  0.8476  0.3024
13130TIP3   OH260880   2.206   5.965   6.170  0.0371  0.7753 -0.2363
13130TIP3    H160881   2.299   5.949   6.151  0.0032  0.6857 -0.3301
13130TIP3    H260882   2.201   6.058   6.188  0.2191  0.7047  0.1851
13131TIP3   OH260883   6.260   1.401   0.054 -0.2762  0.8540 -0.4151
13131TIP3    H160884   6.296   1.419   0.141  1.9230  1.7700 -1.4668
13131TIP3    H260885   6.275   1.482   0.005 -1.5357  0.3593 -1.6447
13132TIP3   OH260886   4.841   6.448   2.447  0.2924  0.1375  0.4992
13132TIP3    H160887   4.819   6.509   2.517 -1.0104  0.6797 -0.3531
13132TIP3    H260888   4.860   6.504   2.372 -1.3597 -0.4957 -0.4153
13133TIP3   OH260889   0.297   0.740  14.449  0.3521  0.1208  0.1045
13133TIP3    H160890   0.304   0.651  14.415  1.4287  0.4190 -0.4907
13133TIP3    H260891   0.222   0.778  14.403  0.3819 -0.2268 -0.2336
13134TIP3   OH260892   4.756   6.524  16.390 -0.2427  0.0957 -0.3358
13134TIP3    H160893   4.754   6.570  16.474  1.1296 -0.0488 -0.2088
13134TIP3    H260894   4.746   6.593  16.324 -1.3318  0.2089 -0.0653
13135TIP3   OH260895   3.829   4.991  10.504  0.6358 -0.1631 -1.0802
13135TIP3    H160896   3.922   4.984  10.482  0.7450 -0.4808 -0.5318
13135TIP3    H260897   3.799   4.900  10.510  0.2510 -0.0599 -1.4155
13136TIP3   OH260898   2.116   3.166  13.859 -0.0005 -0.3830  0.2045
13136TIP3    H160899   2.196   3.183  13.809  0.2582 -1.2613  0.3106
13136TIP3    H260900   2.047   3.161  13.792  0.1721 -0.4731  0.0328
13137TIP3   OH260901   5.733   3.645   5.222 -0.3411  0.1472 -0.0992
13137TIP3    H160902   5.672   3.572   5.209 -1.6346  0.9970  1.1035
13137TIP3    H260903   5.687   3.721   5.185  0.3150  0.6516  0.1224
13138TIP3   OH260904   2.158   5.314  16.586 -0.0535 -0.4386 -0.2934
13138TIP3    H160905   2.112   5.389  16.548  3.0071  1.9832  0.5699
13138TIP3    H260906   2.173   5.338  16.677  0.0099 -2.6015  0.3019
13139TIP3   OH260907   5.798   3.852  16.613 -0.1268  0.0302  0.1072
13139TIP3    H160908   5.853   3.774  16.610  0.0424  0.1944 -2.5269
13139TIP3    H260909   5.733   3.839  16.544 -0.8437  1.6564  0.4400
13140TIP3   OH260910   6.347   2.402   5.558 -0.1552  0.1933  0.0345
13140TIP3    H160911   6.283   2.339   5.525  1.4349 -0.6115 -1.6061
13140TIP3    H260912   6.361   2.376   5.649 -3.2725  1.3400  0.9188
13141TIP3   OH260913   0.943   4.053   0.941  0.5821  0.3189 -0.0879
13141TIP3    H160914   0.898   4.091   0.866 -1.1585  1.7344  1.5984
13141TIP3    H260915   1.035   4.050   0.916  0.0587  0.9693 -2.1718
13142TIP3   OH260916   2.746   0.472   6.361 -0.3405  0.3703  0.2960
13142TIP3    H160917   2.674   0.413   6.382 -0.5757  0.8996  1.0148
13142TIP3    H260918   2.801   0.423   6.300 -0.4521 -0.6477  1.0015
13143TIP3   OH260919   5.952   3.749  14.263  0.2790  0.1869  0.1114
13143TIP3    H160920   5.889   3.815  14.291 -0.8529 -0.6159 -0.5139
13143TIP3    H260921   5.914   3.666  14.291  1.5702 -0.2397  0.6716
13144TIP3   OH260922   2.033   5.282   6.038 -0.3757  0.5121  0.5459
13144TIP3    H160923   2.024   5.187   6.038  0.3339  0.4386  1.2940
13144TIP3    H260924   1.944   5.315   6.020 -0.7645 -0.2816  1.0042
13145TIP3   OH260925   2.286   5.542   1.726  0.0716  0.7328 -1.0142
13145TIP3    H160926   2.214   5.552   1.788  0.3702 -0.8976 -0.3625
13145TIP3    H260927   2.249   5.563   1.641 -1.3007 -0.5302 -0.7451
13146TIP3   OH260928   1.143   5.954   4.892  0.1165 -0.1459  0.2809
13146TIP3    H160929   1.182   6.026   4.842 -0.1223 -0.2328 -0.0250
13146TIP3    H260930   1.215   5.922   4.947 -0.0061  0.9200  1.0883
13147TIP3   OH260931   1.335   2.810  16.219 -0.4973 -0.2197  0.2979
13147TIP3    H160932   1.255   2.862  16.230 -2.4794 -3.0824 -0.0032
13147TIP3    H260933   1.308   2.734  16.167  2.1133 -1.9338  1.2940
13148TIP3   OH260934   4.550   6.641  14.013 -0.3789 -0.1408 -0.1710
13148TIP3    H160935   4.599   6.559  14.020 -0.9788 -0.3792  1.4285
13148TIP3    H260936   4.470   6.617  13.965 -0.6457 -0.5372  0.4691
13149TIP3   OH260937   3.491   2.578   3.835  0.2618  0.2677  0.1665
13149TIP3    H160938   3.519   2.548   3.749  1.0005  2.2361 -0.3033
13149TIP3    H260939   3.447   2.661   3.819  1.6803  1.3850  1.8255
13150TIP3   OH260940   3.135   4.762  14.561 -0.2643  0.5108 -0.1719
13150TIP3    H160941   3.169   4.845  14.594  4.6928 -1.1351 -0.6406
13150TIP3    H260942   3.148   4.768  14.466 -0.6421 -0.4834 -0.2870
13151TIP3   OH260943   5.933   6.502  16.246 -0.7866 -0.4852 -0.4450
13151TIP3    H160944   5.883   6.580  16.222  2.0114  1.9353  1.1695
13151TIP3    H260945   6.010   6.504  16.188 -0.2523 -1.5438  0.2097
13152TIP3   OH260946   3.312   5.451   3.879 -0.7340 -0.2759  0.5085
13152TIP3    H160947   3.271   5.391   3.816 -1.1140  0.1673  0.3254
13152TIP3    H260948   3.406   5.443   3.862 -0.8043 -0.5380  0.2320
13153TIP3   OH260949   3.864   6.085   2.523  0.1083  0.1710 -0.6870
13153TIP3    H160950   3.866   6.052   2.433 -1.1458 -0.3211 -0.5471
13153TIP3    H260951   3.872   6.180   2.514 -1.3584  0.2494 -1.4259
13154TIP3   OH260952   0.154   5.202  11.683  0.5965 -0.3263  0.0202
13154TIP3    H160953   0.231   5.258  11.690  0.6684 -0.3148 -0.7735
13154TIP3    H260954   0.080   5.262  11.673  0.3409 -0.3038  1.8356
13155TIP3   OH260955   5.122   6.254  12.970 -0.2168  0.1385  0.2934
13155TIP3    H160956   5.040   6.269  13.017 -0.7862  1.7340 -1.1624
13155TIP3    H260957   5.124   6.322  12.903  3.0955  1.1750  1.3644
13156TIP3   OH260958   1.031   4.940   1.120 -0.2400 -0.3545  0.2464
13156TIP3    H160959   0.936   4.932   1.113 -0.2474 -1.0316  1.0073
13156TIP3    H260960   1.059   4.859   1.164  0.7253 -0.3189 -0.2752
13157TIP3   OH260961   4.615   5.697   3.016  0.1145  0.0334  0.5819
13157TIP3    H160962   4.709   5.715   3.021  0.2811 -1.0740  1.4561
13157TIP3    H260963   4.609   5.604   2.999 -0.7852  0.6426 -2.7082
13158TIP3   OH260964   3.359   0.925   5.147  0.6786 -0.0243 -0.7617
13158TIP3    H160965   3.344   0.908   5.240 -2.1803 -1.6348 -1.4547
13158TIP3    H260966   3.299   0.865   5.102  0.8206  1.8709 -3.6079
13159TIP3   OH260967   6.774   3.537  17.012 -0.6173 -0.0381  0.1347
13159TIP3    H160968   6.803   3.484  16.938 -0.4704 -0.5118  0.5298
13159TIP3    H260969   6.767   3.626  16.976  0.8089 -0.0012 -0.1036
13160TIP3   OH260970   3.800   3.632  13.692 -0.5023 -0.0353  0.3935
13160TIP3    H160971   3.856   3.647  13.615  0.6768 -1.1620  1.0224
13160TIP3    H260972   3.713   3.660  13.663 -0.0135 -0.1362 -1.2524
13161TIP3   OH260973   6.050   0.446   5.303 -0.2172 -0.1837 -0.3346
13161TIP3    H160974   6.053   0.379   5.235 -0.5738  0.2184 -0.7496
13161TIP3    H260975   6.013   0.523   5.259  1.1626  0.6064 -0.1568
13162TIP3   OH260976   1.393   5.931   1.820 -0.1847 -0.0220  0.4297
13162TIP3    H160977   1.335   5.857   1.800 -0.5461  0.2931  0.3120
13162TIP3    H260978   1.415   5.969   1.735  0.6110 -0.4482  0.4331
13163TIP3   OH260979   4.048   0.991  13.147 -0.2809 -0.0584 -0.4402
13163TIP3    H160980   4.135   1.007  13.110 -0.1914 -0.6977 -0.5012
13163TIP3    H260981   4.053   0.904  13.185 -0.7590  0.0862 -0.0306
13164TIP3   OH260982   4.414   0.205  11.707  0.3986 -0.1416 -0.2508
13164TIP3    H160983   4.320   0.199  11.688  0.1378  0.6199  0.7007
13164TIP3    H260984   4.417   0.244  11.795  1.6500  2.4425 -1.3900
13165TIP3   OH260985   0.781   0.341   0.450 -0.1243 -0.1626  0.0875
13165TIP3    H160986   0.751   0.255   0.479 -1.2986 -0.5280 -2.0894
13165TIP3    H260987   0.877   0.334   0.448 -0.0761 -0.5825  2.3226
13166TIP3   OH260988   1.099   6.724   4.313  0.5009  0.3078 -0.0270
13166TIP3    H160989   1.133   6.680   4.236  0.6214  0.9996 -0.3731
13166TIP3    H260990   1.080   6.813   4.284 -0.1057  0.3756  0.5652
13167TIP3   OH260991   5.665   6.541  13.877  0.5152 -0.2538  0.2569
13167TIP3    H160992   5.626   6.622  13.909 -0.0478 -1.1504  1.8681
13167TIP3    H260993   5.648   6.542  13.782  0.4853  1.4752  0.2665
13168TIP3   OH260994   0.957   5.661  16.926  0.3902  0.6587 -0.3417
13168TIP3    H160995   0.998   5.633  17.008 -2.5017  1.0346  1.3028
13168TIP3    H260996   0.871   5.693  16.952 -1.0689 -0.3147 -3.6909
13169TIP3   OH260997   4.215   3.582   5.207  0.3521  0.0119 -0.2548
13169TIP3    H160998   4.198   3.615   5.295 -0.8224 -1.6341  0.1700
13169TIP3    H260999   4.218   3.660   5.152  1.4148  1.0811  1.2752
13170TIP3   OH261000   6.788   0.360   5.057  0.3497  0.4066  0.1067
13170TIP3    H161001   6.745   0.435   5.016 -0.5483  1.0645  2.1863
13170TIP3    H261002   6.761   0.285   5.004 -0.6697  1.2604 -0.5913
13171TIP3   OH261003   6.805   6.503  12.849 -0.5252  0.2275  0.0926
13171TIP3    H161004   6.757   6.422  12.833  0.3527 -0.2075 -0.3714
13171TIP3    H261005   6.766   6.539  12.928 -0.4879 -0.9758  0.6666
13172TIP3   OH261006   5.774   5.144  15.603  0.0765 -0.4478 -0.1037
13172TIP3    H161007   5.793   5.164  15.695 -0.3525 -0.9916  0.1076
13172TIP3    H261008   5.824   5.209  15.553 -0.4629  0.4615  0.5399
13173TIP3   OH261009   2.839   3.712  11.519 -0.0478  0.2154 -0.0418
13173TIP3    H161010   2.926   3.750  11.534 -1.1984  3.2155 -0.5691
13173TIP3    H261011   2.816   3.670  11.602  1.6188 -0.0096  0.3151
13174TIP3   OH261012   4.722   0.474  13.569  0.0463 -0.0005 -0.2690
13174TIP3    H161013   4.690   0.536  13.634  0.9260 -0.2354  0.3976
13174TIP3    H261014   4.808   0.446  13.602 -0.5338 -1.9145 -0.3262
13175TIP3   OH261015   4.473   3.341   5.582 -0.4525  0.1548  0.0168
13175TIP3    H161016   4.514   3.267   5.537  0.2174 -0.0986  1.0317
13175TIP3    H261017   4.401   3.367   5.525 -0.0477 -0.6206 -0.8512
13176TIP3   OH261018   4.360   5.372  17.229 -0.1729 -0.1324  0.1273
13176TIP3    H161019   4.319   5.442  17.281 -0.7837 -0.9005  0.6953
13176TIP3    H261020   4.446   5.360  17.269 -0.3598 -0.2157  0.5117
13177TIP3   OH261021   6.502   5.133  12.492  0.0820 -0.1599  0.8473
13177TIP3    H161022   6.488   5.226  12.509 -0.5639 -0.6234  2.9591
13177TIP3    H261023   6.436   5.110  12.426 -2.2909  0.0366  3.0783
13178TIP3   OH261024   3.510   0.470  14.926 -0.3749 -0.2484 -0.0349
13178TIP3    H161025   3.469   0.520  14.855  0.9287  0.5503 -0.2398
13178TIP3    H261026   3.587   0.429  14.885  1.4701  1.7391  1.3338
13179TIP3   OH261027   1.992   5.077  14.253 -0.5237 -0.7885  0.3420
13179TIP3    H161028   2.032   5.088  14.339 -0.4150  1.5333  0.0191
13179TIP3    H261029   2.064   5.088  14.190 -0.8829 -0.8869 -0.0931
13180TIP3   OH261030   3.182   5.270  15.031 -0.1204 -0.3741  0.5391
13180TIP3    H161031   3.265   5.274  15.078  0.5117 -0.4482 -0.5538
13180TIP3    H261032   3.148   5.182  15.050  0.8009 -0.9120 -0.2465
13181TIP3   OH261033   0.454   3.852   4.222  0.2674  0.2926  0.0256
13181TIP3    H161034   0.396   3.921   4.255 -1.3439 -0.8308 -0.3989
13181TIP3    H261035   0.417   3.829   4.137 -0.1822 -2.2327  0.8769
13182TIP3   OH261036   0.942   5.956  11.185 -0.0073 -0.3299  0.2277
13182TIP3    H161037   0.976   5.873  11.151 -0.8731 -0.4498 -0.3584
13182TIP3    H261038   0.856   5.966  11.144  0.8471  1.7680 -1.1781
13183TIP3   OH261039   6.492   0.386  16.911  0.0252 -0.3290 -0.4124
13183TIP3    H161040   6.503   0.356  16.820 -1.7675 -0.9383 -0.4417
13183TIP3    H261041   6.428   0.457  16.905  1.1506  0.7452  0.1825
13184TIP3   OH261042   2.966   4.913  11.693 -0.3058  0.0531  0.4267
13184TIP3    H161043   3.025   4.989  11.702  0.0892 -0.1906 -0.0416
13184TIP3    H261044   3.013   4.854  11.633 -0.9042 -0.2692  0.2741
13185TIP3   OH261045   5.655   2.355   1.576  0.4136 -0.3640  0.0990
13185TIP3    H161046   5.705   2.437   1.570  0.7690 -0.6197 -0.4765
13185TIP3    H261047   5.565   2.383   1.593  0.5336  0.1468 -0.0862
13186TIP3   OH261048   5.771   5.398  13.440  0.1756 -0.1353 -0.7045
13186TIP3    H161049   5.721   5.404  13.358 -0.9544 -1.0409 -0.0831
13186TIP3    H261050   5.778   5.489  13.470 -0.0189  0.1250 -1.4267
13187TIP3   OH261051   0.685   2.303  16.862 -0.8063 -0.2914  0.0966
13187TIP3    H161052   0.749   2.330  16.928 -0.4481 -3.4784  1.1124
13187TIP3    H261053   0.602   2.339  16.894 -0.3311 -0.2493  1.3274
13188TIP3   OH261054   1.251   5.147   4.575 -0.6941 -0.1820 -0.5647
13188TIP3    H161055   1.264   5.211   4.646 -0.8817 -1.6217  0.7917
13188TIP3    H261056   1.170   5.175   4.532  0.4645  1.8643 -1.5082
13189TIP3   OH261057   5.812   0.180  16.063 -0.0176  0.6404  0.1118
13189TIP3    H161058   5.733   0.230  16.041  0.0965  0.4593 -0.7321
13189TIP3    H261059   5.842   0.218  16.145  0.4138  2.3857 -0.8203
13190TIP3   OH261060   0.606   0.115  11.970  0.8116  0.2980  0.6034
13190TIP3    H161061   0.545   0.049  12.005  0.3769  0.1256 -0.4429
13190TIP3    H261062   0.660   0.066  11.908  1.9521  0.4787  1.4501
13191TIP3   OH261063   1.812   5.517   3.670  0.6370  0.3542 -0.1722
13191TIP3    H161064   1.834   5.604   3.640  1.2458  0.1526 -0.3164
13191TIP3    H261065   1.879   5.496   3.735  1.3888 -0.6157 -1.2558
13192TIP3   OH261066   1.905   5.139  13.632  0.0989 -0.0835  0.1819
13192TIP3    H161067   1.980   5.103  13.584  0.2712 -1.4902  1.4856
13192TIP3    H261068   1.838   5.152  13.565  1.0401 -0.0952 -0.7760
13193TIP3   OH261069   5.236   5.849  16.957  0.1690 -0.1276 -0.0879
13193TIP3    H161070   5.305   5.913  16.975  1.6311 -1.5967 -0.3818
13193TIP3    H261071   5.242   5.786  17.029 -0.3965 -0.6564 -0.5018
13194TIP3   OH261072   4.959   2.302  16.581 -0.4035 -0.1260 -0.2371
13194TIP3    H161073   4.926   2.214  16.564 -0.8913 -0.2166  1.0914
13194TIP3    H261074   5.020   2.290  16.654 -0.6838  0.6649  0.1326
13195TIP3   OH261075   0.010   0.752  15.603 -0.2676 -0.1099  0.3355
13195TIP3    H161076   0.091   0.787  15.565 -0.5470  1.4296  1.1133
13195TIP3    H261077  -0.059   0.782  15.544 -0.5040  0.6554  0.9851
13196TIP3   OH261078   6.811   2.712   5.538 -0.0709  0.8588  0.1420
13196TIP3    H161079   6.899   2.685   5.509 -1.4166 -1.2020 -2.2505
13196TIP3    H261080   6.805   2.680   5.628  1.8279  1.5238  0.5323
13197TIP3   OH261081   4.711   6.324  16.194  0.4180 -0.2610 -0.7199
13197TIP3    H161082   4.686   6.240  16.231  3.8545 -2.1547 -2.4168
13197TIP3    H261083   4.757   6.369  16.265  0.6232 -0.8040 -0.5123
13198TIP3   OH261084   0.745   1.872   0.211  0.0760  0.0807 -0.2081
13198TIP3    H161085   0.742   1.951   0.157  1.3767 -0.0600 -0.5169
13198TIP3    H261086   0.668   1.877   0.267 -0.0370  1.3832 -0.4779
13199TIP3   OH261087   1.934   3.002   0.091  0.0763  0.1068  0.2856
13199TIP3    H161088   1.931   2.991  -0.004 -0.2846  0.3025  0.2737
13199TIP3    H261089   1.873   3.073   0.109 -1.7904 -1.6176  0.9406
13200TIP3   OH261090   2.715   5.157   4.719 -0.0279 -0.0114  0.1203
13200TIP3    H161091   2.681   5.108   4.794  0.5987 -1.4771 -0.5418
13200TIP3    H261092   2.811   5.151   4.728  0.0588  0.8382 -0.1497
13201TIP3   OH261093   5.844   6.040   4.779  0.7792 -0.0532  0.0021
13201TIP3    H161094   5.833   6.134   4.789 -1.0090 -0.3194  0.8030
13201TIP3    H261095   5.890   6.012   4.859  1.5489  0.1873 -0.3624
13202TIP3   OH261096   2.992   1.086  11.835  0.1519 -0.4531  0.3032
13202TIP3    H161097   3.022   1.017  11.775 -0.6194 -0.5999  0.0854
13202TIP3    H261098   3.052   1.159  11.818  1.3452 -1.2664  0.9621
13203TIP3   OH261099   6.810   1.700   6.135  0.0193  0.2957 -0.0783
13203TIP3    H161100   6.753   1.747   6.075 -0.1926  1.3631  0.9427
13203TIP3    H261101   6.805   1.749   6.217  1.1423 -0.5205  0.4993
13204TIP3   OH261102   3.891   5.611   0.176 -0.2181 -0.3631  0.1071
13204TIP3    H161103   3.847   5.659   0.246  1.8328 -1.1260  1.9865
13204TIP3    H261104   3.826   5.549   0.144 -1.1183 -0.1465  1.4871
13205TIP3   OH261105   2.234   3.862  13.760  0.5005 -0.3075 -0.4022
13205TIP3    H161106   2.275   3.948  13.765 -0.6929  0.1917  1.2711
13205TIP3    H261107   2.188   3.862  13.676 -1.0116  1.4113  0.3942
13206TIP3   OH261108   0.827   5.656   1.370  1.0961  0.3585  0.2567
13206TIP3    H161109   0.902   5.601   1.391 -0.2217 -1.3164  0.7422
13206TIP3    H261110   0.855   5.708   1.296  2.0282 -1.7912 -0.9452
13207TIP3   OH261111   0.986   5.535  11.439  0.3315 -0.2030 -0.0753
13207TIP3    H161112   0.981   5.447  11.476 -1.4215 -0.2383 -0.3178
13207TIP3    H261113   0.968   5.523  11.346 -2.7693  0.6643  0.3391
13208TIP3   OH261114   6.345   1.232   4.282 -0.1212 -0.4576 -0.2350
13208TIP3    H161115   6.345   1.148   4.329 -2.8021 -0.7246 -0.5992
13208TIP3    H261116   6.378   1.295   4.346 -1.1974 -1.2600  1.1445
13209TIP3   OH261117   6.339   4.819  14.742  0.3670  0.3237 -0.1663
13209TIP3    H161118   6.398   4.817  14.667  0.2090 -2.4495 -0.2682
13209TIP3    H261119   6.398   4.821  14.818  0.5401  1.4594 -0.3219
13210TIP3   OH261120   4.622   4.546   5.947 -0.2016 -0.3667  0.0113
13210TIP3    H161121   4.610   4.640   5.958  1.4342 -0.2057  0.5072
13210TIP3    H261122   4.591   4.508   6.029 -0.7640 -0.2612 -0.1479
13211TIP3   OH261123   4.748   2.869   1.898 -0.4010 -0.5425 -0.8669
13211TIP3    H161124   4.769   2.822   1.817 -2.0404 -2.0187 -0.4757
13211TIP3    H261125   4.659   2.841   1.920 -0.4914  0.8822  0.7225
13212TIP3   OH261126   0.690   4.859  13.736 -0.1462 -0.1562  0.0594
13212TIP3    H161127   0.634   4.906  13.673  2.6777  3.4804  0.1364
13212TIP3    H261128   0.632   4.843  13.811 -2.2850 -0.4491 -1.5868
13213TIP3   OH261129   2.696   0.530  13.634  0.2737  0.1547  0.1955
13213TIP3    H161130   2.755   0.600  13.664 -0.3098  1.0807 -0.8092
13213TIP3    H261131   2.667   0.488  13.715  2.1365 -0.1711  0.7152
13214TIP3   OH261132   6.372   4.281  13.403 -0.0142  0.2813 -0.4815
13214TIP3    H161133   6.358   4.240  13.318  0.8139  0.2950 -0.6268
13214TIP3    H261134   6.467   4.287  13.412 -0.0179 -1.9147  1.5009
13215TIP3   OH261135   6.339   4.414   3.736 -0.1632 -0.8400 -0.3899
13215TIP3    H161136   6.305   4.496   3.702 -0.4684 -0.4711  0.7813
13215TIP3    H261137   6.263   4.355   3.735 -0.3033 -0.6755  0.1151
13216TIP3   OH261138   4.252   4.489  10.774 -0.5505 -0.3808  0.3248
13216TIP3    H161139   4.223   4.529  10.692 -0.0961  1.4480  1.0166
13216TIP3    H261140   4.230   4.397  10.766 -1.2472 -0.0639 -1.5206
13217TIP3   OH261141   1.516   0.657  11.479 -0.1573 -0.4101 -0.4326
13217TIP3    H161142   1.604   0.660  11.442  0.4127 -2.1672  0.6846
13217TIP3    H261143   1.511   0.733  11.537  1.2632 -1.2462  0.8200
13218TIP3   OH261144   1.909   3.264  11.694 -0.2629  0.1744  0.0545
13218TIP3    H161145   1.847   3.304  11.633 -0.5221 -0.6189 -0.2049
13218TIP3    H261146   1.860   3.255  11.775 -0.9373 -1.7515 -0.5550
13219TIP3   OH261147   2.638   0.413  15.174 -0.1174 -0.0317  0.2208
13219TIP3    H161148   2.613   0.428  15.265 -2.6489  0.4580 -0.4992
13219TIP3    H261149   2.573   0.349  15.143 -1.3420  2.2621 -2.1293
13220TIP3   OH261150   1.077   2.860   2.968  0.3848 -0.1755 -0.1267
13220TIP3    H161151   1.026   2.878   2.889 -0.4541 -1.8274  0.0158
13220TIP3    H261152   1.016   2.813   3.025  1.4261 -0.2685  0.9217
13221TIP3   OH261153   6.397   0.597  16.773 -0.3145 -0.0799 -0.3903
13221TIP3    H161154   6.339   0.628  16.842  0.8892 -0.6151  0.9004
13221TIP3    H261155   6.360   0.632  16.692 -1.6411  0.7221  0.5491
13222TIP3   OH261156   6.397   3.896  16.244 -0.0333  0.3430  0.0824
13222TIP3    H161157   6.308   3.927  16.225  0.5797  2.7542  0.9251
13222TIP3    H261158   6.397   3.804  16.217 -2.6321  0.4426 -0.3847
13223TIP3   OH261159   6.081   4.575   2.085  0.0508 -0.5379  0.0145
13223TIP3    H161160   6.174   4.586   2.105 -0.4228  4.0093  0.2084
13223TIP3    H261161   6.037   4.580   2.169 -0.4322 -2.8583 -0.0589
13224TIP3   OH261162   4.921   5.084   2.828  0.6722  0.2291 -0.3833
13224TIP3    H161163   4.848   5.145   2.836 -0.5502 -1.1190 -0.9320
13224TIP3    H261164   4.880   4.997   2.829  2.2418 -0.5435 -0.9561
13225TIP3   OH261165   5.236   2.358   5.593 -0.7410  0.0899  0.5697
13225TIP3    H161166   5.191   2.432   5.550 -0.8849  0.4009  1.2399
13225TIP3    H261167   5.237   2.382   5.685 -1.0551 -0.8947  0.8350
13226TIP3   OH261168   3.829   2.843   5.475 -0.4651 -0.1607 -0.4055
13226TIP3    H161169   3.858   2.924   5.517 -4.2569  1.0543  0.0653
13226TIP3    H261170   3.852   2.774   5.537 -1.7374  1.1171  1.5408
13227TIP3   OH261171   1.690   5.763  15.385  0.2808  0.0742 -0.3637
13227TIP3    H161172   1.773   5.736  15.424  1.3940  3.4902 -0.2463
13227TIP3    H261173   1.703   5.750  15.291  0.5023 -0.4993 -0.2592
13228TIP3   OH261174   1.146   1.891   0.105 -0.5106  0.8478  0.4204
13228TIP3    H161175   1.112   1.866   0.019 -1.5157  0.9521  0.7822
13228TIP3    H261176   1.183   1.978   0.091 -0.8911  0.9686  0.1553
13229TIP3   OH261177   0.261   1.994   4.530 -0.1620  0.3680  0.5260
13229TIP3    H161178   0.321   2.067   4.545  0.7335 -0.2184 -0.1224
13229TIP3    H261179   0.178   2.036   4.505  0.0441  1.1791  1.1771
13230TIP3   OH261180   0.418   0.668   3.019 -0.0680 -0.0531  0.1180
13230TIP3    H161181   0.505   0.704   3.000 -1.1571  1.8477 -1.5122
13230TIP3    H261182   0.408   0.596   2.957  0.0725  0.2275 -0.2388
13231TIP3   OH261183   4.510   2.116  11.660  1.6439 -0.6612  0.0309
13231TIP3    H161184   4.419   2.132  11.636  1.5823  0.5773  1.0733
13231TIP3    H261185   4.557   2.195  11.632  2.5521 -1.6174 -1.2376
13232TIP3   OH261186   0.419   4.125  15.913 -0.0074 -0.0910  0.4128
13232TIP3    H161187   0.493   4.111  15.853  2.6875 -0.4848  3.7053
13232TIP3    H261188   0.370   4.043  15.909  1.1693 -0.7962  0.1186
13233TIP3   OH261189   6.808   0.541   2.107 -0.5867 -0.2966 -0.0489
13233TIP3    H161190   6.819   0.608   2.039  1.5246 -1.1920 -0.6449
13233TIP3    H261191   6.744   0.578   2.168 -0.9267  1.4090 -1.4122
13234TIP3   OH261192   0.327   5.872   3.810  0.1587 -0.0189 -0.0168
13234TIP3    H161193   0.364   5.956   3.784 -0.1665  0.1887  0.1811
13234TIP3    H261194   0.312   5.825   3.728  1.6006 -0.4312 -0.0698
13235TIP3   OH261195   0.753   2.580   0.889 -0.0243  0.2144 -0.2131
13235TIP3    H161196   0.732   2.576   0.982  0.3508 -0.4755 -0.1515
13235TIP3    H261197   0.686   2.637   0.852 -0.0462  0.6721  0.5126
13236TIP3   OH261198   6.761   2.354   3.196  0.4298  0.1665 -0.3622
13236TIP3    H161199   6.828   2.299   3.236 -1.3373 -1.8063 -0.0177
13236TIP3    H261200   6.747   2.425   3.259  1.0784 -0.2807  0.2904
13237TIP3   OH261201   3.167   1.767  13.762  0.0631  0.2483  0.0086
13237TIP3    H161202   3.258   1.762  13.791  0.0879  0.5342 -0.0146
13237TIP3    H261203   3.150   1.683  13.720  0.1115 -0.0559  0.6032
13238TIP3   OH261204   3.369   2.075   2.156 -0.5051  0.1002  0.2913
13238TIP3    H161205   3.367   2.010   2.225 -0.9637  0.3544  0.5159
13238TIP3    H261206   3.302   2.139   2.180 -0.2828  0.4866 -0.0921
13239TIP3   OH261207   0.964   2.000  16.599  0.1207 -0.1870 -0.9759
13239TIP3    H161208   1.019   1.922  16.604 -0.0981 -0.2103  1.6143
13239TIP3    H261209   1.016   2.068  16.642 -1.8178 -0.2042  1.4769
13240TIP3   OH261210   3.951   3.377  14.372  0.1141 -0.3988 -0.4014
13240TIP3    H161211   4.001   3.435  14.315 -0.3924 -0.5055 -0.9679
13240TIP3    H261212   3.928   3.303  14.316 -2.0050  0.3771 -0.6171
13241TIP3   OH261213   4.770   2.715  12.909  0.5434  0.5958 -0.2210
13241TIP3    H161214   4.812   2.725  12.995  0.0293 -0.3071  0.1403
13241TIP3    H261215   4.836   2.673  12.855  0.5498  0.3407 -0.0155
13242TIP3   OH261216   0.249   2.744   3.614  0.0422  0.0358  0.0548
13242TIP3    H161217   0.171   2.728   3.668  0.1732 -2.6869 -0.5040
13242TIP3    H261218   0.307   2.671   3.633  1.8293  1.2154 -0.7360
13243TIP3   OH261219   5.241   0.630   6.633 -0.2311 -0.1012 -0.2119
13243TIP3    H161220   5.295   0.559   6.668 -1.5119 -0.5367  0.9251
13243TIP3    H261221   5.208   0.596   6.550  0.1301 -0.3568 -0.2541
13244TIP3   OH261222   2.536   1.295   3.766 -0.2829 -0.1682  0.2344
13244TIP3    H161223   2.590   1.269   3.691 -0.2049 -1.2203  0.6572
13244TIP3    H261224   2.447   1.275   3.740 -0.3341  0.2036  0.1176
13245TIP3   OH261225   3.977   2.008   3.787 -0.2367 -0.4804 -0.4843
13245TIP3    H161226   3.905   2.067   3.762 -0.6223 -0.9487 -0.4923
13245TIP3    H261227   3.952   1.976   3.874  0.8846  0.7964  0.3230
13246TIP3   OH261228   6.349   2.640  12.449  0.0236 -0.3293 -0.0134
13246TIP3    H161229   6.366   2.548  12.430 -0.0672 -0.1190 -1.1223
13246TIP3    H261230   6.289   2.638  12.524  1.1367 -1.1401  0.8615
13247TIP3   OH261231   3.165   6.752   1.189  0.2509 -0.2821 -0.3302
13247TIP3    H161232   3.129   6.663   1.182  1.6749 -0.7670 -2.1611
13247TIP3    H261233   3.259   6.738   1.202  0.4763  0.9506 -0.5771
13248TIP3   OH261234   3.552   4.732   4.756 -0.2595 -0.0335 -0.3104
13248TIP3    H161235   3.517   4.756   4.671 -0.7546 -0.5632 -0.2588
13248TIP3    H261236   3.507   4.789   4.818  1.4863  1.6713 -0.5891
13249TIP3   OH261237   0.267   2.841   6.041 -0.5810  0.0955 -0.1753
13249TIP3    H161238   0.252   2.753   6.008 -1.2977 -0.9144  2.6989
13249TIP3    H261239   0.360   2.844   6.061 -0.6318 -0.1966  0.1265
13250TIP3   OH261240   0.894   3.739   4.740  0.4617  0.2296 -0.1791
13250TIP3    H161241   0.839   3.663   4.758  0.7557 -0.0166 -0.3287
13250TIP3    H261242   0.877   3.761   4.649 -1.2376  1.6475  0.4540
13251TIP3   OH261243   2.547   0.690  15.132  0.4170 -0.7298 -0.4562
13251TIP3    H161244   2.584   0.605  15.110  0.8540 -0.1242 -2.0785
13251TIP3    H261245   2.608   0.754  15.096 -0.6931  0.2692 -0.6063
13252TIP3   OH261246   3.694   2.462  11.750 -0.5070  0.2062  0.1868
13252TIP3    H161247   3.716   2.477  11.658  0.4625  1.4898  0.6102
13252TIP3    H261248   3.717   2.544  11.794 -0.0332 -0.7262  1.7371
13253TIP3   OH261249   3.322   4.324  12.097 -0.0599  0.1845 -0.3339
13253TIP3    H161250   3.231   4.298  12.079  0.6161 -2.3049 -0.3167
13253TIP3    H261251   3.317   4.374  12.178 -1.3424 -0.6499  0.1284
13254TIP3   OH261252   6.224   2.963   5.620  0.1259  0.2964 -0.1286
13254TIP3    H161253   6.147   2.986   5.567 -1.5721  1.6398  2.7685
13254TIP3    H261254   6.290   3.027   5.595  0.4102 -0.9727 -2.7837
13255TIP3   OH261255   0.887   6.418  12.841 -0.2344 -0.7193 -0.5756
13255TIP3    H161256   0.935   6.349  12.796  0.4791 -0.9299  0.4978
13255TIP3    H261257   0.796   6.407  12.811 -0.4347 -3.1239  0.7802
13256TIP3   OH261258   0.865   5.108   5.616  0.5976 -0.1376 -0.4656
13256TIP3    H161259   0.941   5.121   5.559  0.0753 -3.5374 -2.0343
13256TIP3    H261260   0.791   5.137   5.562  0.0617 -3.7103 -1.7735
13257TIP3   OH261261   2.977   4.030   0.603 -0.5198  0.7287 -0.1803
13257TIP3    H161262   3.002   4.072   0.684 -0.8123  1.4403 -0.4571
13257TIP3    H261263   2.988   4.097   0.536  1.3157 -0.3499 -0.9800
13258TIP3   OH261264   0.394   6.648   0.841  0.2458 -0.5783  0.2925
13258TIP3    H161265   0.380   6.665   0.748 -0.4447  1.7071  0.7930
13258TIP3    H261266   0.476   6.694   0.862  0.4095 -1.0964  0.8214
13259TIP3   OH261267   3.251   3.351   1.516  0.4290  0.0181 -0.1792
13259TIP3    H161268   3.274   3.258   1.513 -0.1040 -0.2098  2.1312
13259TIP3    H261269   3.155   3.352   1.519  0.4205  0.6645 -0.5371
13260TIP3   OH261270   0.240   4.273  17.101  0.4267 -0.2489  0.6685
13260TIP3    H161271   0.155   4.239  17.127  0.2554  1.7240  2.8477
13260TIP3    H261272   0.302   4.227  17.158  0.6291 -0.1940  0.4905
13261TIP3   OH261273   1.622   0.458   6.253  0.0631  0.0301  0.3142
13261TIP3    H161274   1.533   0.437   6.227 -0.0102  0.4596  0.2038
13261TIP3    H261275   1.612   0.521   6.324  0.2796  0.2989  0.1085
13262TIP3   OH261276   6.394   5.711  14.834  0.4496  0.1455 -0.3799
13262TIP3    H161277   6.390   5.642  14.768  0.0171 -0.4770  0.2881
13262TIP3    H261278   6.360   5.789  14.790  0.1538 -0.2700 -0.8887
13263TIP3   OH261279   4.523   3.719   2.336  0.4358 -0.0193 -0.1141
13263TIP3    H161280   4.609   3.682   2.318  0.8676  0.5663  0.7059
13263TIP3    H261281   4.468   3.644   2.358  1.2426 -0.2046  1.3079
13264TIP3   OH261282   1.481   0.076   3.035  0.3520 -0.2316  0.1807
13264TIP3    H161283   1.428   0.143   3.079 -0.6405 -0.9928  0.1674
13264TIP3    H261284   1.488   0.005   3.098  1.7633  0.0484  0.3515
13265TIP3   OH261285   3.992   0.104  14.926  0.3314 -0.3084  0.2100
13265TIP3    H161286   3.950   0.143  15.003 -0.4667 -1.4741  0.3843
13265TIP3    H261287   4.024   0.019  14.958 -0.8894 -1.2352 -0.9930
13266TIP3   OH261288   2.265   4.117   0.921  0.3526  0.0278 -0.1940
13266TIP3    H161289   2.183   4.137   0.965 -1.3581 -0.8919 -2.8030
13266TIP3    H261290   2.305   4.048   0.974  0.0164  1.2999  1.7328
13267TIP3   OH261291   2.843   6.791  12.685 -0.1266  0.1030 -0.6427
13267TIP3    H161292   2.879   6.743  12.759  0.7558  3.6404  1.3393
13267TIP3    H261293   2.896   6.765  12.611  0.1523 -2.1420  0.3067
13268TIP3   OH261294   0.495   2.223   4.008 -0.4808  0.2412 -0.1493
13268TIP3    H161295   0.409   2.263   4.021 -0.0872  0.7083  1.1589
13268TIP3    H261296   0.557   2.290   4.038  0.3226 -0.1875 -0.8467
13269TIP3   OH261297   2.969   1.072  13.896  0.3739  0.6307  0.1794
13269TIP3    H161298   2.948   1.065  13.803  0.8808 -1.7311  0.2126
13269TIP3    H261299   2.884   1.076  13.940  0.1144  0.1524 -0.2810
13270TIP3   OH261300   4.575   4.125   1.989 -0.6885 -0.5307 -0.1154
13270TIP3    H161301   4.598   4.057   2.052 -0.9438 -0.5486 -0.0435
13270TIP3    H261302   4.641   4.193   2.003 -0.2387 -0.8998 -0.4071
13271TIP3   OH261303   6.145   1.885   3.684 -0.4223  0.1515  0.8398
13271TIP3    H161304   6.230   1.918   3.655 -1.2773 -0.1977 -2.1959
13271TIP3    H261305   6.084   1.957   3.669 -1.1018 -0.4711  0.5726
13272TIP3   OH261306   2.466   3.233  11.733  0.0991  0.0504 -0.0104
13272TIP3    H161307   2.461   3.209  11.826 -1.8076 -2.7417 -0.7704
13272TIP3    H261308   2.405   3.306  11.724 -2.4767 -1.9575  0.3304
13273TIP3   OH261309   3.068   4.598  12.003  0.1385 -0.4162 -0.4994
13273TIP3    H161310   3.008   4.551  12.062  0.3818 -0.7047 -0.4800
13273TIP3    H261311   3.027   4.684  11.991 -0.3932 -0.6858 -0.6621
13274TIP3   OH261312   3.262   4.813   0.499  0.4267 -0.0678  0.1060
13274TIP3    H161313   3.241   4.880   0.433 -1.5123 -0.3977  0.3548
13274TIP3    H261314   3.185   4.756   0.500  0.8727 -0.6560  1.9475
13275TIP3   OH261315   5.434   6.145  15.539  0.0270 -0.3233  0.2090
13275TIP3    H161316   5.514   6.151  15.591 -1.0314 -1.0753  1.9999
13275TIP3    H261317   5.365   6.175  15.598 -1.0075  0.3908 -1.3294
13276TIP3   OH261318   1.670   5.578  14.461 -0.0001 -0.1970 -0.6298
13276TIP3    H161319   1.725   5.628  14.521 -1.2574 -1.5583  1.7139
13276TIP3    H261320   1.719   5.497  14.446  0.0175 -0.1260 -0.9669
13277TIP3   OH261321   4.365   1.211  10.508 -0.1483 -0.1369  0.3803
13277TIP3    H161322   4.408   1.171  10.432  0.6323  0.7094  0.3739
13277TIP3    H261323   4.385   1.304  10.501 -0.3173 -0.0143  1.4728
13278TIP3   OH261324   1.519   5.327  15.099  0.2751  0.0389 -0.3245
13278TIP3    H161325   1.585   5.259  15.087 -0.6596 -1.0164  0.5085
13278TIP3    H261326   1.547   5.375  15.177 -0.1621 -0.6739  0.2759
13279TIP3   OH261327   4.541   3.019  14.311  0.1723  0.8456 -0.0604
13279TIP3    H161328   4.582   3.012  14.397  0.4427  2.4592 -0.0418
13279TIP3    H261329   4.459   3.067  14.327 -1.0864 -1.1470 -0.3089
13280TIP3   OH261330   1.175   0.047   0.249 -0.8328  0.5151 -0.0975
13280TIP3    H161331   1.132   0.043   0.334 -0.5894  2.4406  0.1451
13280TIP3    H261332   1.254  -0.007   0.259 -1.7962 -0.8400  0.2806
13281TIP3   OH261333   5.975   5.627  16.405 -0.3094  0.5056 -0.5249
13281TIP3    H161334   5.894   5.664  16.441  0.5062  1.6855  0.1323
13281TIP3    H261335   5.986   5.545  16.452 -1.8342 -0.3245 -1.5779
13282TIP3   OH261336   6.237   0.785  12.882  0.4381 -0.1198  0.1811
13282TIP3    H161337   6.184   0.855  12.842  1.3923  0.0084 -0.8771
13282TIP3    H261338   6.185   0.706  12.870  0.8344 -0.1382 -1.6147
13283TIP3   OH261339   0.451   1.605   6.295 -0.1743  0.3072 -0.5120
13283TIP3    H161340   0.377   1.664   6.290 -0.4363 -0.0458 -0.8408
13283TIP3    H261341   0.462   1.587   6.388 -3.1846 -3.0049 -0.7137
13284TIP3   OH261342   0.024   4.622  15.087 -0.2223  0.0684  0.6086
13284TIP3    H161343   0.103   4.614  15.034 -1.4580  0.5989 -1.3826
13284TIP3    H261344   0.001   4.715  15.081 -0.7272  0.0030  1.5511
13285TIP3   OH261345   2.303   4.440   0.970  0.0493  0.1261  0.2813
13285TIP3    H161346   2.318   4.370   1.033 -0.3976  0.0927  0.3576
13285TIP3    H261347   2.386   4.487   0.964  1.3641 -2.3981 -2.2595
13286TIP3   OH261348   0.373   4.775  15.373 -0.1373 -0.0486  0.2798
13286TIP3    H161349   0.350   4.694  15.328 -0.5211 -0.3554  1.0159
13286TIP3    H261350   0.343   4.761  15.463 -1.4416  1.4320  0.0968
13287TIP3   OH261351   0.316   6.483  14.545  0.0605  0.3010 -0.2167
13287TIP3    H161352   0.333   6.510  14.455 -0.6391  0.0511 -0.4252
13287TIP3    H261353   0.379   6.533  14.597  0.4578  0.4572 -0.8387
13288TIP3   OH261354   0.784   0.595  12.261 -0.4243 -0.0110 -0.3813
13288TIP3    H161355   0.843   0.633  12.195 -1.1564 -0.2249 -1.1593
13288TIP3    H261356   0.831   0.518  12.293  0.7394  1.1010  0.6577
13289TIP3   OH261357   5.236   4.438   2.066  0.2137  0.0449 -0.0303
13289TIP3    H161358   5.217   4.456   1.974 -2.4513 -3.1647 -0.1789
13289TIP3    H261359   5.326   4.405   2.066  0.4161  0.5356 -1.3776
13290TIP3   OH261360   6.402   6.685  15.912 -0.5110  0.0652 -0.0344
13290TIP3    H161361   6.420   6.709  16.003 -1.3550 -1.2639  0.4995
13290TIP3    H261362   6.307   6.671  15.909 -0.1467 -2.6204 -0.4329
13291TIP3   OH261363   6.030   4.313   5.786  0.4817  0.4428  0.1613
13291TIP3    H161364   6.048   4.315   5.880  2.6007  1.3657 -0.2510
13291TIP3    H261365   5.935   4.322   5.780  0.4064  1.2077  2.1873
13292TIP3   OH261366   4.777   2.277   0.894  0.1596 -0.4802  0.5601
13292TIP3    H161367   4.827   2.240   0.967 -0.2940 -0.6565  0.7776
13292TIP3    H261368   4.725   2.347   0.933 -1.6128 -1.8931  0.7773
13293TIP3   OH261369   5.480   4.561  10.567 -0.6740 -0.5795 -0.2248
13293TIP3    H161370   5.526   4.489  10.524  1.3893  0.4279  0.1975
13293TIP3    H261371   5.447   4.614  10.495  1.5029  0.3138 -0.6277
13294TIP3   OH261372   1.361   6.451   0.659 -0.5359 -0.1671 -0.0813
13294TIP3    H161373   1.389   6.473   0.748  0.4603 -0.8422 -0.2201
13294TIP3    H261374   1.368   6.355   0.655  0.4830 -0.0559 -1.2398
13295TIP3   OH261375   2.929   5.784  14.824  0.7251 -0.3138  0.1639
13295TIP3    H161376   2.886   5.750  14.902 -0.1706  0.1838 -0.1085
13295TIP3    H261377   2.865   5.774  14.754  1.5633 -0.8603 -0.5411
13296TIP3   OH261378   5.607   5.758   2.304 -0.2532 -0.1127  0.8854
13296TIP3    H161379   5.518   5.776   2.274 -0.5426  0.4561  2.0602
13296TIP3    H261380   5.655   5.839   2.285 -0.2218 -0.0698  1.1527
13297TIP3   OH261381   5.050   5.074   5.240 -0.3706  0.7149 -0.4455
13297TIP3    H161382   5.090   4.991   5.213 -0.6816  0.8637 -1.3509
13297TIP3    H261383   4.961   5.071   5.205 -0.7767  0.9079  0.5568
13298TIP3   OH261384   6.298   2.328   4.158  0.5602 -0.3512 -0.3061
13298TIP3    H161385   6.259   2.380   4.229  0.5739  0.4037 -0.8486
13298TIP3    H261386   6.308   2.241   4.196 -1.4172 -0.4959 -0.0744
13299TIP3   OH261387   3.512   5.449  15.323 -0.3195  0.0038  0.4808
13299TIP3    H161388   3.566   5.415  15.395  0.4880  0.9093  0.3210
13299TIP3    H261389   3.426   5.410  15.337  0.1704 -0.8554  1.1912
13300TIP3   OH261390   1.412   6.319  14.079 -0.3941  0.8263 -0.6294
13300TIP3    H161391   1.451   6.397  14.119 -1.2599  1.0206 -0.1571
13300TIP3    H261392   1.416   6.253  14.148  1.1284  0.1854 -1.3045
13301TIP3   OH261393   5.164   0.422  13.093  0.2810 -0.3463 -0.0712
13301TIP3    H161394   5.109   0.486  13.138 -0.6261 -0.4813 -0.9529
13301TIP3    H261395   5.183   0.355  13.159 -1.3777 -0.7593  0.0157
13302TIP3   OH261396   2.195   5.976  12.934  0.2968  0.2307  0.5210
13302TIP3    H161397   2.147   5.983  12.851  3.0599  1.7645 -1.0155
13302TIP3    H261398   2.206   5.882  12.948 -2.0769 -0.1034  0.3068
13303TIP3   OH261399   3.034   3.867   3.541  0.1112 -0.5755 -0.6153
13303TIP3    H161400   2.944   3.898   3.555 -0.2859 -0.3602 -3.2487
13303TIP3    H261401   3.045   3.794   3.601 -1.7977 -0.5182 -0.1735
13304TIP3   OH261402   3.561   5.176   1.987  0.3473 -0.0363 -0.2775
13304TIP3    H161403   3.526   5.222   2.063 -0.1081  0.6221 -0.8738
13304TIP3    H261404   3.545   5.084   2.005  0.3201  0.1148  0.4629
13305TIP3   OH261405   5.092   0.724  16.497  0.4155  0.6780  0.1936
13305TIP3    H161406   5.142   0.715  16.416 -0.9562 -0.1352 -0.5970
13305TIP3    H261407   5.014   0.773  16.471 -0.2600  0.0048  0.9182
13306TIP3   OH261408   2.976   5.627   1.243 -0.5953 -0.1127 -0.2133
13306TIP3    H161409   3.049   5.579   1.281 -0.9852 -0.3079  0.2991
13306TIP3    H261410   2.974   5.710   1.291  0.3175  0.5854 -1.3594
13307TIP3   OH261411   2.293   0.538  17.093 -0.1301 -1.0872 -0.1198
13307TIP3    H161412   2.260   0.558  17.181 -0.3890 -2.1880  0.0471
13307TIP3    H261413   2.288   0.621  17.046  1.9585  0.0205  1.5124
13308TIP3   OH261414   2.157   4.391   5.621 -0.0938 -0.1626 -0.2947
13308TIP3    H161415   2.128   4.360   5.706 -0.9348  1.0280 -0.1244
13308TIP3    H261416   2.238   4.343   5.603  1.1884  1.0190  2.0794
13309TIP3   OH261417   4.250   0.814  13.832 -0.5946 -0.0747  0.3318
13309TIP3    H161418   4.217   0.810  13.742  1.3771 -0.0840 -0.4057
13309TIP3    H261419   4.289   0.728  13.847 -2.8554 -0.8627  1.9891
13310TIP3   OH261420   5.275   1.313   5.570  0.3990 -0.1066 -0.8723
13310TIP3    H161421   5.293   1.391   5.623 -0.3871  0.0707 -0.8563
13310TIP3    H261422   5.361   1.284   5.540  0.9046 -0.3698  0.7401
13311TIP3   OH261423   1.895   4.800  16.030  0.1123  0.3755 -0.6488
13311TIP3    H161424   1.948   4.865  16.074  0.3475 -0.3759  0.1967
13311TIP3    H261425   1.815   4.795  16.082  0.2414 -0.2616 -0.5097
13312TIP3   OH261426   0.665   5.758  10.614  0.6034  0.1235 -0.1488
13312TIP3    H161427   0.600   5.808  10.663 -0.8848  0.2898 -2.2198
13312TIP3    H261428   0.615   5.719  10.542  2.3800 -1.6101 -0.4661
13313TIP3   OH261429   0.201   1.797  13.507  0.3186  0.1266  0.0964
13313TIP3    H161430   0.290   1.823  13.484  0.5106 -0.7064 -0.1224
13313TIP3    H261431   0.170   1.748  13.431 -0.2623  0.2431  0.2495
13314TIP3   OH261432   1.625   6.617  12.949  0.0064  0.3166  0.9008
13314TIP3    H161433   1.549   6.588  12.899 -0.7944  2.8913  0.5442
13314TIP3    H261434   1.591   6.688  13.004  1.9732  0.9099  1.3835
13315TIP3   OH261435   4.192   1.726  13.952 -0.1805 -0.0181  0.0625
13315TIP3    H161436   4.279   1.686  13.956 -0.5763 -0.8391  0.4347
13315TIP3    H261437   4.196   1.786  13.877  0.4886 -0.5557 -0.3290
13316TIP3   OH261438   5.900   0.005   4.820 -0.9719  1.1874 -0.3355
13316TIP3    H161439   5.928  -0.033   4.903  0.3114 -0.6655 -1.5888
13316TIP3    H261440   5.806   0.019   4.831 -1.7823 -3.5286 -0.2458
13317TIP3   OH261441   5.944   4.010  11.124  0.0867 -0.0585 -0.4888
13317TIP3    H161442   5.951   4.020  11.219 -1.2199  0.5680 -0.4465
13317TIP3    H261443   5.970   3.920  11.107 -0.4068 -0.4034  0.5469
13318TIP3   OH261444   3.091   2.164  11.419 -0.0288  0.0819  0.2267
13318TIP3    H161445   3.168   2.221  11.417 -0.7824  1.1421  0.2988
13318TIP3    H261446   3.119   2.087  11.469  1.2363  0.0518 -0.5195
13319TIP3   OH261447   0.558   4.267  12.823 -0.1084 -0.1236 -0.0342
13319TIP3    H161448   0.495   4.209  12.781  0.3548 -2.3885  2.2732
13319TIP3    H261449   0.519   4.288  12.908  1.0745  0.5217  0.3729
13320TIP3   OH261450   6.764   2.729  11.429  0.3816  0.8021  0.5506
13320TIP3    H161451   6.785   2.678  11.351  1.7619  2.1940 -0.0279
13320TIP3    H261452   6.678   2.696  11.457  0.9373 -1.3326 -0.1743
13321TIP3   OH261453   3.168   1.072  11.173 -0.6084  0.4225 -0.0278
13321TIP3    H161454   3.096   1.009  11.167 -0.2728 -0.2455  2.4953
13321TIP3    H261455   3.230   1.044  11.105 -1.0373 -1.2309  0.2430
13322TIP3   OH261456   6.636   1.836   3.546  0.2901  0.4062 -0.2805
13322TIP3    H161457   6.656   1.826   3.453  0.2721 -1.7915 -0.0624
13322TIP3    H261458   6.696   1.776   3.590 -1.0666 -0.0342  0.9899
13323TIP3   OH261459   4.914   3.838   2.889 -0.9290  0.0323  0.2826
13323TIP3    H161460   4.909   3.800   2.802 -0.0586  2.5436 -0.9186
13323TIP3    H261461   4.823   3.862   2.910 -0.9390  0.7077 -0.5284
13324TIP3   OH261462   2.707   5.659   5.328  0.2346 -0.4395  0.6931
13324TIP3    H161463   2.727   5.628   5.416  0.1827  0.2247  0.9397
13324TIP3    H261464   2.638   5.725   5.340  0.5668  0.0068  0.2053
13325TIP3   OH261465   6.658   1.863   1.759  0.1713  0.2708 -0.2265
13325TIP3    H161466   6.752   1.879   1.774 -0.1080  1.4972  0.3139
13325TIP3    H261467   6.652   1.840   1.667  1.1300 -0.7701 -0.0385
13326TIP3   OH261468   1.365   0.242  15.709  0.0396 -0.2027  0.2559
13326TIP3    H161469   1.426   0.173  15.683  0.6645  0.3099  0.3501
13326TIP3    H261470   1.378   0.252  15.803 -0.2925 -0.1930  0.3031
13327TIP3   OH261471   4.487   2.086  15.610  0.0954 -0.2229  0.1096
13327TIP3    H161472   4.549   2.038  15.555 -1.1414 -1.3221 -0.3631
13327TIP3    H261473   4.517   2.071  15.700  1.7634  1.0579 -0.2078
13328TIP3   OH261474   6.453   5.668  11.406  0.1328 -0.1681 -0.2554
13328TIP3    H161475   6.381   5.611  11.429  0.8635 -0.6722  0.8352
13328TIP3    H261476   6.436   5.750  11.453  0.6498 -0.5486  0.6123
13329TIP3   OH261477   5.452   1.737  12.647  0.0517  0.0073 -0.5072
13329TIP3    H161478   5.540   1.702  12.632  0.7345  2.5101 -2.8928
13329TIP3    H261479   5.395   1.678  12.598  0.4976 -1.1188  0.3081
13330TIP3   OH261480   3.040   6.736   4.321 -0.1730  0.1664 -0.2488
13330TIP3    H161481   2.961   6.773   4.359  1.8443  1.6374  2.7666
13330TIP3    H261482   3.049   6.650   4.363 -0.6048 -0.3557 -1.2159
13331TIP3   OH261483   0.705   4.708  14.517  0.2006  0.5099 -0.1125
13331TIP3    H161484   0.764   4.719  14.591 -0.6749  1.8500  0.3951
13331TIP3    H261485   0.744   4.637  14.465  0.7470 -0.5440  1.6955
13332TIP3   OH261486   1.377   2.458  16.650  0.1391 -0.0631  0.3409
13332TIP3    H161487   1.297   2.407  16.641  0.0229  0.1770  0.0016
13332TIP3    H261488   1.360   2.538  16.600  0.7220 -0.1628 -0.0232
13333TIP3   OH261489   2.837   1.555   2.632 -0.4248 -0.0821  0.4876
13333TIP3    H161490   2.789   1.545   2.550 -3.1122  0.7401  1.8838
13333TIP3    H261491   2.900   1.625   2.616 -2.0649  1.2265 -0.4095
13334TIP3   OH261492   6.251   3.507  13.737 -0.3899 -0.3067 -0.2636
13334TIP3    H161493   6.258   3.412  13.734 -0.6479 -0.2543 -4.2385
13334TIP3    H261494   6.341   3.538  13.739 -0.2599 -0.5963 -1.4646
13335TIP3   OH261495   5.837   0.087   2.102 -0.2728 -0.1374  0.0105
13335TIP3    H161496   5.823   0.086   2.197  1.6916  1.5543  0.3557
13335TIP3    H261497   5.927   0.117   2.092 -0.5050 -0.1940 -2.4117
13336TIP3   OH261498   5.134   3.596  12.817  0.1156 -0.2229  0.2849
13336TIP3    H161499   5.138   3.555  12.730 -1.3592 -0.7163  0.4264
13336TIP3    H261500   5.188   3.539  12.872  0.4198 -0.3543 -0.1411
13337TIP3   OH261501   5.508   3.307   5.784  0.3446 -0.1116 -0.2168
13337TIP3    H161502   5.495   3.292   5.877 -1.3003  1.5783 -0.1444
13337TIP3    H261503   5.443   3.251   5.741 -0.5986  0.9421 -0.2176
13338TIP3   OH261504   1.990   6.473  14.379  0.3604  0.3558  0.0802
13338TIP3    H161505   1.932   6.412  14.332 -0.2979  0.6186  0.5469
13338TIP3    H261506   2.052   6.416  14.425 -0.0026  0.0466  0.1908
13339TIP3   OH261507   0.546   3.351   4.245 -0.4731  0.2744  0.0229
13339TIP3    H161508   0.531   3.373   4.153  1.2717 -0.1987 -0.3861
13339TIP3    H261509   0.534   3.434   4.292  1.4199  1.1291 -0.9687
13340TIP3   OH261510   1.569   5.167   1.654 -0.1144  0.3993 -0.0608
13340TIP3    H161511   1.477   5.151   1.674  0.1681 -0.7099  0.3838
13340TIP3    H261512   1.605   5.081   1.635  0.6117  0.9469 -1.2098
13341TIP3   OH261513   0.685   3.440   2.848 -1.4338 -0.2100  0.1391
13341TIP3    H161514   0.745   3.435   2.774 -0.8152 -0.0492  0.6297
13341TIP3    H261515   0.667   3.349   2.871 -0.8103 -0.2577  0.4504
13342TIP3   OH261516   0.689   3.553  11.209  0.3206  0.2223 -0.2872
13342TIP3    H161517   0.765   3.610  11.209  2.2079 -2.1588  1.4684
13342TIP3    H261518   0.635   3.584  11.282  0.7305  0.5196 -0.1120
13343TIP3   OH261519   4.050   3.491  16.341  0.0103  0.7536 -0.4506
13343TIP3    H161520   4.043   3.581  16.373 -2.1475  0.5247 -0.1856
13343TIP3    H261521   4.133   3.460  16.376  0.4491  2.4060  0.0482
13344TIP3   OH261522   3.194   2.478  15.909  0.4610  0.6179  0.8601
13344TIP3    H161523   3.257   2.406  15.918  1.5369  1.4700  0.1922
13344TIP3    H261524   3.248   2.556  15.902 -0.6232  1.1882 -1.4775
13345TIP3   OH261525   0.084   1.443   4.078  0.5116 -0.2637  0.2574
13345TIP3    H161526   0.030   1.434   4.000 -1.7017  0.3307  1.6448
13345TIP3    H261527   0.156   1.501   4.052 -0.1693 -0.1188 -1.3432
13346TIP3   OH261528   5.022   5.436   0.598 -0.2776  0.1971  0.0313
13346TIP3    H161529   5.025   5.361   0.538 -0.6357 -0.1495  0.4438
13346TIP3    H261530   4.940   5.425   0.645 -1.1074  1.6996 -1.0107
13347TIP3   OH261531   4.950   1.617  15.260 -0.1207  0.4132  0.2077
13347TIP3    H161532   4.924   1.708  15.276 -0.6446  0.1262  1.0821
13347TIP3    H261533   4.969   1.613  15.167 -1.3194  1.1285 -0.0818
13348TIP3   OH261534   3.818   5.620   4.647  0.3924 -0.0311 -0.1278
13348TIP3    H161535   3.758   5.661   4.584 -0.3889 -0.6091  0.2166
13348TIP3    H261536   3.787   5.651   4.732  0.9634  0.1375  0.0154
13349TIP3   OH261537   5.126   0.398   3.866  0.7673  0.0509  0.2882
13349TIP3    H161538   5.148   0.486   3.833  1.9496  0.1390  1.2750
13349TIP3    H261539   5.180   0.388   3.944  0.9195 -1.7153 -0.0300
13350TIP3   OH261540   1.243   4.943   2.788  0.1010 -0.6297 -0.3582
13350TIP3    H161541   1.233   4.863   2.838  2.0559 -1.4816 -1.2765
13350TIP3    H261542   1.270   4.914   2.700 -1.4392  0.9146 -1.3795
13351TIP3   OH261543   0.887   6.133  16.553  0.4162  0.6476 -0.1581
13351TIP3    H161544   0.858   6.219  16.582  2.9333  1.1329  1.0018
13351TIP3    H261545   0.981   6.142  16.540  0.3329 -1.2655 -2.4376
13352TIP3   OH261546   3.275   0.084  14.278  0.1103 -0.4378  0.0575
13352TIP3    H161547   3.326   0.005  14.264 -1.1724 -1.4155  0.7839
13352TIP3    H261548   3.336   0.145  14.319  0.4964 -1.8668  1.6706
13353TIP3   OH261549   4.268   1.674   5.026  0.5583  0.4802  0.2431
13353TIP3    H161550   4.205   1.706   5.091 -0.6658 -0.3115 -0.5294
13353TIP3    H261551   4.275   1.580   5.045  0.0223  0.2013 -0.8854
13354TIP3   OH261552   0.933   6.570   4.772 -0.2280  0.2595  0.6212
13354TIP3    H161553   0.991   6.496   4.790 -1.1835 -1.1357 -1.8352
13354TIP3    H261554   0.846   6.537   4.794 -1.0788 -0.5475 -3.5355
13355TIP3   OH261555   0.541   0.016  17.266  0.9297  0.1414 -0.0287
13355TIP3    H161556   0.496  -0.044  17.326  2.7929 -0.6490  0.6202
13355TIP3    H261557   0.490   0.097  17.270 -1.8180 -1.4597 -1.1629
13356TIP3   OH261558   1.477   3.441  16.797  0.0858 -0.3868 -0.4420
13356TIP3    H161559   1.439   3.353  16.809 -1.2416  0.0189 -1.5228
13356TIP3    H261560   1.464   3.460  16.704  0.6385  0.8346 -0.2735
13357TIP3   OH261561   1.215   0.200  16.208  0.1439 -0.2699 -0.1428
13357TIP3    H161562   1.252   0.148  16.280 -0.0631 -0.8144 -0.4220
13357TIP3    H261563   1.176   0.276  16.251  0.0906 -0.5517  0.3150
13358TIP3   OH261564   3.557   0.929   5.835 -0.2361  0.0416  0.3184
13358TIP3    H161565   3.502   1.004   5.810  1.6131  0.8739 -1.4248
13358TIP3    H261566   3.616   0.963   5.902  1.4047  0.5362 -1.3172
13359TIP3   OH261567   1.168   3.696   0.584  0.5062  0.1196 -0.2552
13359TIP3    H161568   1.148   3.717   0.492 -0.7530  0.3000  0.0515
13359TIP3    H261569   1.194   3.779   0.622  0.8467  0.0816 -0.4084
13360TIP3   OH261570   6.614   3.469   3.406  0.4321  0.5360  0.4071
13360TIP3    H161571   6.524   3.484   3.435  0.2399 -0.1143  0.1631
13360TIP3    H261572   6.657   3.554   3.416 -0.1319  0.7826  0.7944
13361TIP3   OH261573   2.971   2.642  15.781  0.0485  0.5845  0.8707
13361TIP3    H161574   2.905   2.704  15.813  0.6847  1.2259  0.9706
13361TIP3    H261575   3.004   2.599  15.860 -1.1006 -0.6140  0.7109
13362TIP3   OH261576   5.899   2.905   0.108  0.4050 -0.0151  0.5015
13362TIP3    H161577   5.931   2.814   0.109  0.3221 -0.0703 -0.6879
13362TIP3    H261578   5.808   2.897   0.078  0.1745  0.4027  1.0872
13363TIP3   OH261579   0.683   3.613   0.174 -0.2210 -0.3013  0.3234
13363TIP3    H161580   0.730   3.529   0.181 -0.7934 -0.4012  3.5557
13363TIP3    H261581   0.592   3.590   0.192 -0.8242  0.6177 -1.4876
13364TIP3   OH261582   4.813   0.130   6.009 -0.1987  0.5874 -0.0167
13364TIP3    H161583   4.719   0.143   6.000  0.2697  3.4849 -1.2278
13364TIP3    H261584   4.838   0.184   6.084  0.7201  0.9080 -0.5478
13365TIP3   OH261585   2.997   3.496  11.792 -0.3378 -0.2863  0.9574
13365TIP3    H161586   3.084   3.463  11.767 -0.3433  0.9762 -0.8178
13365TIP3    H261587   2.947   3.418  11.814  0.2317 -1.3188 -1.2956
13366TIP3   OH261588   0.637   2.138   4.251 -0.6465  0.1899 -0.5108
13366TIP3    H161589   0.595   2.178   4.328 -0.5070  1.8710 -1.2710
13366TIP3    H261590   0.597   2.184   4.177 -0.6157 -1.2647 -1.4284
13367TIP3   OH261591   6.760   1.536  12.886 -0.3069 -0.4433  0.6652
13367TIP3    H161592   6.757   1.460  12.827  2.0363 -1.2913  1.5916
13367TIP3    H261593   6.701   1.599  12.846 -0.8282 -2.0259 -1.1608
13368TIP3   OH261594   2.847   5.165  11.935  0.2490  0.8881 -0.4348
13368TIP3    H161595   2.919   5.224  11.958  0.8363 -0.1646  0.5275
13368TIP3    H261596   2.772   5.222  11.920  0.8336  1.8817  0.3610
13369TIP3   OH261597   5.081   3.170   4.176 -0.1706 -0.0690  0.3067
13369TIP3    H161598   5.148   3.104   4.160  0.6942  1.6063 -3.4873
13369TIP3    H261599   5.124   3.235   4.232 -0.3850 -1.6105  2.3331
13370TIP3   OH261600   2.783   2.792   1.895  0.4528 -0.4618  0.0631
13370TIP3    H161601   2.822   2.867   1.939  3.7326 -1.7267 -0.5974
13370TIP3    H261602   2.744   2.740   1.966  0.9990  0.2094  0.8578
13371TIP3   OH261603   4.963   4.293  13.097  0.8012 -0.7519  0.4702
13371TIP3    H161604   4.978   4.203  13.069 -3.1320 -1.5034  0.6215
13371TIP3    H261605   4.884   4.290  13.150  0.1691  2.8962 -0.1138
13372TIP3   OH261606   4.913   3.416   0.772  0.2729  0.9318 -0.1720
13372TIP3    H161607   4.940   3.494   0.820  1.5809  0.4168 -0.0557
13372TIP3    H261608   4.933   3.437   0.680  0.1790  0.9130 -0.1971
13373TIP3   OH261609   1.025   3.795   5.100 -1.1948 -0.3744 -0.0013
13373TIP3    H161610   0.999   3.870   5.047 -0.2397  0.1567  0.2759
13373TIP3    H261611   1.074   3.739   5.039 -1.0989 -0.3267  0.0331
13374TIP3   OH261612   5.267   5.603  11.889 -0.3366  0.2658  0.0708
13374TIP3    H161613   5.235   5.668  11.952 -0.9660 -0.5098  0.5614
13374TIP3    H261614   5.218   5.621  11.809 -1.2196 -0.2111  0.4947
13375TIP3   OH261615   0.972   3.826   3.363  0.0302  0.1623  0.3000
13375TIP3    H161616   0.946   3.894   3.425 -0.2797  0.7319 -0.4424
13375TIP3    H261617   0.905   3.830   3.295  0.0621 -0.8280  0.2096
13376TIP3   OH261618   6.622   4.578   6.367 -0.2113  0.2609  0.1472
13376TIP3    H161619   6.621   4.487   6.338  0.3478  0.8962 -2.0004
13376TIP3    H261620   6.709   4.610   6.342 -0.7852  1.6811 -0.0990
13377TIP3   OH261621   2.770   2.522  12.321 -0.3092  0.0720  0.0807
13377TIP3    H161622   2.851   2.563  12.350 -0.8553  0.3806  1.2220
13377TIP3    H261623   2.710   2.596  12.307 -0.2915 -0.1274 -1.1145
13378TIP3   OH261624   2.237   2.389   3.828 -0.3285 -0.3422 -0.4064
13378TIP3    H161625   2.327   2.371   3.858 -0.1629  0.7928 -0.2152
13378TIP3    H261626   2.214   2.312   3.776  0.5294 -0.9255  0.0549
13379TIP3   OH261627   3.724   1.672  11.029  0.2335  0.0137 -0.1157
13379TIP3    H161628   3.646   1.625  10.997  1.0093 -1.0291 -0.5316
13379TIP3    H261629   3.690   1.752  11.068 -1.0308 -0.3099 -0.5246
13380TIP3   OH261630   4.429   5.120   5.861 -0.2949 -0.4904 -0.1759
13380TIP3    H161631   4.406   5.210   5.884 -0.2667 -0.1440 -1.4794
13380TIP3    H261632   4.467   5.084   5.941  2.4190  1.5871 -0.4516
13381TIP3   OH261633   2.600   4.767  14.921 -0.3868 -0.2366 -0.2399
13381TIP3    H161634   2.589   4.692  14.863 -1.0909  0.0040 -0.4208
13381TIP3    H261635   2.573   4.842  14.868 -2.5356 -0.1823  0.8992
13382TIP3   OH261636   0.581   6.639  15.171 -0.1972  0.4787  0.0554
13382TIP3    H161637   0.509   6.620  15.111  1.7126  0.1429 -2.1728
13382TIP3    H261638   0.629   6.556  15.180  2.6201  1.7751 -2.2150
13383TIP3   OH261639   1.886   1.376   3.253  0.1046 -0.5830 -0.0329
13383TIP3    H161640   1.893   1.444   3.320 -0.2126 -0.4040 -0.1808
13383TIP3    H261641   1.956   1.396   3.191 -0.9241  0.5082 -0.8803
13384TIP3   OH261642   4.020   5.885  14.245  0.4065  0.2841  0.2078
13384TIP3    H161643   4.034   5.889  14.150 -0.2990 -1.1510  0.0329
13384TIP3    H261644   3.945   5.943  14.260  1.3446  1.5474  0.0709
13385TIP3   OH261645   5.554   1.439   1.787  0.0486 -0.3150 -0.1985
13385TIP3    H161646   5.609   1.393   1.850  2.8052  2.8751 -0.1298
13385TIP3    H261647   5.491   1.487   1.840 -0.3689 -0.9361 -0.1181
13386TIP3   OH261648   4.546   1.619  14.882 -0.4969  0.5701 -0.4613
13386TIP3    H161649   4.502   1.696  14.918  0.9144  1.0318  0.3106
13386TIP3    H261650   4.633   1.651  14.857  0.0960 -0.7755 -0.1304
13387TIP3   OH261651   6.397   0.593  14.736 -0.1978 -0.4606  0.1133
13387TIP3    H161652   6.406   0.546  14.653 -0.6183 -2.7414  1.3224
13387TIP3    H261653   6.332   0.543  14.785  0.5066  0.5068  2.0739
13388TIP3   OH261654   6.030   1.279   4.170 -0.5809  0.4755 -0.7690
13388TIP3    H161655   6.082   1.327   4.106  0.7859  0.0332 -0.0043
13388TIP3    H261656   6.056   1.188   4.158 -1.0445  0.2733 -0.2440
13389TIP3   OH261657   2.774   5.723   5.811 -0.1357  0.2979 -0.6277
13389TIP3    H161658   2.785   5.673   5.730 -0.5288  0.1480 -0.5901
13389TIP3    H261659   2.679   5.732   5.821 -0.1155 -0.3713  0.2435
13390TIP3   OH261660   4.506   4.810   5.966 -0.4730 -0.1444 -0.1622
13390TIP3    H161661   4.454   4.821   5.886 -0.9884  2.4249  0.4539
13390TIP3    H261662   4.444   4.823   6.037  0.1648 -1.4528  0.6406
13391TIP3   OH261663   0.084   3.451  15.994  0.5055  0.5821  0.0279
13391TIP3    H161664   0.060   3.373  15.945 -3.4132  0.4382  1.9278
13391TIP3    H261665   0.167   3.429  16.036  0.5429 -1.7240 -1.1754
13392TIP3   OH261666   6.779   3.967   3.553  0.1637 -0.0658  0.5104
13392TIP3    H161667   6.695   4.012   3.569  0.0174 -0.0239 -0.3664
13392TIP3    H261668   6.845   4.034   3.573 -0.0744  1.0341 -2.1922
13393TIP3   OH261669   4.177   5.300  13.087 -0.9902 -0.3929 -0.1005
13393TIP3    H161670   4.201   5.237  13.019 -2.9467 -1.8017  0.4895
13393TIP3    H261671   4.244   5.368  13.080  0.2950 -1.7677 -1.7490
13394TIP3   OH261672   6.304   1.011   5.576 -0.4217  0.0246 -0.2190
13394TIP3    H161673   6.270   1.019   5.665 -0.2110  1.4739 -0.2531
13394TIP3    H261674   6.311   0.916   5.561  0.2827 -0.2351  1.5905
13395TIP3   OH261675   5.508   2.330   2.884 -0.2370  0.3028  0.3844
13395TIP3    H161676   5.420   2.365   2.874 -0.2356  0.8242  2.0283
13395TIP3    H261677   5.497   2.252   2.939 -0.0168 -1.3204 -1.7959
13396TIP3   OH261678   6.584   3.106  12.247  0.1773  0.1547 -0.2455
13396TIP3    H161679   6.575   3.068  12.334 -0.9612 -0.4357 -0.6089
13396TIP3    H261680   6.642   3.181  12.259  0.0841  0.0272  1.0049
13397TIP3   OH261681   6.671   2.000  15.519  0.2372 -0.0742  0.6992
13397TIP3    H161682   6.714   2.021  15.436 -0.3193  1.4474  0.7833
13397TIP3    H261683   6.592   1.953  15.493  0.6556 -0.6406  0.4311
13398TIP3   OH261684   4.627   0.416  16.931  0.4008 -0.3335  0.1924
13398TIP3    H161685   4.623   0.504  16.893  1.6320  0.5608  2.0249
13398TIP3    H261686   4.690   0.369  16.877  0.3626  0.1631 -0.2917
13399TIP3   OH261687   2.018   6.106   5.963 -0.0400  0.3379  0.2177
13399TIP3    H161688   2.043   6.150   6.044  0.7949 -2.4341  1.5204
13399TIP3    H261689   2.095   6.055   5.938 -0.5464  0.5766 -1.9378
13400TIP3   OH261690   2.081   1.476   6.154  0.4087 -0.2782  0.1073
13400TIP3    H161691   2.097   1.497   6.246 -1.2060 -0.8215  0.5431
13400TIP3    H261692   2.050   1.558   6.116  2.5859  0.3540 -0.3488
13401TIP3   OH261693   1.065   3.186   4.816  0.0735  0.4919 -0.8249
13401TIP3    H161694   1.099   3.191   4.726 -0.5906  2.1506 -1.0062
13401TIP3    H261695   1.009   3.108   4.817  0.0971  0.4581 -1.8412
13402TIP3   OH261696   5.993   1.948   5.389  0.7827 -0.4684  0.5678
13402TIP3    H161697   5.976   1.941   5.483  0.0160 -0.3305  0.4365
13402TIP3    H261698   6.065   1.887   5.374 -0.0762 -1.5958  0.9785
13403TIP3   OH261699   4.332   2.517   3.668  0.3645 -0.2203 -0.0957
13403TIP3    H161700   4.269   2.555   3.730  1.3280  1.6400 -0.2209
13403TIP3    H261701   4.282   2.451   3.621 -1.5159  1.2025 -0.1692
13404TIP3   OH261702   2.964   1.337  13.384  0.3325  0.6200 -0.0084
13404TIP3    H161703   2.963   1.388  13.303  3.9448 -0.3851 -0.7961
13404TIP3    H261704   2.971   1.246  13.355 -2.5802 -0.1432  1.4373
13405TIP3   OH261705   5.575   6.263   3.780  0.0658  0.1758 -0.2239
13405TIP3    H161706   5.526   6.333   3.738 -0.4690  0.1698  0.3787
13405TIP3    H261707   5.570   6.190   3.718 -1.3727 -0.0836  0.1776
13406TIP3   OH261708   4.996   3.827  11.739  0.1766  0.3112  0.3036
13406TIP3    H161709   5.065   3.888  11.764 -0.4922  1.3407 -0.3091
13406TIP3    H261710   4.977   3.849  11.648 -0.1579 -0.7460  0.1088
13407TIP3   OH261711   5.719   1.430  14.177 -0.4300  0.2423  0.6496
13407TIP3    H161712   5.677   1.513  14.155  0.6444  0.3999 -0.8770
13407TIP3    H261713   5.682   1.367  14.116  1.3197  0.3360 -0.5564
13408TIP3   OH261714   1.825   0.418   2.223 -0.6810  0.3101  0.3667
13408TIP3    H161715   1.740   0.402   2.182 -1.2063  0.0594  1.5247
13408TIP3    H261716   1.878   0.342   2.197 -1.6217 -0.8505  1.7310
13409TIP3   OH261717   2.578   4.857  12.764  0.2420  0.1192 -0.4511
13409TIP3    H161718   2.492   4.894  12.785  0.5370  0.8488 -0.5087
13409TIP3    H261719   2.586   4.866  12.669  0.4308  0.1666 -0.4310
13410TIP3   OH261720   5.664   4.531   4.682  0.3349  0.4327 -0.1029
13410TIP3    H161721   5.711   4.613   4.666 -1.0376  1.1056 -0.7443
13410TIP3    H261722   5.665   4.520   4.777  2.3840  0.0714 -0.1385
13411TIP3   OH261723   4.282   2.049   4.499  0.5024 -0.3671 -0.6177
13411TIP3    H161724   4.229   2.128   4.488  1.7418  0.3854 -1.1780
13411TIP3    H261725   4.341   2.069   4.571 -0.0496 -1.2518  0.0857
13412TIP3   OH261726   6.258   3.214   2.004 -0.2029  0.2212  0.1236
13412TIP3    H161727   6.174   3.192   1.964 -0.3702  1.2512 -0.1129
13412TIP3    H261728   6.314   3.238   1.931  0.9766 -2.5601  0.0808
13413TIP3   OH261729   3.547   3.629  13.925  0.3248 -0.3014 -0.5346
13413TIP3    H161730   3.579   3.539  13.921 -0.0773 -0.4296 -0.8639
13413TIP3    H261731   3.469   3.630  13.869  0.0327  0.1291 -0.1259
13414TIP3   OH261732   0.983   2.794   1.178 -0.0607 -0.3987 -0.0533
13414TIP3    H161733   0.955   2.837   1.259 -1.9942  0.1800 -0.9822
13414TIP3    H261734   1.078   2.787   1.185 -0.0447  1.1742  1.5126
13415TIP3   OH261735   2.127   6.338  11.461  0.2130 -0.0837  0.3294
13415TIP3    H161736   2.091   6.348  11.373 -0.0640 -1.3924  0.2947
13415TIP3    H261737   2.051   6.345  11.519  0.3347  0.3130  0.4439
13416TIP3   OH261738   6.105   2.747   3.447 -0.3372 -0.6000  0.4608
13416TIP3    H161739   6.145   2.783   3.526  0.6571 -1.3936  0.3202
13416TIP3    H261740   6.159   2.779   3.375 -0.3186 -1.1732  0.2181
13417TIP3   OH261741   0.620   3.274   4.821  0.0687  0.1778 -0.2393
13417TIP3    H161742   0.537   3.239   4.789  0.3943  0.5714 -1.5510
13417TIP3    H261743   0.600   3.305   4.909 -1.3005  0.6723 -0.7038
13418TIP3   OH261744   3.747   0.203  14.290 -0.4239 -0.0336 -0.4101
13418TIP3    H161745   3.834   0.164  14.280 -0.0250  0.3848  1.2461
13418TIP3    H261746   3.718   0.221  14.201  1.5193  0.5411 -0.9460
13419TIP3   OH261747   4.562   1.064  13.756  0.2299 -0.3470  0.2349
13419TIP3    H161748   4.520   0.980  13.776 -0.0314 -0.6293 -1.4362
13419TIP3    H261749   4.492   1.118  13.720  0.4724  0.4980  1.0055
13420TIP3   OH261750   3.272   4.397  14.026 -0.2691 -0.0205  0.0129
13420TIP3    H161751   3.270   4.307  14.057  3.9546 -0.5087 -0.8697
13420TIP3    H261752   3.214   4.398  13.949 -0.7188 -1.8454  0.3210
13421TIP3   OH261753   0.779   6.408   0.032 -0.0357  0.3843  0.0248
13421TIP3    H161754   0.862   6.376   0.066 -0.9227 -1.6288  0.3878
13421TIP3    H261755   0.733   6.442   0.109 -0.2765 -0.1640  0.1247
13422TIP3   OH261756   5.267   5.508   2.206 -0.4276  0.4422 -0.0734
13422TIP3    H161757   5.340   5.485   2.148 -0.5630 -1.3412  0.4329
13422TIP3    H261758   5.294   5.590   2.246  1.1379 -0.0004 -0.1808
13423TIP3   OH261759   5.698   6.616   3.351 -0.1533  0.0593 -0.0423
13423TIP3    H161760   5.734   6.531   3.375 -1.9637 -0.2252  1.8533
13423TIP3    H261761   5.714   6.624   3.257  0.9796 -1.9046 -0.0319
13424TIP3   OH261762   1.505   3.425  11.432 -0.0867 -0.2916 -0.5083
13424TIP3    H161763   1.486   3.465  11.347  0.7969  2.3822  0.5295
13424TIP3    H261764   1.420   3.423  11.477 -0.4437 -1.1742 -1.1946
13425TIP3   OH261765   1.330   6.107  12.732 -0.4553 -0.0811  0.1384
13425TIP3    H161766   1.363   6.114  12.642  1.0741  2.5082  0.8379
13425TIP3    H261767   1.235   6.096  12.722 -0.6470  2.7249 -1.7832
13426TIP3   OH261768   6.394   2.822  13.926 -0.0789  0.7398 -0.2778
13426TIP3    H161769   6.420   2.810  14.017  1.0347  0.2522 -0.6558
13426TIP3    H261770   6.375   2.916  13.919 -0.2096  0.7718  0.4614
13427TIP3   OH261771   6.702   5.306  14.700 -0.3983 -0.0908  0.6660
13427TIP3    H161772   6.651   5.315  14.780 -0.2892 -2.2885  1.0146
13427TIP3    H261773   6.637   5.288  14.632 -0.2901 -0.8071  0.7431
13428TIP3   OH261774   2.437   0.477   2.263  0.4195 -0.7430 -0.0776
13428TIP3    H161775   2.353   0.438   2.289 -0.0876  0.0098 -0.5390
13428TIP3    H261776   2.503   0.423   2.306 -0.2052 -2.8992 -1.7194
13429TIP3   OH261777   2.366   2.628  14.004 -0.2493  0.0214  0.2042
13429TIP3    H161778   2.349   2.582  14.086 -0.4527 -0.2377  0.0206
13429TIP3    H261779   2.418   2.567  13.953  0.8756  0.6414  0.5939
13430TIP3   OH261780   0.993   1.930   6.264  0.0713 -0.4002  0.3500
13430TIP3    H161781   0.906   1.900   6.286 -0.9591  1.6610 -0.6907
13430TIP3    H261782   1.015   1.995   6.331  0.7262 -0.7911  0.5189
13431TIP3   OH261783   0.404   0.629   2.270  0.3038  0.0854  0.0171
13431TIP3    H161784   0.458   0.610   2.346  0.0646  1.0837  0.4532
13431TIP3    H261785   0.322   0.582   2.286  0.3943 -0.0117  0.1926
13432TIP3   OH261786   0.384   3.750   2.593 -0.3454 -0.6011 -0.2017
13432TIP3    H161787   0.350   3.805   2.522 -0.8047  1.4218  1.5413
13432TIP3    H261788   0.326   3.767   2.667  0.9828 -1.5661  1.0894
13433TIP3   OH261789   4.289   3.205   3.324 -0.6242 -0.1568 -0.0402
13433TIP3    H161790   4.221   3.198   3.257 -0.7321  0.0418  0.0478
13433TIP3    H261791   4.261   3.278   3.379 -0.7702 -0.6167  0.4972
13434TIP3   OH261792   1.546   0.787  16.296 -0.5524 -0.1406  0.1929
13434TIP3    H161793   1.524   0.725  16.226  0.0365  0.2242 -0.3068
13434TIP3    H261794   1.612   0.844  16.258 -3.6930  3.1613 -0.6140
13435TIP3   OH261795   5.765   5.228   3.403  0.8161 -0.0085  0.1566
13435TIP3    H161796   5.691   5.289   3.397  2.8213  2.3591 -2.3066
13435TIP3    H261797   5.728   5.147   3.437 -2.4749  1.7719  0.9922
13436TIP3   OH261798   0.237   0.437   6.263  0.0018  0.3016 -0.0972
13436TIP3    H161799   0.306   0.477   6.315 -0.9601  1.0673  0.6130
13436TIP3    H261800   0.163   0.429   6.323 -1.3880  1.9031 -1.5116
13437TIP3   OH261801   1.827   2.676   2.342 -0.4649 -0.2294 -0.7058
13437TIP3    H161802   1.903   2.710   2.389  0.2316 -2.6921  0.0219
13437TIP3    H261803   1.752   2.703   2.396  0.1069 -0.2428  0.1070
13438TIP3   OH261804   6.125   1.475   3.633  0.0194  0.3596 -0.0410
13438TIP3    H161805   6.187   1.420   3.586  1.2464  1.2678  0.4887
13438TIP3    H261806   6.094   1.538   3.567 -0.5344 -0.2465 -0.3656
13439TIP3   OH261807   6.527   1.963   4.478  0.4242  0.5732  0.6448
13439TIP3    H161808   6.557   2.014   4.553 -0.9685  0.2732  1.4264
13439TIP3    H261809   6.449   2.009   4.447 -0.7603 -0.9681  1.2716
13440TIP3   OH261810   6.459   5.089   0.629 -0.2291  0.4096 -0.2199
13440TIP3    H161811   6.465   5.175   0.670  1.6980  0.7935 -1.2429
13440TIP3    H261812   6.413   5.105   0.546 -2.0366  0.0197  0.6733
13441TIP3   OH261813   2.882   4.343   0.095 -0.1596 -0.0725 -0.5437
13441TIP3    H161814   2.920   4.392   0.022 -0.0128 -0.7816 -0.9462
13441TIP3    H261815   2.796   4.316   0.064 -1.0674  1.6050  0.4007
13442TIP3   OH261816   6.293   4.778   3.640 -0.1407 -0.1557 -0.7696
13442TIP3    H161817   6.339   4.820   3.713 -0.5998  0.8652 -1.0624
13442TIP3    H261818   6.208   4.755   3.676 -0.8566  1.5399 -1.3445
13443TIP3   OH261819   1.864   3.092   4.140 -0.0136 -0.4917  0.4551
13443TIP3    H161820   1.864   3.114   4.046  1.6887  0.0896  0.5664
13443TIP3    H261821   1.801   3.020   4.148  1.2656 -1.8795 -1.4668
13444TIP3   OH261822   6.785   1.005   0.765 -0.3329  0.3275  0.2625
13444TIP3    H161823   6.818   0.929   0.811  2.8634  2.3419  1.4601
13444TIP3    H261824   6.771   1.071   0.833 -1.8797  1.2309 -0.8904
13445TIP3   OH261825   4.831   2.391   4.004 -0.2100  0.4681  0.2099
13445TIP3    H161826   4.830   2.475   3.959 -1.0178  0.1379 -0.3914
13445TIP3    H261827   4.858   2.328   3.938 -0.5936  0.1065  0.3944
13446TIP3   OH261828   6.319   2.543  10.541  0.2461  0.0418  0.6957
13446TIP3    H161829   6.281   2.468  10.496  2.3162 -2.3294  2.7495
13446TIP3    H261830   6.254   2.613  10.531 -1.7780 -2.0280 -1.1668
13447TIP3   OH261831   2.646   0.054  13.968  0.0003  0.4231 -0.2917
13447TIP3    H161832   2.572   0.061  13.907 -0.1749 -0.1367 -0.1422
13447TIP3    H261833   2.613   0.093  14.049 -0.3796 -0.4842 -0.0029
13448TIP3   OH261834   1.961   0.391  12.880 -0.0961  0.5137 -0.4869
13448TIP3    H161835   1.944   0.297  12.876  1.0305  0.1827  1.9070
13448TIP3    H261836   1.968   0.410  12.973  0.5274  2.8359 -0.9831
13449TIP3   OH261837   1.118   4.262   6.155 -0.2122  0.0440 -0.3841
13449TIP3    H161838   1.100   4.170   6.140 -1.5736  0.0834  0.8361
13449TIP3    H261839   1.202   4.278   6.112  0.4044 -1.9300  0.0508
13450TIP3   OH261840   6.180   2.872   5.029 -0.0204 -0.1203 -0.8404
13450TIP3    H161841   6.217   2.841   4.946 -0.5960 -0.5636 -0.9332
13450TIP3    H261842   6.223   2.956   5.044  0.1267 -0.0629 -1.5608
13451TIP3   OH261843   6.818   4.130  16.983  0.5710 -0.1297  0.0622
13451TIP3    H161844   6.730   4.099  16.963  0.1707  0.9824  0.0763
13451TIP3    H261845   6.874   4.053  16.970 -0.5209 -1.1127  1.0351
13452TIP3   OH261846   5.423   3.003   6.455  0.4004 -0.1185  0.5773
13452TIP3    H161847   5.390   3.021   6.367 -1.9942 -0.8807  1.2773
13452TIP3    H261848   5.476   3.080   6.477 -0.9455  1.1753 -0.6009
13453TIP3   OH261849   2.691   1.237  15.231 -0.0348 -0.1953  0.2698
13453TIP3    H161850   2.725   1.209  15.316 -0.7363 -0.6114  0.4187
13453TIP3    H261851   2.688   1.332  15.236  0.8689 -0.1695  0.3430
13454TIP3   OH261852   6.663   5.766  16.950  0.3953  0.0194  0.3004
13454TIP3    H161853   6.608   5.766  17.029 -0.2867 -0.8590 -0.1612
13454TIP3    H261854   6.647   5.852  16.910  0.8746  0.5337  1.1969
13455TIP3   OH261855   4.714   6.191   1.993 -0.0211 -0.1728 -0.1383
13455TIP3    H161856   4.729   6.284   2.011 -1.1916 -0.0330  0.1344
13455TIP3    H261857   4.793   6.163   1.947  0.4013  0.9215 -0.1008
13456TIP3   OH261858   0.907   0.065   1.727  0.3447  0.0223  0.1304
13456TIP3    H161859   0.950   0.018   1.798 -0.9087 -0.1359  0.7968
13456TIP3    H261860   0.877   0.147   1.767 -0.5924 -0.1796 -0.1550
13457TIP3   OH261861   5.280   6.048   0.017 -0.5569  0.0687  0.4954
13457TIP3    H161862   5.311   5.965   0.054  1.3633  0.2733 -0.6182
13457TIP3    H261863   5.289   6.110   0.089 -0.1109 -0.2767  0.7449
13458TIP3   OH261864   5.573   3.231   3.371 -0.4673 -0.0222 -0.3786
13458TIP3    H161865   5.513   3.184   3.429 -0.5466 -1.7445 -1.7785
13458TIP3    H261866   5.659   3.193   3.388 -0.0787  1.1170  0.2697
13459TIP3   OH261867   0.265   5.503   1.417 -0.0973  0.1228 -0.2735
13459TIP3    H161868   0.291   5.518   1.327 -1.7075 -1.7058 -1.0792
13459TIP3    H261869   0.290   5.413   1.436 -0.4947  0.2262  0.8280
13460TIP3   OH261870   4.665   2.857   3.748  0.3411 -0.1289 -0.4347
13460TIP3    H161871   4.691   2.767   3.768  0.0780  0.3536  2.3014
13460TIP3    H261872   4.747   2.906   3.745  0.3780 -0.1757 -0.2402
13461TIP3   OH261873   4.958   5.665   3.876  0.1303  0.7130 -0.1008
13461TIP3    H161874   5.015   5.589   3.885 -1.3159 -0.4535 -0.5638
13461TIP3    H261875   5.012   5.739   3.903  1.5179 -0.4925  0.4907
13462TIP3   OH261876   3.291   4.733  12.111  0.3710  0.5032 -0.1235
13462TIP3    H161877   3.277   4.826  12.129 -0.4677 -0.2528  3.7217
13462TIP3    H261878   3.209   4.704  12.072  0.9819  1.5160 -2.2581
13463TIP3   OH261879   5.197   1.149  12.620  0.3678 -0.0911 -0.0323
13463TIP3    H161880   5.187   1.147  12.525  0.5894  1.1226 -0.0835
13463TIP3    H261881   5.157   1.231  12.647 -0.8979 -1.0588  1.0729
13464TIP3   OH261882   0.786   3.024  13.583 -0.1284  0.2838 -0.0471
13464TIP3    H161883   0.855   3.058  13.640 -0.6005  2.7889 -0.9036
13464TIP3    H261884   0.705   3.042  13.631 -0.2817 -1.5282  0.3989
13465TIP3   OH261885   1.365   1.341   2.956 -0.5879 -0.1669  0.0997
13465TIP3    H161886   1.386   1.332   2.863  1.3279  0.7638  0.4147
13465TIP3    H261887   1.337   1.432   2.966 -2.4385 -0.7245  0.1447
13466TIP3   OH261888   1.759   4.113  11.328 -0.2569 -0.3993 -0.2631
13466TIP3    H161889   1.754   4.155  11.242  0.5868  1.8383  0.7329
13466TIP3    H261890   1.852   4.094  11.340 -0.5701 -2.2253 -0.5068
13467TIP3   OH261891   4.863   6.102  14.071  0.0130 -0.1985  0.6310
13467TIP3    H161892   4.795   6.054  14.025 -0.5573  0.9763  0.2447
13467TIP3    H261893   4.943   6.085  14.021 -0.4597  0.4339 -0.3573
13468TIP3   OH261894   1.130   4.799  15.373 -0.6681 -0.7249 -0.0769
13468TIP3    H161895   1.209   4.749  15.390 -0.5793 -0.5974 -0.1118
13468TIP3    H261896   1.134   4.821  15.280 -0.0189  0.5337  0.2471
13469TIP3   OH261897   0.830   6.669   1.463  0.0967  0.2119 -0.7208
13469TIP3    H161898   0.824   6.616   1.543 -0.8357 -1.1468 -1.6620
13469TIP3    H261899   0.798   6.755   1.488  0.1444 -0.1054  0.4564
13470TIP3   OH261900   6.796   0.000  13.589  0.0663  0.4431 -0.5413
13470TIP3    H161901   6.722   0.038  13.637  0.2738  0.4035 -0.1862
13470TIP3    H261902   6.779   0.023  13.497 -0.4317  0.3571 -0.4754
13471TIP3   OH261903   1.163   6.271   6.259  0.2638 -0.3201  0.5833
13471TIP3    H161904   1.218   6.205   6.298  3.7233  0.9456 -1.8915
13471TIP3    H261905   1.220   6.347   6.248 -2.0545  1.1861 -1.7263
13472TIP3   OH261906   0.557   3.863  12.503 -0.3249  0.1273 -0.8029
13472TIP3    H161907   0.576   3.812  12.582  0.7989  0.4031 -0.8834
13472TIP3    H261908   0.473   3.831  12.473 -1.1383  0.5598  0.9485
13473TIP3   OH261909   1.876   3.585   5.843 -0.1445  0.1447  0.0571
13473TIP3    H161910   1.875   3.509   5.786  0.3730 -0.9560  1.4611
13473TIP3    H261911   1.945   3.566   5.907 -0.3737  1.5475  0.7606
13474TIP3   OH261912   4.151   5.770   2.706  0.6913 -0.2990  0.6498
13474TIP3    H161913   4.241   5.794   2.726  0.3851  0.5201  1.0733
13474TIP3    H261914   4.120   5.724   2.785  0.3921  0.3927  0.9381
13475TIP3   OH261915   5.949   3.423  11.032 -0.7719  0.0573  0.1303
13475TIP3    H161916   5.996   3.492  10.986  0.4762 -1.1529 -0.4592
13475TIP3    H261917   5.934   3.356  10.966 -1.2996 -0.5540  0.8636
13476TIP3   OH261918   0.045   4.639  11.984  0.7592 -0.4804  0.8788
13476TIP3    H161919   0.089   4.556  12.003  0.5752 -0.3329  1.9970
13476TIP3    H261920   0.078   4.700  12.051  1.5309  0.5785 -0.4325
13477TIP3   OH261921   5.551   3.665  15.763 -0.5628  0.0066  0.2391
13477TIP3    H161922   5.634   3.626  15.793 -0.0147  1.4924  0.7054
13477TIP3    H261923   5.576   3.719  15.688 -1.2957 -0.3926 -0.2991
13478TIP3   OH261924   0.386   2.116   3.226 -0.4321 -0.0940 -0.4470
13478TIP3    H161925   0.419   2.161   3.148 -1.9648  1.6901 -0.0990
13478TIP3    H261926   0.305   2.162   3.248 -0.8541 -1.5956  1.2775
13479TIP3   OH261927   3.768   0.814   3.131  0.0086  0.1679  0.3271
13479TIP3    H161928   3.782   0.900   3.172 -0.4695  0.0594  0.7164
13479TIP3    H261929   3.784   0.751   3.201 -0.1211 -0.0417  0.1689
13480TIP3   OH261930   5.793   6.716   5.245  0.2713 -0.2432  0.3476
13480TIP3    H161931   5.877   6.721   5.199  1.6734 -0.1982  2.8249
13480TIP3    H261932   5.755   6.803   5.236  2.1324  0.7878  2.1473
13481TIP3   OH261933   0.764   4.924   6.205 -0.1582  0.5873 -0.4802
13481TIP3    H161934   0.747   4.952   6.295 -0.3421  1.0877 -0.6668
13481TIP3    H261935   0.830   4.856   6.213 -1.3177 -0.4969  0.1626
13482TIP3   OH261936   1.997   0.790  13.493  0.1539  0.1267 -0.2686
13482TIP3    H161937   1.977   0.712  13.442 -1.1877  0.4948 -0.3172
13482TIP3    H261938   1.917   0.842  13.491  0.0729  0.1761  2.1871
13483TIP3   OH261939   5.561   0.110  12.620 -0.1231 -0.4535  0.2299
13483TIP3    H161940   5.556   0.169  12.695  1.3273 -2.1277  1.6828
13483TIP3    H261941   5.559   0.022  12.658  1.5855 -1.3421 -1.6035
13484TIP3   OH261942   5.555   3.033   3.075 -0.4446  0.2211  0.4559
13484TIP3    H161943   5.605   3.115   3.065 -2.0525  1.1799  0.1669
13484TIP3    H261944   5.618   2.965   3.051  0.1624  1.5210 -1.9215
13485TIP3   OH261945   6.499   5.205   5.877  0.5002  0.3406  0.2894
13485TIP3    H161946   6.440   5.195   5.952  1.2046 -1.0845  0.6741
13485TIP3    H261947   6.445   5.183   5.801 -0.4211  2.5146  0.2888
13486TIP3   OH261948   3.836   6.605   2.399  0.8807  0.3737  0.0988
13486TIP3    H161949   3.761   6.626   2.344  0.7510 -1.1121 -0.3288
13486TIP3    H261950   3.894   6.681   2.392 -0.4157  1.3797  0.1612
13487TIP3   OH261951   4.758   1.642   1.704 -0.4430  0.3206  0.3072
13487TIP3    H161952   4.801   1.560   1.726  1.4923  0.9297 -0.9754
13487TIP3    H261953   4.667   1.630   1.729 -0.0032 -1.8845  0.9415
13488TIP3   OH261954   2.369   0.106  13.456  0.5224 -0.0545  0.1048
13488TIP3    H161955   2.359   0.036  13.391 -2.3286 -0.0951  0.5074
13488TIP3    H261956   2.285   0.109  13.501  0.5912  3.5563  0.1825
13489TIP3   OH261957   1.467   4.153   1.917 -0.5550 -0.8712  0.4135
13489TIP3    H161958   1.542   4.176   1.972 -0.2903  1.5419 -0.8728
13489TIP3    H261959   1.486   4.065   1.886  2.0173 -0.1118 -0.2846
13490TIP3   OH261960   1.907   4.292  14.791 -0.1196  0.0944  0.1527
13490TIP3    H161961   1.922   4.351  14.717 -1.3223 -2.2328 -2.0115
13490TIP3    H261962   1.813   4.274  14.790  0.2450 -2.0096  0.6234
13491TIP3   OH261963   1.419   2.457  14.364 -0.1442  0.0861  0.6550
13491TIP3    H161964   1.383   2.533  14.410 -0.6513  0.8864 -1.0547
13491TIP3    H261965   1.348   2.426  14.309  0.8653 -0.0995 -0.5596
13492TIP3   OH261966   0.704   3.935  11.298  0.0727  0.8788  0.5076
13492TIP3    H161967   0.695   4.003  11.365 -0.8040  1.4866 -0.2238
13492TIP3    H261968   0.756   3.976  11.229  0.3460  0.4848  0.4743
13493TIP3   OH261969   2.344   6.470  14.189 -0.0159  0.0528 -0.1455
13493TIP3    H161970   2.284   6.398  14.170  1.6859 -1.7600  1.1212
13493TIP3    H261971   2.288   6.547  14.193 -1.7716 -1.0463 -2.3629
13494TIP3   OH261972   3.848   4.153  12.262 -0.0655  0.3207 -0.1084
13494TIP3    H161973   3.918   4.094  12.235 -0.5118 -1.0804  1.6960
13494TIP3    H261974   3.768   4.102  12.253 -0.5973  1.0767  0.2533
13495TIP3   OH261975   0.311   5.929   3.269  0.4878 -0.1971  0.5894
13495TIP3    H161976   0.328   5.907   3.178  0.0868 -0.2529  0.5279
13495TIP3    H261977   0.375   5.878   3.319  0.8918  0.0435  0.3262
13496TIP3   OH261978   3.329   5.348   5.652 -0.0776 -0.4090 -0.1495
13496TIP3    H161979   3.367   5.331   5.738 -0.0358  1.4619  0.2153
13496TIP3    H261980   3.404   5.373   5.597 -0.6002  2.2401  0.2977
13497TIP3   OH261981   6.087   5.359   4.373  0.1354  0.7310  0.1588
13497TIP3    H161982   6.179   5.359   4.350  0.4761 -1.9040  1.3233
13497TIP3    H261983   6.081   5.299   4.447 -2.6781  0.0489 -0.5623
13498TIP3   OH261984   5.125   2.640   6.745 -0.0058 -0.2649  0.3913
13498TIP3    H161985   5.067   2.678   6.811  0.6064 -0.8302  1.2792
13498TIP3    H261986   5.195   2.705   6.734  1.2540 -1.2644  2.2034
13499TIP3   OH261987   0.216   5.395   4.925  0.8723 -0.4205 -0.1635
13499TIP3    H161988   0.167   5.317   4.899  0.1434 -0.5641  1.6263
13499TIP3    H261989   0.298   5.361   4.962  1.0307 -0.2873 -0.3877
13500TIP3   OH261990   1.448   4.738   2.643 -0.5072  0.4229  0.1834
13500TIP3    H161991   1.393   4.677   2.594 -0.2501  0.8621 -0.6603
13500TIP3    H261992   1.493   4.684   2.708 -0.8528 -0.1612 -0.0676
13501TIP3   OH261993   3.003   5.168  12.293 -0.0905 -0.0234 -0.8476
13501TIP3    H161994   3.055   5.115  12.353 -0.6905 -1.4898 -1.6199
13501TIP3    H261995   3.057   5.246  12.278  0.4349 -0.0256  0.9098
13502TIP3   OH261996   3.807   0.457  17.262 -0.1340 -0.3110 -0.3757
13502TIP3    H161997   3.728   0.403  17.257  0.1660 -0.6302 -1.6549
13502TIP3    H261998   3.849   0.430  17.344 -1.8216  0.5165  0.7936
13503TIP3   OH261999   0.873   4.654   6.195  0.2804  0.2451  0.0083
13503TIP3    H162000   0.798   4.606   6.158  0.7715  0.3397 -1.1037
13503TIP3    H262001   0.919   4.589   6.248  0.2578 -0.1976 -0.5155
13504TIP3   OH262002   3.913   2.247   2.750  0.4149 -0.7579 -0.3123
13504TIP3    H162003   3.937   2.241   2.658  0.4700  0.9107 -0.4257
13504TIP3    H262004   3.960   2.324   2.782  0.6065 -1.4793  1.1732
13505TIP3   OH262005   1.607   0.309  16.510 -0.1543 -0.0624  0.0729
13505TIP3    H162006   1.660   0.240  16.552  1.7007  0.0436 -1.9967
13505TIP3    H262007   1.650   0.390  16.535 -0.0170  0.0991 -0.6908
13506TIP3   OH262008   2.634   6.347  15.452  0.0504  0.5100  0.3947
13506TIP3    H162009   2.715   6.351  15.503 -0.7256  1.0219  1.6190
13506TIP3    H262010   2.658   6.382  15.366  1.3671 -0.3136  0.4213
13507TIP3   OH262011   4.161   1.604   1.462 -0.4533  0.0165  0.2765
13507TIP3    H162012   4.173   1.523   1.413  0.6849  0.0472  0.4963
13507TIP3    H262013   4.215   1.668   1.415 -0.7024  0.4544  0.5836
13508TIP3   OH262014   1.741   1.438   4.619  0.0720  0.6886  0.7972
13508TIP3    H162015   1.721   1.344   4.618  0.5636  0.5593  2.5930
13508TIP3    H262016   1.831   1.443   4.586 -0.2912  0.6321 -0.2369
13509TIP3   OH262017   3.922   2.956   3.559  0.1905  0.0000 -0.1715
13509TIP3    H162018   3.966   3.016   3.620 -0.3838  0.0740  0.1773
13509TIP3    H262019   3.967   2.872   3.571  1.4921  0.5312 -1.1971
13510TIP3   OH262020   2.398   4.647   3.304  0.4710  0.4430  0.1404
13510TIP3    H162021   2.387   4.553   3.292  1.7196  0.0996  1.5997
13510TIP3    H262022   2.469   4.656   3.367  0.6359  2.3781 -0.2714
13511TIP3   OH262023   1.744   3.772   2.996 -0.5433 -0.0162  0.1374
13511TIP3    H162024   1.835   3.761   3.026 -0.6153 -0.7430  0.1027
13511TIP3    H262025   1.692   3.757   3.075 -0.6715 -0.5857 -0.0471
13512TIP3   OH262026   3.606   0.500   5.139  0.3778 -0.2381 -0.8765
13512TIP3    H162027   3.655   0.431   5.093  1.7330  0.0112  0.1850
13512TIP3    H262028   3.633   0.581   5.096  0.9546 -0.0927 -0.2373
13513TIP3   OH262029   5.889   6.012  12.698 -0.1620 -0.1386  0.1709
13513TIP3    H162030   5.854   5.922  12.701 -1.2415  0.3162  1.7363
13513TIP3    H262031   5.919   6.029  12.787  1.0518  0.6744 -0.3837
13514TIP3   OH262032   3.279   0.151   0.496 -0.0605 -0.1762 -0.8889
13514TIP3    H162033   3.216   0.205   0.448  1.6400  1.8915 -0.8336
13514TIP3    H262034   3.248   0.153   0.587 -0.8909 -0.6048 -1.1589
13515TIP3   OH262035   2.905   6.043  16.486  0.2906  0.4739  0.1789
13515TIP3    H162036   2.856   6.100  16.545  1.3095  2.4448 -0.7997
13515TIP3    H262037   2.856   6.047  16.403  0.1544 -0.3784  0.2201
13516TIP3   OH262038   1.595   1.319  11.311 -0.1716 -0.1003 -0.0689
13516TIP3    H162039   1.557   1.366  11.385 -0.6010 -1.5960  0.6701
13516TIP3    H262040   1.689   1.325  11.324 -0.2152  0.6165 -0.0285
13517TIP3   OH262041   1.799   0.273   6.133 -0.4245  0.5280  0.1474
13517TIP3    H162042   1.758   0.328   6.199  0.1347 -0.2625  1.1612
13517TIP3    H262043   1.769   0.184   6.153  1.1763  0.0393  0.4664
13518TIP3   OH262044   1.090   4.692   5.215  0.0367 -0.3449  0.2692
13518TIP3    H162045   1.137   4.776   5.214 -1.7226  0.6853  1.6604
13518TIP3    H262046   1.084   4.667   5.123 -2.4637  2.8191 -0.5254
13519TIP3   OH262047   5.464   2.575   1.829 -0.1854 -0.1283 -0.3517
13519TIP3    H162048   5.456   2.569   1.734  1.0013  0.3695 -0.4903
13519TIP3    H262049   5.481   2.486   1.858 -1.9950 -0.5300 -0.4500
13520TIP3   OH262050   5.286   6.694   0.258  0.4735  0.0567  0.3600
13520TIP3    H162051   5.378   6.669   0.268  0.5580 -0.0064 -0.5087
13520TIP3    H262052   5.288   6.787   0.238  0.5492 -0.5537 -2.6713
13521TIP3   OH262053   3.990   5.060   4.213 -0.0445  0.3836  0.6427
13521TIP3    H162054   3.964   5.053   4.305  2.3500  0.0700  1.3401
13521TIP3    H262055   4.024   4.974   4.192 -2.6485 -0.2260 -1.2526
13522TIP3   OH262056   0.869   5.771  14.501 -0.4883  0.3482  0.0573
13522TIP3    H162057   0.829   5.691  14.467  0.1810 -0.0738  0.2477
13522TIP3    H262058   0.810   5.841  14.474 -0.1551 -0.0145 -1.6764
13523TIP3   OH262059   3.141   1.205   4.620 -0.1410 -0.3956  0.3972
13523TIP3    H162060   3.116   1.240   4.705 -1.0242 -0.5398  0.2010
13523TIP3    H262061   3.082   1.248   4.558  1.4182  0.7462 -0.3099
13524TIP3   OH262062   6.671   2.056   4.108 -0.5368  0.5634  0.5368
13524TIP3    H162063   6.594   2.000   4.104 -0.0010 -0.1922  0.5287
13524TIP3    H262064   6.663   2.102   4.192 -1.6517  1.4637 -0.0685
13525TIP3   OH262065   0.957   6.276   6.821 -0.2747 -0.4069  0.1318
13525TIP3    H162066   0.869   6.291   6.856  0.3960  1.0400  1.2939
13525TIP3    H262067   0.959   6.324   6.738  0.2436  1.8408  1.4040
13526TIP3   OH262068   5.614   6.606   4.462  0.1881  0.4488 -0.0672
13526TIP3    H162069   5.691   6.606   4.519 -0.2992  0.8147  0.5847
13526TIP3    H262070   5.638   6.666   4.391  1.4493 -1.2713 -1.1560
13527TIP3   OH262071   5.055   0.809   5.738 -0.7617 -0.2741 -0.2725
13527TIP3    H162072   5.123   0.871   5.767 -1.2952 -0.2932  1.0294
13527TIP3    H262073   5.104   0.743   5.688 -0.1139  0.8938 -1.2027
13528TIP3   OH262074   3.231   5.532  15.722 -0.4488 -0.3874 -0.4248
13528TIP3    H162075   3.168   5.515  15.792 -2.0020 -1.4463 -2.0377
13528TIP3    H262076   3.260   5.445  15.695  0.5671  0.0407 -0.7233
13529TIP3   OH262077   4.683   1.502  12.027 -0.0762  0.2086  0.2979
13529TIP3    H162078   4.775   1.478  12.015 -0.2734 -0.3401 -0.1731
13529TIP3    H262079   4.645   1.495  11.940 -0.8120 -0.6845  0.6713
13530TIP3   OH262080   0.503   6.758   4.027 -0.0583  0.2413  0.3863
13530TIP3    H162081   0.491   6.681   4.082  0.0653  0.6801  1.0360
13530TIP3    H262082   0.539   6.724   3.945 -0.7125 -0.4726  0.3921
13531TIP3   OH262083   6.107   3.455   4.149 -0.1600 -0.0185 -0.3744
13531TIP3    H162084   6.098   3.401   4.228 -0.9337 -0.9338 -1.0889
13531TIP3    H262085   6.037   3.520   4.157  1.3579  1.4848  0.9518
13532TIP3   OH262086   2.083   2.489   1.463  0.1644 -0.0442  0.1734
13532TIP3    H162087   2.173   2.495   1.494 -0.1312  0.6798  0.9256
13532TIP3    H262088   2.032   2.535   1.530 -1.0418 -2.4275  0.9511
13533TIP3   OH262089   3.325   0.237   0.140 -0.4046  0.0365 -0.5049
13533TIP3    H162090   3.317   0.267   0.049 -0.1179  0.0478 -0.5261
13533TIP3    H262091   3.278   0.153   0.142 -0.5213  0.0978 -0.6324
13534TIP3   OH262092   1.074   3.123   5.437  0.1503 -0.2648 -0.4687
13534TIP3    H162093   1.007   3.166   5.385 -0.3450 -0.0880  0.3169
13534TIP3    H262094   1.034   3.109   5.523  1.3236  0.4370  0.2176
13535TIP3   OH262095   6.487   1.009  12.818 -0.0705 -0.2578 -0.4231
13535TIP3    H162096   6.551   0.948  12.853 -0.3405  0.8893  2.1529
13535TIP3    H262097   6.533   1.053  12.746  1.2127 -1.1300 -0.1499
13536TIP3   OH262098   6.219   2.266   1.542  0.0295 -0.0130  0.1429
13536TIP3    H162099   6.300   2.312   1.567  0.8573 -1.8520  0.9056
13536TIP3    H262100   6.186   2.230   1.624 -0.4311 -1.0607 -0.4954
13537TIP3   OH262101   5.829   2.300   3.868  0.0550  0.2949  0.3929
13537TIP3    H162102   5.748   2.253   3.888 -0.7173  0.9168 -1.1898
13537TIP3    H262103   5.819   2.385   3.913  0.8852 -0.5207  2.1697
13538TIP3   OH262104   4.834   3.559  16.682  0.0579  0.3794 -0.2755
13538TIP3    H162105   4.880   3.580  16.601  1.0964 -1.8537 -0.2779
13538TIP3    H262106   4.745   3.536  16.654  0.7170 -1.4443 -0.8892
13539TIP3   OH262107   5.792   0.403  16.976 -0.0353 -0.3754  0.1256
13539TIP3    H162108   5.880   0.428  16.946 -0.1186 -2.7474 -2.2133
13539TIP3    H262109   5.804   0.381  17.069  1.4272  1.1982  0.3415
13540TIP3   OH262110   1.652   5.901   4.108  0.1978  0.2975 -0.3347
13540TIP3    H162111   1.616   5.987   4.128  1.3262  0.4639  1.0504
13540TIP3    H262112   1.662   5.901   4.013  1.3359  2.1756 -0.2462
13541TIP3   OH262113   2.996   1.273  12.995  0.2540 -0.3139  0.3310
13541TIP3    H162114   2.903   1.291  12.984  0.1644 -0.9919 -0.0530
13541TIP3    H262115   3.014   1.201  12.934  1.1278  0.1255  0.0599
13542TIP3   OH262116   2.796   4.361  16.966  0.5925  0.6656  0.1083
13542TIP3    H162117   2.735   4.434  16.976 -0.3444  0.1985 -1.9772
13542TIP3    H262118   2.744   4.283  16.986  0.7416  0.3257 -0.8380
13543TIP3   OH262119   2.192   6.035  16.964  0.5079  0.1882  0.0001
13543TIP3    H162120   2.207   6.122  17.001  0.4422  0.2845 -0.1980
13543TIP3    H262121   2.279   5.996  16.958  0.5684  0.3512 -0.1839
13544TIP3   OH262122   4.168   1.810   4.429 -0.4956  0.2372 -0.1192
13544TIP3    H162123   4.220   1.883   4.463 -1.3551  0.6915  0.2416
13544TIP3    H262124   4.077   1.839   4.438 -0.7907 -0.1680 -1.5811
13545TIP3   OH262125   3.251   3.870  13.851 -0.0815 -0.2536 -0.6328
13545TIP3    H162126   3.266   3.778  13.831 -1.1597 -0.7413  0.7449
13545TIP3    H262127   3.156   3.881  13.843 -0.3127  0.0130  2.1275
13546TIP3   OH262128   1.976   3.838  13.919 -0.2229 -0.0157 -0.2852
13546TIP3    H162129   1.961   3.914  13.976  0.8574  0.1817 -0.2569
13546TIP3    H262130   2.036   3.869  13.852 -0.1409 -0.7215 -0.5464
13547TIP3   OH262131   4.076   5.317   3.273  0.1349  0.1809 -0.0927
13547TIP3    H162132   4.153   5.262   3.285 -0.1662 -0.4248 -0.8514
13547TIP3    H262133   4.005   5.269   3.316  0.3126  1.0799  1.2257
13548TIP3   OH262134   5.687   6.279   2.575 -0.7631 -0.8690 -0.1318
13548TIP3    H162135   5.605   6.317   2.607 -0.9719 -0.9947 -0.5147
13548TIP3    H262136   5.755   6.322   2.626 -1.0210 -0.2004 -0.3524
13549TIP3   OH262137   3.740   4.188  15.244 -0.0678 -0.1641  0.3378
13549TIP3    H162138   3.758   4.154  15.157  0.1132  0.3474  0.1714
13549TIP3    H262139   3.825   4.184  15.289  0.2703  1.3609 -0.1392
13550TIP3   OH262140   4.284   6.748   4.917  0.6211  0.4762  0.4328
13550TIP3    H162141   4.371   6.787   4.909  1.0634 -0.3480  1.1110
13550TIP3    H262142   4.234   6.809   4.970  0.3099  1.6956 -1.2134
13551TIP3   OH262143   5.278   1.256   1.677 -0.1671 -0.6889  0.4279
13551TIP3    H162144   5.198   1.308   1.681  0.9198  0.9268  2.1642
13551TIP3    H262145   5.274   1.199   1.754  1.3834  1.0219  1.8270
13552TIP3   OH262146   1.215   1.309   1.615  0.1033  0.0351  0.1088
13552TIP3    H162147   1.123   1.293   1.637  0.0268 -1.2814 -1.0487
13552TIP3    H262148   1.256   1.223   1.620  1.1084  0.4956 -0.1213
13553TIP3   OH262149   1.374   4.810  12.457  0.1129 -0.0571 -0.0411
13553TIP3    H162150   1.400   4.772  12.374 -0.2867 -1.0815  0.2947
13553TIP3    H262151   1.279   4.820  12.451  0.1919  0.7504 -0.0621
13554TIP3   OH262152   6.461   6.545  11.909 -0.4058 -0.4811 -0.7286
13554TIP3    H162153   6.440   6.635  11.886 -3.6811 -0.9137  0.2199
13554TIP3    H262154   6.444   6.495  11.829 -1.7100 -0.6216 -0.3894
13555TIP3   OH262155   0.471   5.463  13.592 -0.1098 -0.5024 -0.0211
13555TIP3    H162156   0.518   5.493  13.514  0.3742 -0.7794  0.1579
13555TIP3    H262157   0.498   5.372  13.602  0.0538 -0.3860  0.6304
13556TIP3   OH262158   6.147   4.118   5.246 -0.0386 -0.6908  0.8066
13556TIP3    H162159   6.068   4.155   5.205  0.4215  0.1357  0.6460
13556TIP3    H262160   6.161   4.173   5.324  0.0135 -1.2397  1.1847
13557TIP3   OH262161   3.775   6.388  15.041 -0.2748 -0.3814 -0.1057
13557TIP3    H162162   3.713   6.315  15.040 -0.8469  0.0052  2.7321
13557TIP3    H262163   3.853   6.353  14.997 -1.3678 -1.8980 -0.9057
13558TIP3   OH262164   4.868   3.323   4.799  0.3137 -0.3644 -0.0838
13558TIP3    H162165   4.793   3.342   4.855  1.6218  0.9837  1.2500
13558TIP3    H262166   4.834   3.331   4.710 -1.1135  0.2765  0.5020
13559TIP3   OH262167   4.027   3.669   0.470  0.1781 -0.1573 -0.6114
13559TIP3    H162168   3.956   3.607   0.450  0.2556 -0.1859 -0.8044
13559TIP3    H262169   4.097   3.615   0.505 -0.1482 -0.0401  0.2318
13560TIP3   OH262170   6.144   5.358   4.924 -0.0438 -0.2758  0.0343
13560TIP3    H162171   6.172   5.414   4.852  0.0178 -0.9024 -0.4358
13560TIP3    H262172   6.112   5.279   4.882 -1.4266 -0.0458  0.6242
13561TIP3   OH262173   4.017   0.805  16.820  0.4229  0.0547 -0.2516
13561TIP3    H162174   4.087   0.857  16.780 -0.6271 -0.4962 -2.9685
13561TIP3    H262175   4.006   0.732  16.759 -2.2150 -0.0827  0.3688
13562TIP3   OH262176   4.245   2.150  11.568 -0.6491  0.1321  0.4727
13562TIP3    H162177   4.191   2.093  11.622  0.1255  0.1359  1.2816
13562TIP3    H262178   4.211   2.140  11.479 -2.2117  0.4382  1.0267
13563TIP3   OH262179   5.479   1.617   4.935 -0.1530 -0.3715 -0.4624
13563TIP3    H162180   5.452   1.569   4.856  0.2500 -1.0553 -0.1857
13563TIP3    H262181   5.401   1.668   4.960 -0.1212  0.2555 -1.6002
13564TIP3   OH262182   6.799   1.777  16.186  0.8920 -0.0669  0.8271
13564TIP3    H162183   6.774   1.859  16.145 -0.0583 -1.9000 -2.4473
13564TIP3    H262184   6.856   1.734  16.122 -0.3501 -2.9116  1.5415
13565TIP3   OH262185   1.681   0.442   0.185 -0.0684 -0.0123 -0.5065
13565TIP3    H162186   1.611   0.382   0.162 -0.6488  0.2713  0.4899
13565TIP3    H262187   1.640   0.529   0.185  0.5401  0.2799 -1.0121
13566TIP3   OH262188   2.932   5.388  16.294 -0.2768  0.5122 -0.0962
13566TIP3    H162189   2.935   5.446  16.218 -2.1168  0.7018 -0.0575
13566TIP3    H262190   2.839   5.375  16.310  0.1044 -2.7047 -0.2724
13567TIP3   OH262191   1.274   6.254   3.628 -0.2005 -0.4115 -0.1286
13567TIP3    H162192   1.191   6.300   3.614  0.1112  0.8660  2.0531
13567TIP3    H262193   1.332   6.319   3.668  1.1913 -1.8743  0.3229
13568TIP3   OH262194   6.751   1.839  16.589  0.2761 -0.4600  0.4275
13568TIP3    H162195   6.695   1.810  16.517 -0.0883  0.3576  0.3858
13568TIP3    H262196   6.718   1.926  16.613  0.4500 -0.6806  1.5211
13569TIP3   OH262197   4.802   1.292  16.906  0.5048  0.4517  0.1081
13569TIP3    H162198   4.871   1.294  16.841  0.4226  1.2440  0.0372
13569TIP3    H262199   4.788   1.384  16.928 -1.2840  0.3847 -0.6800
13570TIP3   OH262200   1.780   4.357  16.844 -0.1065 -0.0525  0.6791
13570TIP3    H162201   1.833   4.297  16.897 -0.9573 -1.6679 -0.2437
13570TIP3    H262202   1.839   4.387  16.775  0.4116  0.3912  1.3158
13571TIP3   OH262203   5.894   3.367   3.480  0.2116 -0.2005 -0.6309
13571TIP3    H162204   5.859   3.454   3.457  0.2383 -0.2938 -1.0258
13571TIP3    H262205   5.897   3.320   3.397  0.3501 -0.5272 -0.4404
13572TIP3   OH262206   6.199   5.053   1.373 -0.1263 -0.1554 -0.0643
13572TIP3    H162207   6.147   5.111   1.317  2.1850  1.7360 -0.3504
13572TIP3    H262208   6.289   5.086   1.365  0.9164 -2.4541  1.4975
13573TIP3   OH262209   5.202   6.098   4.726 -0.0911 -0.3865  0.6324
13573TIP3    H162210   5.151   6.152   4.786  0.7704 -0.7409  1.6975
13573TIP3    H262211   5.281   6.151   4.709 -0.7253  0.1069 -0.9035
13574TIP3   OH262212   0.921   1.607   5.805 -0.2404  0.4496  0.5237
13574TIP3    H162213   0.885   1.662   5.875  2.1651  1.9116  0.6934
13574TIP3    H262214   0.990   1.556   5.848  1.4011  1.5191 -0.7691
13575TIP3   OH262215   2.671   4.044  13.849 -0.4667  0.2168 -0.8081
13575TIP3    H162216   2.644   4.103  13.780 -3.2975 -1.0070 -0.8418
13575TIP3    H262217   2.625   3.962  13.830  0.0483 -0.6720  1.5450
13576TIP3   OH262218   5.334   5.282   0.315  0.7136 -0.0736  0.0738
13576TIP3    H162219   5.242   5.301   0.332  0.5790 -0.5927 -0.0701
13576TIP3    H262220   5.359   5.344   0.246  0.4073 -0.0990 -0.0575
13577TIP3   OH262221   5.360   5.518   3.717 -0.0366  0.3549  0.7430
13577TIP3    H162222   5.386   5.595   3.667  0.0559  1.9986  3.2153
13577TIP3    H262223   5.421   5.449   3.689 -0.4110  1.0283 -1.8160
13578TIP3   OH262224   2.393   4.418   2.985 -0.5863  0.2865  0.9844
13578TIP3    H162225   2.418   4.366   3.061  1.3415  0.7489  0.6948
13578TIP3    H262226   2.313   4.463   3.012  0.0711  0.4520  2.7491
13579TIP3   OH262227   5.180   6.061   1.905 -0.1204 -0.3292  0.2723
13579TIP3    H162228   5.236   6.103   1.840 -0.1738  1.7387  1.5240
13579TIP3    H262229   5.215   5.972   1.913  0.2022 -0.4663 -2.1801
13580TIP3   OH262230   5.237   4.677  16.164 -0.1910 -0.0246 -0.3262
13580TIP3    H162231   5.191   4.614  16.108 -0.2973 -0.0960 -0.1570
13580TIP3    H262232   5.168   4.731  16.202 -0.4242 -2.2613  2.5774
13581TIP3   OH262233   4.949   2.733  16.211  0.1219  0.1286 -0.5262
13581TIP3    H162234   4.994   2.768  16.288  0.8916 -0.5007 -0.6746
13581TIP3    H262235   4.918   2.646  16.239 -0.3506  0.2570 -0.6580
13582TIP3   OH262236   3.355   4.138   5.650 -0.1355  0.0353 -0.1257
13582TIP3    H162237   3.389   4.228   5.649  1.2069 -0.4701 -0.3696
13582TIP3    H262238   3.260   4.148   5.636 -0.0770  1.4428  0.3958
13583TIP3   OH262239   0.527   0.588  16.214  0.4255 -0.0074 -0.6735
13583TIP3    H162240   0.505   0.679  16.234 -1.4032 -0.9624  2.0604
13583TIP3    H262241   0.451   0.538  16.243  2.3670 -2.6222  0.1492
13584TIP3   OH262242   1.216   5.065  15.594 -0.0460 -0.3224 -0.5125
13584TIP3    H162243   1.177   5.110  15.519  2.8401  1.8778 -0.7811
13584TIP3    H262244   1.310   5.063  15.574  0.4234 -2.3053  1.7026
13585TIP3   OH262245   0.977   6.053   4.036 -0.9209 -0.0195 -0.6100
13585TIP3    H162246   1.049   6.037   3.975 -0.1882  0.4056  0.1308
13585TIP3    H262247   0.999   6.137   4.077 -2.4264  0.6794 -1.2260
13586TIP3   OH262248   2.437   3.771  12.587  0.0273 -0.8739 -0.8109
13586TIP3    H162249   2.401   3.857  12.566 -1.2304 -1.6127 -1.7150
13586TIP3    H262250   2.470   3.738  12.504  2.3299 -0.4579 -0.1164
13587TIP3   OH262251   5.950   0.032  13.787 -0.3159  0.2693 -0.1131
13587TIP3    H162252   5.937  -0.005  13.699 -1.0573 -1.2358  0.6023
13587TIP3    H262253   5.979   0.121  13.771  0.7755 -0.3742 -1.9061
13588TIP3   OH262254   4.297   5.107  15.745  0.0080 -0.3351 -0.4850
13588TIP3    H162255   4.338   5.192  15.759  3.4000 -2.0257  0.2395
13588TIP3    H262256   4.259   5.084  15.830 -0.6400  0.2938 -0.6005
13589TIP3   OH262257   5.928   6.401   1.625 -0.4216  0.3379  0.3156
13589TIP3    H162258   5.861   6.469   1.637 -0.3354  0.7196 -1.2083
13589TIP3    H262259   6.007   6.450   1.603 -0.1124 -0.2001  0.2466
13590TIP3   OH262260   6.737   1.139  12.112 -0.4868 -0.3351  0.2094
13590TIP3    H162261   6.694   1.055  12.097 -1.0425 -0.0925  0.4260
13590TIP3    H262262   6.811   1.139  12.052  0.4696 -1.6658  1.3586
13591TIP3   OH262263   3.347   1.562  17.104  0.7329 -1.0414  0.7014
13591TIP3    H162264   3.382   1.507  17.174  2.7869 -0.6208  0.0518
13591TIP3    H262265   3.405   1.545  17.029  0.9041  1.3784  0.2419
13592TIP3   OH262266   4.788   3.804   6.378 -0.0191  0.2753  0.2495
13592TIP3    H162267   4.852   3.870   6.351 -0.9300  1.6916  1.4829
13592TIP3    H262268   4.723   3.853   6.429  0.0057 -1.7934  2.3258
13593TIP3   OH262269   3.379   4.188  15.873 -0.3095  0.2450  0.5748
13593TIP3    H162270   3.287   4.214  15.877 -0.6089 -0.9957  3.1648
13593TIP3    H262271   3.385   4.132  15.796 -1.8753 -0.1649  0.7343
13594TIP3   OH262272   2.120   3.813  15.413 -0.3305  0.0607 -0.1304
13594TIP3    H162273   2.105   3.736  15.359  1.3056  0.8588 -1.7812
13594TIP3    H262274   2.033   3.852  15.424 -0.5956  0.3430 -2.9136
13595TIP3   OH262275   6.572   4.792   3.069 -0.2812  0.1001 -0.4037
13595TIP3    H162276   6.547   4.827   3.155  1.7393  1.2220 -0.2528
13595TIP3    H262277   6.516   4.838   3.007  0.0855  1.2273  0.0879
13596TIP3   OH262278   1.297   5.521   1.022 -0.2864 -0.2831  0.6313
13596TIP3    H162279   1.323   5.557   0.938 -1.1258 -2.7608 -0.7568
13596TIP3    H262280   1.209   5.555   1.037 -0.5415 -0.6544 -0.0041
13597TIP3   OH262281   3.495   0.806   4.778 -0.3757  0.2383 -0.7053
13597TIP3    H162282   3.532   0.771   4.697  0.1565  2.1322 -1.3144
13597TIP3    H262283   3.444   0.882   4.751 -1.3772  0.0461  0.5867
13598TIP3   OH262284   6.549   0.987   1.463  0.5881  0.0071 -0.1133
13598TIP3    H162285   6.508   1.064   1.423 -1.0774  0.5395  2.4691
13598TIP3    H262286   6.475   0.932   1.491  1.6953 -0.7698  1.3747
13599TIP3   OH262287   0.374   5.633  16.729  0.3381  0.2777  0.1963
13599TIP3    H162288   0.434   5.575  16.776  0.1250 -0.5930 -0.6107
13599TIP3    H262289   0.426   5.711  16.711  1.3618 -0.6410 -0.8872
13600TIP3   OH262290   0.846   1.617  17.203  0.2443  0.6430  0.0863
13600TIP3    H162291   0.805   1.617  17.289  0.4788 -0.0227  0.1993
13600TIP3    H262292   0.799   1.685  17.155 -0.8784  0.0310  0.2802
13601TIP3   OH262293   1.440   5.451   0.121  0.2082  0.3419 -0.2006
13601TIP3    H162294   1.495   5.527   0.140 -0.3718  1.3156 -2.2029
13601TIP3    H262295   1.482   5.408   0.047  0.5368 -1.3204  0.9330
13602TIP3   OH262296   1.043   5.108   3.500 -0.0893  0.0818 -0.4955
13602TIP3    H162297   0.975   5.173   3.517 -0.0577 -0.4438  1.9091
13602TIP3    H262298   1.123   5.158   3.489 -0.0050  0.4726  1.6690
13603TIP3   OH262299   6.491   5.770  12.235 -0.0442  0.1700 -0.0290
13603TIP3    H162300   6.488   5.723  12.319 -1.3328  0.4908  0.1104
13603TIP3    H262301   6.403   5.806  12.224  0.0409 -0.0691 -1.6399
13604TIP3   OH262302   3.542   3.629   1.777  0.3176  0.2850  0.5126
13604TIP3    H162303   3.494   3.689   1.834 -0.3528 -0.7977  1.1034
13604TIP3    H262304   3.533   3.544   1.819 -0.9598 -0.7093 -1.6752
13605TIP3   OH262305   5.956   2.593  12.936 -0.3928 -0.0675  0.2222
13605TIP3    H162306   5.957   2.510  12.889 -0.1134 -0.3654  0.7510
13605TIP3    H262307   5.922   2.571  13.023  0.7944  0.1583  0.7550
13606TIP3   OH262308   3.236   6.652   5.519  0.2751  0.1959  0.1005
13606TIP3    H162309   3.314   6.596   5.521  0.7723  0.7483 -2.5536
13606TIP3    H262310   3.227   6.678   5.427 -2.8811  0.3854  0.4100
13607TIP3   OH262311   4.165   3.346   4.637  0.1615  0.6476 -0.2341
13607TIP3    H162312   4.241   3.306   4.595  0.4314  1.0570 -0.1359
13607TIP3    H262313   4.094   3.282   4.626  0.6059  0.1179 -0.0350
13608TIP3   OH262314   4.475   5.717  16.969  0.1471 -0.4512  0.8536
13608TIP3    H162315   4.502   5.794  17.019  0.5133 -1.0815  1.6292
13608TIP3    H262316   4.490   5.742  16.878  0.5637  0.2767  1.1161
13609TIP3   OH262317   4.301   3.069   0.087  0.1574  0.1081 -0.1888
13609TIP3    H162318   4.234   3.137   0.098 -1.4972 -1.6975  1.2031
13609TIP3    H262319   4.268   3.014   0.016 -0.5138 -1.5362  1.3612
13610TIP3   OH262320   2.533   3.353  15.960  0.1876 -0.0419  0.1237
13610TIP3    H162321   2.493   3.303  16.031 -2.6032  0.6843 -0.8780
13610TIP3    H262322   2.572   3.429  16.004 -0.9261  0.0537  0.9745
13611TIP3   OH262323   4.363   6.777   5.817  0.0751  0.3471 -0.0501
13611TIP3    H162324   4.406   6.856   5.851 -0.5506  0.8605 -0.4479
13611TIP3    H262325   4.287   6.766   5.873  0.9165 -0.7853  0.8996
13612TIP3   OH262326   6.653   5.693  16.483  0.3218 -0.3119 -0.3020
13612TIP3    H162327   6.606   5.776  16.495  0.0780 -0.5375  0.3307
13612TIP3    H262328   6.627   5.663  16.395  2.1396  1.3744 -1.4586
13613TIP3   OH262329   0.873   3.846  11.865 -0.3953  0.1737 -0.6842
13613TIP3    H162330   0.906   3.825  11.952 -2.9973 -0.2751  0.2558
13613TIP3    H262331   0.910   3.780  11.808 -0.5015 -0.9252  0.5046
13614TIP3   OH262332   2.369   6.795   2.610 -0.0442  0.0088 -0.0306
13614TIP3    H162333   2.360   6.844   2.528 -1.4584 -0.7138 -0.3141
13614TIP3    H262334   2.305   6.835   2.669  2.4759  2.0082  1.4975
13615TIP3   OH262335   3.880   3.850  12.751 -0.0306 -0.4256  0.0651
13615TIP3    H162336   3.847   3.924  12.803 -1.3541 -0.7961 -0.2150
13615TIP3    H262337   3.959   3.884  12.709 -0.2467  0.6236  0.4742
13616TIP3   OH262338   0.702   5.981   1.326 -0.2563  0.2995 -0.3330
13616TIP3    H162339   0.777   6.033   1.355 -1.0094  1.5905 -0.6811
13616TIP3    H262340   0.741   5.900   1.293  0.8818  0.3729  0.7739
13617TIP3   OH262341   0.362   3.467  14.183 -0.3696 -0.1385  0.0179
13617TIP3    H162342   0.286   3.523  14.170  0.9143  1.4605 -0.7116
13617TIP3    H262343   0.430   3.526  14.218 -0.4375 -2.1474  3.8850
13618TIP3   OH262344   6.009   2.884  15.453  0.0307 -0.4545 -0.2499
13618TIP3    H162345   6.050   2.926  15.378 -0.3807 -0.8794 -0.7157
13618TIP3    H262346   5.918   2.914  15.451  0.5989  1.5044  1.5178
13619TIP3   OH262347   5.321   6.125   4.027  0.2382 -0.5817 -0.1620
13619TIP3    H162348   5.313   6.046   3.974 -0.9055 -0.2951 -0.4242
13619TIP3    H262349   5.368   6.096   4.105  1.0530 -1.2163 -0.8733
13620TIP3   OH262350   1.381   4.617   3.787  0.2798 -0.2932 -0.3713
13620TIP3    H162351   1.475   4.628   3.776  0.6239 -0.6977  1.9209
13620TIP3    H262352   1.370   4.589   3.878 -2.2654  2.6567  0.3271
13621TIP3   OH262353   3.492   1.842  11.755  0.6761  0.6585 -0.5158
13621TIP3    H162354   3.543   1.765  11.731  0.3798  1.3122 -3.4282
13621TIP3    H262355   3.551   1.891  11.813  1.1291 -1.3652  0.7971
13622TIP3   OH262356   5.221   5.053   3.314  0.2092  0.2124  0.1984
13622TIP3    H162357   5.274   5.110   3.259  0.1411 -0.4588 -0.5770
13622TIP3    H262358   5.282   4.984   3.342  0.2671  0.6020  1.0390
13623TIP3   OH262359   0.103   3.667  13.389  0.5553  0.3628  0.0399
13623TIP3    H162360   0.090   3.709  13.304  0.5228 -1.5540 -0.9502
13623TIP3    H262361   0.044   3.713  13.448 -0.2723  0.9844 -1.2445
13624TIP3   OH262362   4.404   5.849   3.692  0.3659  0.6368 -0.6189
13624TIP3    H162363   4.435   5.759   3.702 -1.0279  0.1900 -0.2406
13624TIP3    H262364   4.457   5.899   3.753 -0.1773 -0.2487  0.6097
13625TIP3   OH262365   0.169   3.188  15.608  0.1651 -0.1981  0.2557
13625TIP3    H162366   0.153   3.277  15.576 -1.4433 -1.0126 -1.2731
13625TIP3    H262367   0.086   3.142  15.596  1.2170 -2.1694  0.1996
13626TIP3   OH262368   3.402   3.130   0.247  0.7719  0.0388 -0.3776
13626TIP3    H162369   3.417   3.207   0.192  1.7104 -0.0822 -0.2876
13626TIP3    H262370   3.461   3.142   0.321 -1.5666  0.9986  1.4306
13627TIP3   OH262371   1.805   1.398   6.191  0.0339  0.0628 -0.4344
13627TIP3    H162372   1.895   1.426   6.210 -0.3554  0.7524  0.4233
13627TIP3    H262373   1.814   1.309   6.157  0.9411 -0.3153  0.7688
13628TIP3   OH262374   1.585   2.478   3.221  0.9016  0.4841 -0.1868
13628TIP3    H162375   1.517   2.480   3.289 -0.0572 -2.2914 -0.9749
13628TIP3    H262376   1.559   2.545   3.158 -1.0046 -0.3503 -0.3378
13629TIP3   OH262377   3.164   4.116   2.681  0.0542 -0.6162 -0.3461
13629TIP3    H162378   3.185   4.200   2.722  0.8245 -1.4430  0.9873
13629TIP3    H262379   3.249   4.073   2.669 -0.4027 -1.5448 -0.2779
13630TIP3   OH262380   5.346   1.836   1.935  0.2809  0.2002 -0.0270
13630TIP3    H162381   5.327   1.922   1.972  2.5407  0.0935  1.4961
13630TIP3    H262382   5.285   1.776   1.978 -1.2835  1.0198 -1.0799
13631TIP3   OH262383   0.027   4.349   1.483  0.2153  0.3157 -0.4726
13631TIP3    H162384   0.019   4.436   1.522  0.1202  0.0713  0.0680
13631TIP3    H262385  -0.063   4.321   1.468  0.1235 -0.7419  1.7664
13632TIP3   OH262386   5.505   4.597   0.612 -0.3629  0.5132  0.3947
13632TIP3    H162387   5.508   4.685   0.575 -1.4588  0.3974  0.0178
13632TIP3    H262388   5.517   4.610   0.706  4.0270  0.6870 -0.0846
13633TIP3   OH262389   2.164   6.663  13.078  0.4876 -0.1996  0.6810
13633TIP3    H162390   2.071   6.642  13.070  0.6005 -0.9958  1.3641
13633TIP3    H262391   2.180   6.729  13.011 -1.3620  2.5100  2.7584
13634TIP3   OH262392   5.079   2.412   5.030  0.5277 -0.2629  0.3237
13634TIP3    H162393   5.044   2.324   5.044 -0.6474 -0.3513 -2.7566
13634TIP3    H262394   5.173   2.399   5.017  0.5184 -0.9391  0.9470
13635TIP3   OH262395   1.455   5.459   6.252 -0.2744 -0.5746  0.8614
13635TIP3    H162396   1.502   5.395   6.199 -0.1632 -0.6375  1.0337
13635TIP3    H262397   1.523   5.519   6.284 -0.5426  0.3885 -0.3419
13636TIP3   OH262398   2.911   0.886   6.077  0.4799  0.2050  0.2961
13636TIP3    H162399   2.974   0.833   6.028  0.3822 -0.6478  1.0898
13636TIP3    H262400   2.894   0.836   6.156 -2.9522 -0.6971 -0.9320
13637TIP3   OH262401   0.394   6.736   3.722  0.0143 -0.1998  0.0657
13637TIP3    H162402   0.331   6.797   3.683  2.5024  0.3211 -3.3676
13637TIP3    H262403   0.351   6.651   3.715  0.4004 -0.1729 -4.2310
13638TIP3   OH262404   2.773   1.472   1.590  0.0050  0.4330 -0.4822
13638TIP3    H162405   2.847   1.531   1.594 -0.2252  0.7040 -0.1914
13638TIP3    H262406   2.794   1.403   1.653  0.9425 -0.5804 -1.8628
13639TIP3   OH262407   6.293   6.725   3.605 -0.8048 -0.2340 -0.4873
13639TIP3    H162408   6.351   6.789   3.646 -1.6701  1.0822 -1.2829
13639TIP3    H262409   6.352   6.655   3.576  0.1547  0.2095  0.3650
13640TIP3   OH262410   5.771   3.863   4.823 -0.3152  0.4328 -0.4356
13640TIP3    H162411   5.708   3.887   4.755  0.1654 -0.6305 -1.2916
13640TIP3    H262412   5.746   3.773   4.848  0.9169 -0.0458 -0.8767
13641TIP3   OH262413   4.164   5.130  14.807  0.0689  0.5082 -0.0389
13641TIP3    H162414   4.251   5.129  14.768 -1.0401  2.4009 -2.6793
13641TIP3    H262415   4.176   5.172  14.892  1.7765  0.3615 -0.1944
13642TIP3   OH262416   3.471   0.619  14.187  0.4568  0.1865  0.2612
13642TIP3    H162417   3.391   0.666  14.167  0.3657  0.8292  2.0681
13642TIP3    H262418   3.448   0.526  14.176 -0.0986  0.4423 -0.7157
13643TIP3   OH262419   2.838   1.138   2.679  0.7942  0.5077  0.2601
13643TIP3    H162420   2.815   1.191   2.755  0.6352 -0.1701  0.6954
13643TIP3    H262421   2.770   1.070   2.677  1.1755  0.1380 -0.1012
13644TIP3   OH262422   2.746   0.447   6.007  0.2177  0.6744  0.1873
13644TIP3    H162423   2.774   0.378   6.068  0.1132 -0.1323 -0.6542
13644TIP3    H262424   2.819   0.455   5.945 -0.3682  0.3056 -0.5587
13645TIP3   OH262425   6.363   4.681   0.512  0.6065 -0.6460 -0.0460
13645TIP3    H162426   6.444   4.665   0.464  0.5110 -1.2111 -0.0216
13645TIP3    H262427   6.300   4.620   0.473 -0.5009  1.5339 -1.8093
13646TIP3   OH262428   3.815   3.845   1.128 -0.1631 -0.0839  0.0586
13646TIP3    H162429   3.855   3.778   1.073 -1.0257 -1.9564  1.6755
13646TIP3    H262430   3.865   3.925   1.107  3.0157 -1.8662  0.4435
13647TIP3   OH262431   1.708   0.232  12.783 -0.2819 -0.5472 -0.1670
13647TIP3    H162432   1.641   0.289  12.822 -0.5535 -1.6257  0.9741
13647TIP3    H262433   1.776   0.292  12.752 -1.2602  0.4889 -0.3361
13648TIP3   OH262434   1.472   1.105   3.386  0.4498 -0.2166 -0.4452
13648TIP3    H162435   1.461   1.026   3.332  1.5866 -1.2239  0.7573
13648TIP3    H262436   1.558   1.138   3.362 -0.4216  1.2349 -1.6484
13649TIP3   OH262437   1.791   6.288  16.112 -0.3388  0.1849 -0.7811
13649TIP3    H162438   1.759   6.304  16.023 -2.4246 -0.0179 -0.0951
13649TIP3    H262439   1.712   6.282  16.165  0.8606 -0.4247  0.9775
13650TIP3   OH262440   1.981   4.701   0.212  1.2028  0.7979 -0.1685
13650TIP3    H162441   2.073   4.724   0.225  1.1794  0.3866  0.7467
13650TIP3    H262442   1.980   4.605   0.214  0.7144  0.8087  0.0482
13651TIP3   OH262443   3.615   2.402   4.228 -0.1120  0.2128 -0.1439
13651TIP3    H162444   3.649   2.333   4.170 -2.0780 -0.2769 -0.7906
13651TIP3    H262445   3.684   2.417   4.291  1.3199 -0.6439 -1.4683
13652TIP3   OH262446   6.265   2.155   3.142 -0.2109 -0.0360  0.4050
13652TIP3    H162447   6.307   2.100   3.076 -0.0866 -1.3039  1.5099
13652TIP3    H262448   6.176   2.169   3.108  0.7674  1.8645 -1.4699
13653TIP3   OH262449   6.387   1.937   3.031 -0.1556  0.3848  0.7677
13653TIP3    H162450   6.337   1.892   2.962 -0.2197  0.9078  0.4640
13653TIP3    H262451   6.423   1.867   3.085  3.3672 -0.2557 -2.1976
13654TIP3   OH262452   5.829   6.213   6.340  0.0646 -0.8152  0.0799
13654TIP3    H162453   5.780   6.252   6.412  1.7223  1.8745 -0.1464
13654TIP3    H262454   5.764   6.196   6.272 -0.8599  0.8962  0.5076
13655TIP3   OH262455   1.766   4.011  13.503 -0.6155 -0.2935  0.2402
13655TIP3    H162456   1.839   4.065  13.473 -1.7444  1.1932  0.1281
13655TIP3    H262457   1.752   4.039  13.594 -1.8732  0.3605 -0.1462
13656TIP3   OH262458   3.653   5.041  13.999 -0.6169  0.2644 -0.4257
13656TIP3    H162459   3.638   5.094  14.078 -1.9658  0.2211 -0.6337
13656TIP3    H262460   3.577   4.982  13.995 -0.0593 -0.4125 -1.2129
13657TIP3   OH262461   1.303   5.235   3.710  0.0107 -0.1389 -0.3756
13657TIP3    H162462   1.351   5.152   3.720 -1.1948 -1.1121 -2.3341
13657TIP3    H262463   1.282   5.239   3.616 -0.5566  2.0542 -0.1773
13658TIP3   OH262464   2.896   1.930  15.638  0.2209 -0.2424  0.1232
13658TIP3    H162465   2.879   1.969  15.552  0.9190  1.5338  0.7612
13658TIP3    H262466   2.863   1.995  15.701  0.9359 -0.9150  1.2067
13659TIP3   OH262467   3.999   0.439   3.245 -0.0419  0.8346  0.2441
13659TIP3    H162468   3.914   0.424   3.204  0.1548  0.9977 -0.2296
13659TIP3    H262469   3.979   0.480   3.328 -0.5041 -0.4653  0.7885
13660TIP3   OH262470   0.037   1.127  16.849  0.2065 -0.2309  0.1333
13660TIP3    H162471   0.034   1.223  16.848  0.9846 -0.1862  1.7912
13660TIP3    H262472   0.118   1.105  16.803  1.0500 -0.0229  1.4917
13661TIP3   OH262473   5.077   1.842  13.436  0.9057 -0.3952 -0.1972
13661TIP3    H162474   5.016   1.844  13.362  0.9138 -0.2763 -0.2020
13661TIP3    H262475   5.035   1.784  13.500  0.2036  0.6406  0.2942
13662TIP3   OH262476   3.191   3.307   0.597 -0.1311  0.4723  0.4431
13662TIP3    H162477   3.143   3.336   0.519  1.2462  0.9855 -0.2297
13662TIP3    H262478   3.230   3.223   0.572  1.7277  1.4440 -0.0391
13663TIP3   OH262479   3.229   5.258   4.057  0.3881  0.7026  0.4094
13663TIP3    H162480   3.242   5.353   4.055 -1.2134  0.9216 -2.1828
13663TIP3    H262481   3.294   5.224   3.996 -1.6011  0.5431 -1.7019
13664TIP3   OH262482   0.747   4.667   5.061  0.0399  0.3329 -0.1262
13664TIP3    H162483   0.659   4.660   5.026  0.3906 -1.6357 -0.6655
13664TIP3    H262484   0.755   4.593   5.122  0.7426  1.4805  1.2072
13665TIP3   OH262485   5.341   0.917  14.573  0.9910 -0.3018  0.1647
13665TIP3    H162486   5.299   0.853  14.515  3.3609 -1.2948 -0.5525
13665TIP3    H262487   5.372   0.865  14.647 -0.0979  0.6142  1.2871
13666TIP3   OH262488   1.251   2.314  15.535  0.1984 -0.2054 -0.4437
13666TIP3    H162489   1.206   2.296  15.618  0.6468  0.5761 -0.0289
13666TIP3    H262490   1.342   2.330  15.560  0.3351  0.0201 -1.0919
13667TIP3   OH262491   2.768   6.305   1.324 -0.4197 -0.2006 -0.2418
13667TIP3    H162492   2.721   6.271   1.400  0.1365 -1.1262 -0.3170
13667TIP3    H262493   2.798   6.228   1.277 -0.2112  0.3771 -1.0656
13668TIP3   OH262494   2.752   2.375  11.491  0.1720  0.0350 -0.1259
13668TIP3    H162495   2.706   2.429  11.557  0.3418 -0.9144  0.7802
13668TIP3    H262496   2.684   2.354  11.427 -0.0919  0.6471 -0.0565
13669TIP3   OH262497   0.579   4.007  13.496  0.5096  0.3563 -1.0287
13669TIP3    H162498   0.642   4.079  13.489  0.2826  0.5006 -1.6651
13669TIP3    H262499   0.544   3.998  13.408 -0.7059  0.5926 -0.5756
13670TIP3   OH262500   1.943   4.495  11.170  0.1080  0.3787  0.0849
13670TIP3    H162501   2.025   4.490  11.219  0.1657  1.8073  0.1587
13670TIP3    H262502   1.897   4.569  11.209 -0.0899  1.1853 -1.6580
13671TIP3   OH262503   4.457   0.706  12.437  0.4797 -0.2877  0.4792
13671TIP3    H162504   4.426   0.681  12.350  0.8206  1.9075 -0.3103
13671TIP3    H262505   4.550   0.724  12.425  0.6463 -0.5032  1.4282
13672TIP3   OH262506   0.737   0.240   5.019 -0.2373  0.6383  0.0136
13672TIP3    H162507   0.813   0.205   5.067  0.0851  0.2545 -0.7615
13672TIP3    H262508   0.663   0.189   5.052  0.0690 -0.0319 -0.3148
13673TIP3   OH262509   4.279   4.169   4.623 -0.1768 -0.5590 -0.1308
13673TIP3    H162510   4.192   4.207   4.628  0.1343  0.1068  0.2156
13673TIP3    H262511   4.320   4.212   4.547  0.3958  0.2764  0.6360
13674TIP3   OH262512   1.182   1.879  12.260  0.5310  1.0049  0.3521
13674TIP3    H162513   1.091   1.864  12.285  0.0981  2.1527 -0.4702
13674TIP3    H262514   1.217   1.793  12.240 -0.5941  0.6459 -0.0564
13675TIP3   OH262515   0.624   6.006   2.969 -0.2233 -0.1544  0.0382
13675TIP3    H162516   0.534   6.016   3.002  0.0256 -0.5288  0.8470
13675TIP3    H262517   0.618   6.032   2.877 -0.6904  2.1253  0.6664
13676TIP3   OH262518   2.867   5.570   2.908  0.0081  0.0033 -0.5262
13676TIP3    H162519   2.779   5.570   2.871 -0.1102  1.3515 -0.2885
13676TIP3    H262520   2.921   5.614   2.842  0.0326  1.3190  0.3485
13677TIP3   OH262521   1.322   6.687   1.725  0.2473  0.2757  0.0822
13677TIP3    H162522   1.350   6.747   1.795  0.8628  0.6829 -0.4997
13677TIP3    H262523   1.228   6.680   1.736  0.3624  0.1756  1.0801
13678TIP3   OH262524   4.190   2.033  10.752  0.4864 -0.6086  0.3502
13678TIP3    H162525   4.180   2.070  10.839  0.3217 -1.1968  0.5860
13678TIP3    H262526   4.182   2.107  10.692  0.1610 -0.2752  0.8139
13679TIP3   OH262527   3.193   2.941   4.486 -0.0751 -0.1435  0.1914
13679TIP3    H162528   3.193   3.015   4.548  0.2037  0.0597 -0.0486
13679TIP3    H262529   3.246   2.972   4.413 -0.1483 -0.5013 -0.0110
13680TIP3   OH262530   3.285   3.908   3.338 -0.4427 -0.3014 -0.3425
13680TIP3    H162531   3.216   3.863   3.289  0.3310 -1.1644 -0.6526
13680TIP3    H262532   3.267   3.885   3.429 -0.6189 -0.4377 -0.4106
13681TIP3   OH262533   4.175   0.818   1.650 -0.2422  0.4708  0.3263
13681TIP3    H162534   4.161   0.725   1.670  1.2829  0.0624 -0.4266
13681TIP3    H262535   4.101   0.842   1.595  0.9492 -1.1552 -2.0806
13682TIP3   OH262536   2.523   6.565  11.898  0.2527 -0.6062  0.5914
13682TIP3    H162537   2.499   6.499  11.832  2.1870  0.6569 -1.4354
13682TIP3    H262538   2.445   6.621  11.905 -0.0065 -0.8071 -0.5643
13683TIP3   OH262539   3.622   1.071  15.745  0.0390 -0.2524 -0.2570
13683TIP3    H162540   3.662   1.082  15.658  1.7425 -0.0054  0.5405
13683TIP3    H262541   3.660   1.141  15.797 -1.8434  0.2873  0.3972
13684TIP3   OH262542   1.682   1.528  14.232  0.3195 -0.2499 -0.0206
13684TIP3    H162543   1.652   1.592  14.168  0.0346  0.4551  0.8042
13684TIP3    H262544   1.602   1.481  14.257  0.4682 -0.6797 -0.3531
13685TIP3   OH262545   5.652   5.458  10.625 -0.2683 -0.2136  0.2455
13685TIP3    H162546   5.744   5.468  10.604 -0.2070 -1.3179 -0.0180
13685TIP3    H262547   5.642   5.366  10.648 -1.5199 -0.3513 -0.7821
13686TIP3   OH262548   3.705   2.476   1.561 -0.3469  0.1829 -0.5515
13686TIP3    H162549   3.669   2.389   1.572  0.6579 -0.1724  0.0311
13686TIP3    H262550   3.781   2.464   1.503  1.9292  0.0752  2.3191
13687TIP3   OH262551   4.828   0.553  10.928  0.2281 -0.2202  0.3190
13687TIP3    H162552   4.745   0.569  10.883 -0.6017  1.2442  2.2962
13687TIP3    H262553   4.804   0.544  11.020  2.2457  0.0491  0.8932
13688TIP3   OH262554   6.738   1.386  13.662  0.3688  0.2628  0.2401
13688TIP3    H162555   6.733   1.363  13.755  1.3609 -0.0406  0.2264
13688TIP3    H262556   6.689   1.316  13.618 -0.5601  0.6993  0.5723
13689TIP3   OH262557   5.975   1.811   6.536 -0.0925  0.8068 -0.5390
13689TIP3    H162558   5.895   1.760   6.528  0.7436 -0.5386 -0.6050
13689TIP3    H262559   6.022   1.770   6.609  0.2649  1.9533 -0.1164
13690TIP3   OH262560   3.143   3.232   1.205  0.1731  0.0794  0.4650
13690TIP3    H162561   3.073   3.297   1.199  0.4061  0.1745 -1.6301
13690TIP3    H262562   3.104   3.152   1.171 -0.0163 -0.8530  2.7458
13691TIP3   OH262563   6.686   6.271  16.020 -0.0156 -0.1062 -0.3901
13691TIP3    H162564   6.750   6.212  15.980 -0.6209  0.2373 -1.8953
13691TIP3    H262565   6.617   6.212  16.051  0.1832 -0.3307 -0.3710
13692TIP3   OH262566   0.352   1.910  14.243  0.0048 -0.0456  0.0767
13692TIP3    H162567   0.292   1.894  14.316  0.4542  1.2079  0.7342
13692TIP3    H262568   0.362   1.824  14.201 -0.0960 -0.8261  1.6097
13693TIP3   OH262569   1.875   4.480   2.659  0.4772  0.4697 -0.4196
13693TIP3    H162570   1.786   4.455   2.685 -0.1293  2.5644 -0.4506
13693TIP3    H262571   1.931   4.444   2.728 -0.3334 -1.1356 -0.5656
13694TIP3   OH262572   5.018   6.606   1.072 -0.3911  0.4748 -0.2208
13694TIP3    H162573   5.091   6.595   1.132 -0.9688  1.1241  0.6159
13694TIP3    H262574   5.059   6.622   0.987  0.4359  0.9477  0.2614
13695TIP3   OH262575   0.312   0.315  17.125 -0.3675  0.2843  0.3281
13695TIP3    H162576   0.362   0.324  17.044  0.3686 -1.3268  0.5885
13695TIP3    H262577   0.378   0.316  17.194 -0.8893  0.3670  0.8335
13696TIP3   OH262578   2.996   6.783   5.077  0.4608  0.6771  0.3691
13696TIP3    H162579   3.022   6.836   5.002 -2.0924  0.7979 -0.5065
13696TIP3    H262580   2.988   6.694   5.041  0.2668  0.5408  0.7503
13697TIP3   OH262581   3.829   4.539  10.877  0.3837  0.4091  0.0339
13697TIP3    H162582   3.894   4.581  10.820 -0.0906  0.1474 -0.7035
13697TIP3    H262583   3.746   4.551  10.831  0.2018 -1.0585 -0.0462
13698TIP3   OH262584   1.694   3.445   0.449  1.1683  0.4264  0.1794
13698TIP3    H162585   1.654   3.523   0.487 -1.4694 -0.3012 -0.9902
13698TIP3    H262586   1.730   3.398   0.524 -0.8259  0.7668  1.3862
13699TIP3   OH262587   4.933   2.685   4.436 -0.1650  0.3188  0.0927
13699TIP3    H162588   5.020   2.724   4.444  0.0256 -0.5452  2.6780
13699TIP3    H262589   4.947   2.602   4.391  0.4096  0.0685  0.7236
13700TIP3   OH262590   1.473   3.319   1.765  0.0062 -0.2447  0.4008
13700TIP3    H162591   1.410   3.355   1.703  0.3076  0.0916  0.2845
13700TIP3    H262592   1.452   3.361   1.848  0.4336  0.2995  0.2395
13701TIP3   OH262593   2.330   5.113  12.068 -0.3721  0.0698 -0.2413
13701TIP3    H162594   2.257   5.052  12.075 -1.7796  1.9119  1.7324
13701TIP3    H262595   2.362   5.122  12.158 -0.1955  2.2064 -0.5094
13702TIP3   OH262596   5.705   5.989   2.549  0.5778 -0.1353 -0.2833
13702TIP3    H162597   5.626   5.979   2.497 -0.2680  1.6179  0.6147
13702TIP3    H262598   5.700   6.079   2.583  1.2178 -1.1252  2.5761
13703TIP3   OH262599   6.285   1.139  14.510 -0.4382 -0.1482  0.1974
13703TIP3    H162600   6.210   1.099  14.465 -1.1857  3.2655 -1.7754
13703TIP3    H262601   6.357   1.131  14.447  0.2038 -1.1060  1.0438
13704TIP3   OH262602   0.679   3.888   3.947  0.1653 -0.0887  0.0618
13704TIP3    H162603   0.724   3.972   3.940 -0.5597  0.2507 -0.5110
13704TIP3    H262604   0.591   3.910   3.977 -0.6835 -0.4501 -2.0779
13705TIP3   OH262605   0.040   3.281   2.544 -0.3413 -0.2294  0.3212
13705TIP3    H162606   0.040   3.338   2.621  0.3000  0.7706 -0.4030
13705TIP3    H262607  -0.016   3.326   2.481 -0.7616 -0.9846  0.1490
13706TIP3   OH262608   0.431   4.321  13.056  0.6129  0.5105  0.2963
13706TIP3    H162609   0.490   4.355  13.123  0.4749  0.4317  0.4582
13706TIP3    H262610   0.376   4.257  13.101  2.0563 -1.2607 -0.4105
13707TIP3   OH262611   6.455   3.373  13.012 -0.0036  0.1718 -0.4089
13707TIP3    H162612   6.428   3.352  12.923  0.3592 -3.3465  0.2367
13707TIP3    H262613   6.394   3.326  13.068  0.4129  1.5023  1.2250
13708TIP3   OH262614   4.110   2.023   2.307  0.6123  0.7564 -0.5790
13708TIP3    H162615   4.136   1.938   2.343 -2.1973  0.1092  0.0659
13708TIP3    H262616   4.070   2.002   2.223 -0.0242  1.4120 -0.4445
13709TIP3   OH262617   6.414   0.506  14.479  0.3843  0.2818  0.3516
13709TIP3    H162618   6.343   0.452  14.443  0.4451 -0.1834  0.9149
13709TIP3    H262619   6.469   0.527  14.404  1.2557 -1.8076  0.3622
13710TIP3   OH262620   6.170   2.787  15.936 -0.3191  0.1051  0.1960
13710TIP3    H162621   6.093   2.843  15.944 -0.2062  0.1621  0.9386
13710TIP3    H262622   6.159   2.720  16.004 -1.2100 -1.6921 -1.6823
13711TIP3   OH262623   1.344   1.773  15.966  0.0506  0.2442  0.3631
13711TIP3    H162624   1.268   1.818  15.928  1.3173  0.9651 -1.3841
13711TIP3    H262625   1.324   1.769  16.059 -1.5857  1.5321  0.1104
13712TIP3   OH262626   0.069   4.496  11.335 -0.6194  0.7388 -0.1210
13712TIP3    H162627   0.109   4.470  11.252 -1.5788  1.0403 -0.6812
13712TIP3    H262628  -0.001   4.432  11.349 -0.7800  0.9855  0.2116
13713TIP3   OH262629   2.758   0.278  16.026 -0.1613 -0.0900  0.3114
13713TIP3    H162630   2.771   0.370  16.002  0.5810 -0.4281 -0.6601
13713TIP3    H262631   2.772   0.230  15.944 -1.2942 -1.0092  0.6449
13714TIP3   OH262632   5.753   4.388   5.778 -0.6319 -0.2725 -0.2386
13714TIP3    H162633   5.771   4.479   5.755 -1.8157  0.2665  0.9235
13714TIP3    H262634   5.700   4.393   5.858 -1.8194 -1.9486 -0.8932
13715TIP3   OH262635   1.210   5.430  11.832  0.4521  0.0294  0.3506
13715TIP3    H162636   1.174   5.466  11.751 -1.1462 -4.5126 -1.0891
13715TIP3    H262637   1.155   5.467  11.901 -1.1714  0.3031 -1.0666
13716TIP3   OH262638   3.141   1.246  14.008 -0.0713  0.2844  0.0567
13716TIP3    H162639   3.104   1.171  13.963  2.4696  0.0820 -1.8253
13716TIP3    H262640   3.067   1.305  14.022 -1.5569 -1.2642 -1.0913
13717TIP3   OH262641   4.642   0.915  14.051 -0.4747 -0.0252  0.3300
13717TIP3    H162642   4.706   0.900  14.121 -0.4321 -0.9598  0.0951
13717TIP3    H262643   4.670   0.997  14.011  0.9254 -0.7083 -0.1296
13718TIP3   OH262644   2.510   0.905  15.631  0.1711  0.2819 -0.7133
13718TIP3    H162645   2.532   0.868  15.545 -0.9193  3.0915 -2.2919
13718TIP3    H262646   2.594   0.934  15.667  0.5527 -0.2273 -1.1911
13719TIP3   OH262647   0.640   2.819  13.046  0.0400  0.2909  0.4872
13719TIP3    H162648   0.549   2.803  13.071 -0.4897 -0.5206 -1.7516
13719TIP3    H262649   0.636   2.895  12.988  0.4319 -1.0628 -1.3965
13720TIP3   OH262650   5.738   4.897   5.366  0.4826  0.5132  0.8199
13720TIP3    H162651   5.717   4.888   5.459 -0.2263  2.4770  0.8735
13720TIP3    H262652   5.702   4.817   5.326  1.1562 -0.5359  2.2743
13721TIP3   OH262653   0.920   0.695  11.674 -0.0720 -0.1237  0.2117
13721TIP3    H162654   0.948   0.635  11.743 -0.6095 -0.8155 -0.1648
13721TIP3    H262655   0.994   0.754  11.662  1.2577 -1.9692 -0.8349
13722TIP3   OH262656   4.119   6.350  12.184 -0.5618  0.4536 -0.1577
13722TIP3    H162657   4.089   6.286  12.249 -0.5654  0.2238 -0.3821
13722TIP3    H262658   4.039   6.393  12.154 -0.7518 -0.5339 -1.1496
13723TIP3   OH262659   2.233   3.368  10.839 -0.4769 -0.4460 -0.4354
13723TIP3    H162660   2.314   3.400  10.877 -0.9061  1.0224 -0.7186
13723TIP3    H262661   2.185   3.330  10.913  0.2723 -0.9468 -0.1967
13724TIP3   OH262662   1.484   6.176   1.281 -0.5984 -0.0681 -0.2000
13724TIP3    H162663   1.421   6.232   1.327 -1.6143 -0.9370 -0.5022
13724TIP3    H262664   1.429   6.118   1.227  0.5715  1.5726 -3.2920
13725TIP3   OH262665   3.140   0.743   2.219  0.2594 -1.1843 -0.3378
13725TIP3    H162666   3.227   0.772   2.248 -0.2050 -0.8251  0.7184
13725TIP3    H262667   3.092   0.825   2.204 -0.4459 -1.3850  0.7821
13726TIP3   OH262668   2.050   3.558  14.710 -0.5528  0.1701 -0.7712
13726TIP3    H162669   2.132   3.554  14.662 -0.7032  0.2097 -1.0307
13726TIP3    H262670   1.998   3.486  14.674 -0.2317 -0.5230  0.1323
13727TIP3   OH262671   3.106   4.159  13.708  0.5120 -0.5882 -0.4577
13727TIP3    H162672   3.073   4.248  13.693  0.2333 -0.6628 -0.2851
13727TIP3    H262673   3.063   4.131  13.790 -0.4818 -1.4014 -1.2377
13728TIP3   OH262674   5.587   0.350  16.504  0.1095  0.1007 -0.3102
13728TIP3    H162675   5.594   0.326  16.596 -0.3516 -0.9865 -0.5446
13728TIP3    H262676   5.620   0.439  16.499  1.4120 -0.3083  0.6957
13729TIP3   OH262677   4.279   3.129   2.399 -0.8659  0.2547  0.2515
13729TIP3    H162678   4.197   3.082   2.390 -0.2389 -0.7735 -0.2125
13729TIP3    H262679   4.343   3.062   2.423 -0.0449  0.9425  0.0308
13730TIP3   OH262680   4.214   4.087   2.903  0.2103  0.0363 -0.6090
13730TIP3    H162681   4.200   4.010   2.958 -2.2167  1.0809  0.2864
13730TIP3    H262682   4.178   4.062   2.818 -1.0348  0.3679 -0.1773
13731TIP3   OH262683   5.322   4.007  11.555  0.2959 -0.3780 -0.4243
13731TIP3    H162684   5.372   3.979  11.632 -0.5044 -2.0446 -0.5121
13731TIP3    H262685   5.345   3.944  11.487 -1.9583 -1.2256 -0.4513
13732TIP3   OH262686   0.599   4.674  15.866  0.3810  0.2349  0.3029
13732TIP3    H162687   0.629   4.765  15.873 -0.8433  0.7071 -0.4352
13732TIP3    H262688   0.529   4.667  15.930  0.0517 -0.0182 -0.0848
13733TIP3   OH262689   2.331   2.481  13.136  0.2264 -0.3960  0.2103
13733TIP3    H162690   2.353   2.456  13.226  0.6332 -0.9003 -0.0258
13733TIP3    H262691   2.235   2.482  13.134  0.2066  0.5331  0.8989
13734TIP3   OH262692   6.191   2.817   0.223  0.6363  0.2630  0.2536
13734TIP3    H162693   6.253   2.877   0.265  0.0028  1.5592 -0.6374
13734TIP3    H262694   6.208   2.827   0.129 -0.6787  0.3849  0.0163
13735TIP3   OH262695   4.790   5.524   6.075  0.4616  0.0298  0.2673
13735TIP3    H162696   4.805   5.503   6.167 -0.7548 -0.1353  0.4305
13735TIP3    H262697   4.791   5.439   6.031  3.1160  0.2581 -0.1984
13736TIP3   OH262698   6.741   2.735  11.824 -0.1086  0.8438  0.4468
13736TIP3    H162699   6.714   2.804  11.884 -0.7369  1.7614 -0.8836
13736TIP3    H262700   6.661   2.707  11.781  0.1976 -0.4657  0.7048
13737TIP3   OH262701   1.687   3.364  11.845  0.7886 -0.2763  0.5425
13737TIP3    H162702   1.673   3.327  11.932  0.4284  0.9469  1.0204
13737TIP3    H262703   1.605   3.346  11.799  1.1090 -1.2348  0.3331
13738TIP3   OH262704   4.616   5.479  16.979 -0.7784  0.1170  0.8162
13738TIP3    H162705   4.589   5.568  16.960 -1.5015 -0.0118  1.2210
13738TIP3    H262706   4.558   5.451  17.050  0.5271 -0.1065  1.8093
13739TIP3   OH262707   3.236   0.746  12.995 -0.2871 -0.1786  0.4293
13739TIP3    H162708   3.298   0.736  13.067 -0.8997  1.4662  1.1989
13739TIP3    H262709   3.291   0.742  12.916  0.6368  0.0402  1.0539
13740TIP3   OH262710   5.658   4.432   0.853 -0.3944  0.1854 -0.5902
13740TIP3    H162711   5.646   4.410   0.761  0.7466 -0.6533 -0.5426
13740TIP3    H262712   5.572   4.463   0.882 -0.7852  0.3339 -1.8999
13741TIP3   OH262713   6.209   1.030  15.397 -0.2860 -0.5812 -0.1459
13741TIP3    H162714   6.225   0.958  15.458  1.6168 -1.7335 -1.9421
13741TIP3    H262715   6.122   1.011  15.360 -0.4115 -1.1603  0.4348
13742TIP3   OH262716   6.148   6.073  12.082  0.5474  0.4428 -0.2358
13742TIP3    H162717   6.141   6.108  11.993  0.7560  2.2090  0.4237
13742TIP3    H262718   6.057   6.068  12.113  0.4619 -0.3533 -0.6185
13743TIP3   OH262719   6.225   5.953  16.672  1.3819 -0.3491 -0.2630
13743TIP3    H162720   6.153   5.973  16.613  1.7350  0.3827 -0.4527
13743TIP3    H262721   6.229   5.857  16.675  1.2215 -0.3883 -1.2452
13744TIP3   OH262722   3.909   3.384   5.275 -0.2963  0.1995  0.1863
13744TIP3    H162723   3.905   3.432   5.357  2.1210 -0.1887  0.5650
13744TIP3    H262724   3.911   3.452   5.207 -1.2826  0.5343  0.4904
13745TIP3   OH262725   5.276   4.002  12.896 -0.3948 -0.6186 -0.3706
13745TIP3    H162726   5.355   4.055  12.907 -0.6990 -0.3435  0.4912
13745TIP3    H262727   5.253   4.013  12.803 -0.2879  0.5198 -0.2719
13746TIP3   OH262728   4.899   0.650   2.076 -0.1530  0.7572 -0.0220
13746TIP3    H162729   4.972   0.682   2.130  1.1320  0.7025 -1.6949
13746TIP3    H262730   4.933   0.571   2.034 -1.2576  0.6113 -0.6514
13747TIP3   OH262731   5.361   0.787  13.117 -0.5078  0.5807 -0.0746
13747TIP3    H162732   5.442   0.737  13.109 -0.7774  0.2219 -0.6474
13747TIP3    H262733   5.340   0.784  13.210  0.8454  1.8206  0.2853
13748TIP3   OH262734   6.613   0.945   2.664  0.4593  0.2923  0.3442
13748TIP3    H162735   6.613   0.851   2.646  0.4991  0.0096  1.7559
13748TIP3    H262736   6.678   0.981   2.603 -0.5340 -0.4002 -1.1363
13749TIP3   OH262737   5.847   6.367   5.168 -0.2645 -0.2125 -0.4029
13749TIP3    H162738   5.778   6.312   5.204  0.5534 -0.1852  1.2683
13749TIP3    H262739   5.848   6.444   5.224  1.0947 -0.2019 -0.4199
13750TIP3   OH262740   2.475   5.121   1.975 -0.2438 -0.3366 -0.5402
13750TIP3    H162741   2.390   5.106   2.016 -0.2930 -0.6069 -0.7357
13750TIP3    H262742   2.462   5.197   1.918 -0.6107 -0.9525 -1.2890
13751TIP3   OH262743   5.367   4.774   0.205  0.1977  0.3864  0.2078
13751TIP3    H162744   5.394   4.777   0.114  0.2490 -1.3599  0.1531
13751TIP3    H262745   5.275   4.747   0.203 -0.1090  1.3671  0.6288
13752TIP3   OH262746   1.952   1.836   2.199  0.7267 -0.1279  0.0312
13752TIP3    H162747   1.915   1.862   2.115  2.1762 -0.2303 -0.6702
13752TIP3    H262748   1.967   1.742   2.190  0.1638 -0.2758  0.6874
13753TIP3   OH262749   1.179   5.824   1.473 -0.1369 -0.5317  0.1507
13753TIP3    H162750   1.182   5.753   1.409 -0.8185  0.2318 -0.7384
13753TIP3    H262751   1.106   5.801   1.531 -0.9196 -0.1149 -0.6660
13754TIP3   OH262752   1.805   2.436   0.030 -0.1247  0.4076  0.3340
13754TIP3    H162753   1.726   2.396  -0.008  0.8853 -0.9667 -0.3669
13754TIP3    H262754   1.837   2.495  -0.038  0.6930 -0.7275 -0.2877
13755TIP3   OH262755   0.587   3.151   6.176 -0.0939 -0.2227 -0.1848
13755TIP3    H162756   0.499   3.185   6.161  0.0568  0.0862 -0.3686
13755TIP3    H262757   0.582   3.058   6.151 -0.6750 -0.5019  0.9574
13756TIP3   OH262758   3.441   2.406   2.570 -0.4309  0.5258  0.5945
13756TIP3    H162759   3.455   2.500   2.566  1.7946  0.1601 -0.9820
13756TIP3    H262760   3.407   2.383   2.483  1.6742 -0.5087  0.0191
13757TIP3   OH262761   2.037   0.306  14.921 -0.0503 -0.0992  0.0657
13757TIP3    H162762   2.043   0.354  14.839 -0.4569  1.2583  0.8025
13757TIP3    H262763   2.125   0.270  14.934 -0.1316 -0.7583 -1.2129
13758TIP3   OH262764   2.586   4.858  12.493 -0.3487  0.2909  0.3285
13758TIP3    H162765   2.675   4.836  12.464  0.3725  1.4863  1.5600
13758TIP3    H262766   2.530   4.794  12.449  0.9962  0.2201 -1.3602
13759TIP3   OH262767   3.037   2.222  12.380  0.2448 -0.6070  0.7123
13759TIP3    H162768   2.972   2.176  12.326  1.3771 -0.8874 -0.4522
13759TIP3    H262769   3.028   2.182  12.467 -1.2435 -0.5251  0.6012
13760TIP3   OH262770   5.376   6.732   3.181 -0.2540  0.2448 -0.0802
13760TIP3    H162771   5.324   6.794   3.233 -1.3863 -1.0242  0.3337
13760TIP3    H262772   5.339   6.646   3.203  2.1667 -0.7061  0.3587
13761TIP3   OH262773   3.215   3.166   5.038 -0.2953  0.4167 -0.5473
13761TIP3    H162774   3.143   3.187   4.978 -0.3667  0.2974 -0.5032
13761TIP3    H262775   3.174   3.162   5.124 -0.4958 -1.0676 -0.6993
13762TIP3   OH262776   4.783   3.856   1.895 -0.1337 -0.0180  0.8499
13762TIP3    H162777   4.878   3.850   1.904 -0.3078 -1.1043  1.9405
13762TIP3    H262778   4.769   3.940   1.851  1.3921 -0.4265 -0.4441
13763TIP3   OH262779   5.837   0.225   3.292 -0.5258  0.3313 -0.2330
13763TIP3    H162780   5.750   0.242   3.255 -0.1251 -0.5970 -1.6702
13763TIP3    H262781   5.819   0.175   3.371 -1.3543  1.2548  0.1809
13764TIP3   OH262782   3.527   6.615  16.332  0.2730  0.2972 -0.1320
13764TIP3    H162783   3.525   6.598  16.238 -1.0905  3.9172 -0.8411
13764TIP3    H262784   3.611   6.657  16.347  0.6218 -0.5644  0.3213
13765TIP3   OH262785   4.727   0.521   3.259  0.2262  0.2911  0.2232
13765TIP3    H162786   4.701   0.482   3.175 -3.6330 -1.2439  2.0254
13765TIP3    H262787   4.790   0.460   3.296  0.1222 -0.2552 -0.4907
13766TIP3   OH262788   4.811   0.990   4.810  0.2196  0.0886 -0.0987
13766TIP3    H162789   4.745   0.932   4.849 -0.2969  1.7389  1.5223
13766TIP3    H262790   4.761   1.048   4.752  0.5555 -0.1649 -0.6455
13767TIP3   OH262791   4.755   1.693   4.454  0.0580 -0.0726 -0.0185
13767TIP3    H162792   4.835   1.722   4.498  0.6464 -4.2408  1.9866
13767TIP3    H262793   4.693   1.679   4.525 -0.9002 -1.3540 -1.0894
13768TIP3   OH262794   5.271   5.026  10.839 -0.1166  0.1958 -0.2413
13768TIP3    H162795   5.311   4.982  10.764 -0.7375  1.2586 -1.2151
13768TIP3    H262796   5.191   5.066  10.804 -1.1723 -0.4852  1.3033
13769TIP3   OH262797   1.539   3.415  12.842  0.6472  0.2142 -0.3197
13769TIP3    H162798   1.456   3.436  12.886  0.5234 -0.2346 -0.3272
13769TIP3    H262799   1.587   3.363  12.906  0.9505  0.5354 -0.2914
13770TIP3   OH262800   0.033   4.788   3.930 -0.4457  0.0762  0.4119
13770TIP3    H162801  -0.060   4.774   3.946 -0.6745  0.9237 -0.1279
13770TIP3    H262802   0.036   4.861   3.868  0.5360 -0.7291 -0.5139
13771TIP3   OH262803   6.127   1.265  15.195  0.4876  0.9839  0.1621
13771TIP3    H162804   6.079   1.235  15.118  0.7851 -0.7995  0.6402
13771TIP3    H262805   6.210   1.219  15.190  0.9276  1.6950  0.9754
13772TIP3   OH262806   3.632   6.407  13.007 -0.1085  0.2978  0.5255
13772TIP3    H162807   3.706   6.441  13.057  0.5057 -1.0251  0.5411
13772TIP3    H262808   3.569   6.379  13.073  0.3339 -0.6406  0.5617
13773TIP3   OH262809   4.219   0.466  15.010  0.0731 -0.1768 -0.1982
13773TIP3    H162810   4.203   0.388  14.956 -0.2283  0.3014 -0.8043
13773TIP3    H262811   4.297   0.444  15.061 -0.1640 -0.9766 -0.1731
13774TIP3   OH262812   3.083   3.749  15.710 -0.1547  0.0763 -0.2087
13774TIP3    H162813   3.125   3.828  15.744 -1.8672  0.0255  2.1616
13774TIP3    H262814   3.155   3.689  15.691  1.2245  2.4352 -2.7846
13775TIP3   OH262815   5.651   1.890   1.204  0.4001  0.1011  0.0072
13775TIP3    H162816   5.581   1.833   1.236 -0.5616  2.1834  1.7186
13775TIP3    H262817   5.731   1.847   1.234 -0.3177 -0.2380  1.4899
13776TIP3   OH262818   0.760   2.000   2.191 -0.2308 -0.1150 -0.3582
13776TIP3    H162819   0.738   2.027   2.281 -4.8178  1.7410 -1.8834
13776TIP3    H262820   0.737   1.907   2.188  1.7027 -0.6615  0.8467
13777TIP3   OH262821   2.686   1.882  13.872  0.4574 -0.1134  0.0842
13777TIP3    H162822   2.676   1.885  13.967 -1.6111  4.7241 -0.1281
13777TIP3    H262823   2.600   1.854  13.840  0.3153  0.8519 -0.4049
13778TIP3   OH262824   4.644   2.537   1.901  0.1316 -0.3022 -0.6252
13778TIP3    H162825   4.602   2.616   1.936  2.1215  1.1093 -1.3712
13778TIP3    H262826   4.622   2.537   1.808  0.0157 -0.7334 -0.6020
13779TIP3   OH262827   6.433   1.429   5.838 -0.0427  0.1105 -0.4056
13779TIP3    H162828   6.493   1.495   5.804  0.0678 -0.8100 -2.0209
13779TIP3    H262829   6.463   1.347   5.799 -0.8000 -0.7440  0.7841
13780TIP3   OH262830   4.966   5.478  11.555 -0.3907  0.0340  0.0186
13780TIP3    H162831   4.877   5.464  11.587 -0.4265 -0.9183 -0.4787
13780TIP3    H262832   4.954   5.506  11.464 -0.2195  1.0334  0.2959
13781TIP3   OH262833   4.020   4.165   6.563 -0.1105 -0.5317  0.1177
13781TIP3    H162834   3.942   4.168   6.618  0.5336  2.3892  0.9118
13781TIP3    H262835   4.093   4.172   6.624  0.7503 -1.6338 -0.7630
13782TIP3   OH262836   0.811   6.068   0.774 -0.3329  0.3293 -0.6539
13782TIP3    H162837   0.744   6.001   0.788  0.0825 -0.3399 -1.7495
13782TIP3    H262838   0.765   6.140   0.732 -0.6965  0.5557  0.1298
13783TIP3   OH262839   0.712   1.690   6.331  0.1437  0.0919 -0.3583
13783TIP3    H162840   0.743   1.776   6.360 -3.0731  1.2187 -0.0339
13783TIP3    H262841   0.617   1.700   6.324 -0.4748 -3.8617  1.1129
13784TIP3   OH262842   2.373   4.325  10.594 -0.3376 -0.1026 -0.6658
13784TIP3    H162843   2.293   4.327  10.645  0.5002  0.6125  0.6524
13784TIP3    H262844   2.357   4.260  10.525 -2.8870  1.7247 -1.8674
13785TIP3   OH262845   0.250   0.049   4.007 -0.0243  0.1988  0.1920
13785TIP3    H162846   0.332   0.016   3.970  0.3084  0.8433  0.3544
13785TIP3    H262847   0.254   0.024   4.100 -0.0601  0.1434  0.1790
13786TIP3   OH262848   5.826   4.080  13.152 -0.1673 -0.1243 -0.1391
13786TIP3    H162849   5.751   4.023  13.166 -1.2587  1.2820 -0.1202
13786TIP3    H262850   5.792   4.168  13.168  1.6105  0.4959  0.3715
13787TIP3   OH262851   3.604   0.568  13.392 -0.7438 -0.4790 -0.1863
13787TIP3    H162852   3.675   0.564  13.329  0.3245  0.5593  0.9069
13787TIP3    H262853   3.585   0.662  13.401 -0.9060 -0.6082  0.9710
13788TIP3   OH262854   2.177   0.093   3.194  0.0307 -0.2087  0.1896
13788TIP3    H162855   2.249   0.048   3.239 -1.4755 -2.2248  0.6542
13788TIP3    H262856   2.102   0.036   3.207 -1.6237  1.7674 -0.4777
13789TIP3   OH262857   0.518   2.267  13.119  0.2346 -0.1760 -0.2633
13789TIP3    H162858   0.491   2.200  13.057 -0.2793 -0.6884  0.4968
13789TIP3    H262859   0.604   2.237  13.150 -0.5069 -1.1315  0.9549
13790TIP3   OH262860   2.040   3.933   3.979 -0.2073 -0.4101  1.2389
13790TIP3    H162861   2.032   3.839   3.997  0.7409 -0.1216  3.3476
13790TIP3    H262862   2.133   3.952   3.990 -0.2409  0.6105 -0.1271
13791TIP3   OH262863   5.860   3.781  11.653  0.1471 -0.0790  0.1728
13791TIP3    H162864   5.854   3.751  11.562  1.4690 -1.8498  0.6413
13791TIP3    H262865   5.954   3.796  11.666  0.1202 -1.2104  1.6756
13792TIP3   OH262866   6.749   0.079  15.228  0.3095 -0.1328 -0.3077
13792TIP3    H162867   6.814   0.042  15.167 -0.0159 -0.6867 -0.3167
13792TIP3    H262868   6.762   0.174  15.221  1.2363 -0.2389 -0.1864
13793TIP3   OH262869   5.093   2.655  14.419  0.7103  0.6835 -0.3967
13793TIP3    H162870   5.107   2.570  14.460 -1.5885  0.4954  0.1107
13793TIP3    H262871   5.128   2.645  14.331  3.9383  0.4641  0.8534
13794TIP3   OH262872   4.649   1.164  13.477 -0.1194 -0.6536  0.3245
13794TIP3    H162873   4.568   1.176  13.527  0.9339  1.1640  1.6857
13794TIP3    H262874   4.657   1.069  13.467 -1.3751 -0.9656  1.9336
13795TIP3   OH262875   4.420   2.049   1.048 -0.3391 -0.2588  0.5388
13795TIP3    H162876   4.431   2.075   0.957 -0.6728 -0.3783  0.4611
13795TIP3    H262877   4.325   2.051   1.062 -0.4157 -1.9470  0.3654
13796TIP3   OH262878   1.103   2.045  15.454  0.1706 -0.2426  0.1794
13796TIP3    H162879   1.013   2.075  15.462 -0.0500 -0.8638  0.0536
13796TIP3    H262880   1.125   2.010  15.540 -0.0585 -1.0347 -0.0757
13797TIP3   OH262881   0.367   5.181  16.892  0.7286 -0.6495  0.0633
13797TIP3    H162882   0.288   5.204  16.842  0.0186 -0.7086  1.1376
13797TIP3    H262883   0.394   5.264  16.932  0.3965 -0.9002  0.8193
13798TIP3   OH262884   1.349   2.657  11.362  0.0285 -0.0057 -0.4385
13798TIP3    H162885   1.280   2.632  11.302  0.8992 -1.1771 -0.9744
13798TIP3    H262886   1.422   2.683  11.306  0.0887  1.0366  0.1129
13799TIP3   OH262887   6.141   6.062   3.483 -0.7798  0.0082 -0.1136
13799TIP3    H162888   6.055   6.074   3.523 -0.5703  2.1304 -0.2170
13799TIP3    H262889   6.138   6.115   3.403  0.9117  0.8210  0.3378
13800TIP3   OH262890   0.240   2.754  13.689 -0.0158 -0.2042  0.7487
13800TIP3    H162891   0.301   2.703  13.636  1.8559  1.6622  1.0421
13800TIP3    H262892   0.235   2.706  13.772  2.4623  0.5302  1.3646
13801TIP3   OH262893   3.568   1.633  14.475  0.0635  0.0245  0.1835
13801TIP3    H162894   3.575   1.560  14.414  0.7183  0.8180 -0.7057
13801TIP3    H262895   3.645   1.626  14.530  0.3041  0.2299 -0.1210
13802TIP3   OH262896   0.275   1.465  16.507 -0.2396  0.2737  0.7111
13802TIP3    H162897   0.368   1.453  16.528 -0.3969 -0.4628  1.0162
13802TIP3    H262898   0.271   1.460  16.412  0.3091  2.3441  0.5584
13803TIP3   OH262899   4.307   6.593  13.892 -0.7950 -0.2355  0.6291
13803TIP3    H162900   4.270   6.521  13.941 -0.6314 -2.4573 -2.3669
13803TIP3    H262901   4.233   6.651  13.873 -0.9438  0.3783  2.9337
13804TIP3   OH262902   1.984   1.806   3.398  0.5694  0.5178 -0.1287
13804TIP3    H162903   2.064   1.758   3.378  1.0287  1.5286 -0.7520
13804TIP3    H262904   1.922   1.738   3.425  2.2864 -0.0497  2.5405
13805TIP3   OH262905   3.225   6.805  13.497 -0.6666 -0.5138  0.3320
13805TIP3    H162906   3.225   6.712  13.518  2.3282 -0.5422  0.4047
13805TIP3    H262907   3.316   6.825  13.477 -1.2458  2.4411  0.4592
13806TIP3   OH262908   0.507   5.083  17.138  0.0195 -0.6072 -0.5095
13806TIP3    H162909   0.506   4.991  17.164 -1.3673 -0.4882 -0.0709
13806TIP3    H262910   0.440   5.089  17.070  0.3363  0.0111 -0.7684
13807TIP3   OH262911   6.390   5.608   6.524 -0.1652  0.0911 -1.0679
13807TIP3    H162912   6.342   5.529   6.499 -1.6731  0.0945  1.6225
13807TIP3    H262913   6.329   5.680   6.505 -0.7223  0.2023  0.9681
13808TIP3   OH262914   3.906   3.879  16.711 -0.6046  0.1887  0.2006
13808TIP3    H162915   3.944   3.795  16.739 -0.0550  0.3996  0.0918
13808TIP3    H262916   3.945   3.943  16.770 -2.5172  0.1368  1.5778
13809TIP3   OH262917   3.515   3.791  15.603 -0.0879  0.2077 -0.0348
13809TIP3    H162918   3.543   3.871  15.558  0.2814  0.6272  0.9164
13809TIP3    H262919   3.555   3.720  15.553  0.5468  0.6837 -0.2067
13810TIP3   OH262920   0.944   2.209   2.352  0.1903  0.5661  0.2090
13810TIP3    H162921   1.031   2.248   2.346  0.9359 -0.7308  2.0458
13810TIP3    H262922   0.953   2.122   2.314 -0.7535  1.0503 -1.1839
13811TIP3   OH262923   4.770   2.333  14.262  0.0688  0.4771  0.3957
13811TIP3    H162924   4.693   2.343  14.206  0.8965  0.2506 -0.7964
13811TIP3    H262925   4.776   2.238  14.277 -0.5669  0.5949  1.4794
13812TIP3   OH262926   5.028   5.269  13.432  0.2083 -0.4533  0.3832
13812TIP3    H162927   5.099   5.294  13.373 -0.7707  2.0649  0.2158
13812TIP3    H262928   4.962   5.230  13.375  0.5840 -0.9203  0.2616
13813TIP3   OH262929   2.714   2.413  16.878 -0.1775  0.3954 -0.0962
13813TIP3    H162930   2.718   2.318  16.888 -0.2680  0.5141  1.0409
13813TIP3    H262931   2.631   2.429  16.833  0.2330 -0.1208 -1.0597
13814TIP3   OH262932   0.944   5.834   1.224 -0.0029 -0.4126  0.1336
13814TIP3    H162933   0.989   5.918   1.237  0.7842 -0.6109 -1.2251
13814TIP3    H262934   0.985   5.796   1.146 -1.3335 -1.4045 -0.1141
13815TIP3   OH262935   4.105   2.582   2.609  0.0013  0.0340  0.4981
13815TIP3    H162936   4.083   2.565   2.701  0.7334  0.5232  0.7715
13815TIP3    H262937   4.177   2.522   2.591  0.2088  0.3171  0.3966
13816TIP3   OH262938   1.674   0.605   3.619  0.0809  0.5947 -0.0516
13816TIP3    H162939   1.716   0.691   3.621 -0.4755  0.8832 -0.7375
13816TIP3    H262940   1.582   0.622   3.642  0.2042  0.0359  0.9111
13817TIP3   OH262941   6.465   1.477   1.007 -0.0363 -0.1494 -0.0270
13817TIP3    H162942   6.480   1.489   0.913 -0.3394 -0.8911 -0.1779
13817TIP3    H262943   6.471   1.565   1.044 -1.1261  0.3066 -0.9102
13818TIP3   OH262944   3.405   5.448  16.320 -0.1545 -0.1919 -0.1952
13818TIP3    H162945   3.375   5.387  16.387 -0.2266 -0.2313 -0.2631
13818TIP3    H262946   3.493   5.417  16.297  0.9151  1.3036  1.7053
13819TIP3   OH262947   0.355   2.616  15.538  0.1306 -0.2187 -0.3853
13819TIP3    H162948   0.388   2.689  15.590 -1.1502  0.5369 -0.6230
13819TIP3    H262949   0.356   2.648  15.448 -1.0744 -0.2456 -0.4119
13820TIP3   OH262950   4.843   6.758   5.615  0.8998  0.4738 -0.7979
13820TIP3    H162951   4.891   6.743   5.697 -0.0144 -0.0921 -0.3536
13820TIP3    H262952   4.825   6.853   5.615  2.1329  0.7163 -1.0468
13821TIP3   OH262953   1.549   2.390   3.765 -0.3142 -0.2708  0.0453
13821TIP3    H162954   1.629   2.357   3.725  0.0709  0.5003  0.1609
13821TIP3    H262955   1.535   2.476   3.725 -0.7132 -0.1102  0.5109
13822TIP3   OH262956   5.210   2.491  15.033 -0.8129 -0.0523  0.2333
13822TIP3    H162957   5.262   2.571  15.041 -0.0208 -0.5753  0.4262
13822TIP3    H262958   5.200   2.478  14.939 -2.1631  1.0397  0.2112
13823TIP3   OH262959   0.329   1.315  15.515  0.5061 -0.6070 -0.5381
13823TIP3    H162960   0.422   1.294  15.510  0.3837 -1.1531 -0.5126
13823TIP3    H262961   0.298   1.270  15.593  0.7349  1.5434  0.8458
13824TIP3   OH262962   6.041   6.174   3.754  0.2839  0.2923 -0.1145
13824TIP3    H162963   5.970   6.215   3.803 -1.1986 -0.7115 -1.3770
13824TIP3    H262964   6.093   6.129   3.821  0.0258  1.4460  0.8790
13825TIP3   OH262965   1.374   2.773  15.752  0.2054  0.1091 -0.0657
13825TIP3    H162966   1.359   2.687  15.792  0.8418  0.0650  0.0773
13825TIP3    H262967   1.290   2.796  15.712  0.1636 -0.7811 -0.4856
13826TIP3   OH262968   1.015   3.004  10.396  0.3194 -0.0642  0.2131
13826TIP3    H162969   0.990   2.913  10.379 -0.6296  0.1822  0.2725
13826TIP3    H262970   0.945   3.038  10.451 -0.3295  1.2703 -1.4110
13827TIP3   OH262971   0.396   0.859   2.501 -0.2345 -0.3188  0.2827
13827TIP3    H162972   0.474   0.834   2.551 -0.5125 -0.2147  0.7687
13827TIP3    H262973   0.412   0.950   2.475  0.2980 -0.6518 -0.5656
13828TIP3   OH262974   5.407   1.250  11.425  0.1249 -0.3427 -0.6921
13828TIP3    H162975   5.417   1.204  11.509  2.0836 -1.9700 -1.7471
13828TIP3    H262976   5.320   1.288  11.428  0.1005 -0.5416  2.0133
13829TIP3   OH262977   6.537   0.573  11.435 -0.4866 -0.3761 -0.0950
13829TIP3    H162978   6.608   0.531  11.387 -0.8278 -0.8218 -0.2182
13829TIP3    H262979   6.564   0.570  11.527  0.0881  0.3208 -0.2407
13830TIP3   OH262980   1.304   2.103  11.256  0.0387 -0.6834  0.3964
13830TIP3    H162981   1.354   2.184  11.241  0.2074 -0.1486  3.5935
13830TIP3    H262982   1.224   2.115  11.204  0.5663  1.0509 -0.0507
13831TIP3   OH262983   4.748   4.668  15.978 -0.4031  0.2986  0.1395
13831TIP3    H162984   4.811   4.729  16.017  0.8831  0.1770 -1.7097
13831TIP3    H262985   4.670   4.722  15.961 -0.8649  0.4348  2.4765
13832TIP3   OH262986   3.997   3.609  12.227 -0.3200 -0.9678  0.1424
13832TIP3    H162987   4.004   3.627  12.320  0.0868  1.0573 -0.2478
13832TIP3    H262988   3.926   3.665  12.196  1.4022  0.5237 -1.2467
13833TIP3   OH262989   2.005   2.747   4.327  0.1391 -0.3600 -0.7283
13833TIP3    H162990   2.010   2.842   4.315  2.0691 -0.5121 -1.2979
13833TIP3    H262991   2.059   2.711   4.257 -0.0049 -1.8420 -0.0924
13834TIP3   OH262992   0.585   2.836  11.599  0.5090  0.4675 -0.2427
13834TIP3    H162993   0.510   2.893  11.616 -0.0159 -0.3379  0.1330
13834TIP3    H262994   0.631   2.830  11.682  0.1636 -0.2423 -0.1025
13835TIP3   OH262995   3.357   5.783  16.834 -1.1289 -0.8380  0.2321
13835TIP3    H162996   3.301   5.861  16.831  0.2642  0.2236  1.0878
13835TIP3    H262997   3.382   5.769  16.742 -0.0643  0.7315  0.2587
13836TIP3   OH262998   1.409   1.781   1.545  0.5234 -0.0598 -0.0666
13836TIP3    H162999   1.326   1.783   1.593  2.2594 -1.0583  3.1493
13836TIP3    H263000   1.466   1.843   1.593  2.6835 -1.9713 -0.0727
13837TIP3   OH263001   2.446   2.975   5.621 -0.2379 -0.1639 -0.9346
13837TIP3    H163002   2.497   3.047   5.584  1.4895 -0.6910  0.4091
13837TIP3    H263003   2.461   2.901   5.561  1.0522 -0.4810 -0.2307
13838TIP3   OH263004   3.742   0.029  16.603 -0.1128 -0.3228 -0.3467
13838TIP3    H163005   3.718  -0.062  16.616  1.7179 -0.7350  0.3238
13838TIP3    H263006   3.781   0.056  16.687 -0.0906  0.8805 -0.7352
13839TIP3   OH263007   6.277   4.445   1.689 -0.8325  0.5962  0.0515
13839TIP3    H163008   6.341   4.515   1.704 -0.4809  0.3689 -0.3799
13839TIP3    H263009   6.327   4.364   1.702 -1.3963  0.4251  1.2140
13840TIP3   OH263010   6.175   0.328   4.020  0.5530  0.3877 -0.4351
13840TIP3    H163011   6.222   0.405   3.986  0.4047  0.0973 -1.3311
13840TIP3    H263012   6.196   0.259   3.957  0.6741 -0.3004  0.3648
13841TIP3   OH263013   6.034   5.136  12.676  0.5077  0.3659 -0.3635
13841TIP3    H163014   6.105   5.198  12.661  1.2350 -0.5546 -0.7934
13841TIP3    H263015   6.013   5.101  12.589 -0.8143  0.9848 -0.3095
13842TIP3   OH263016   6.687   4.417  12.598  0.7428  0.5046  0.3118
13842TIP3    H163017   6.711   4.496  12.647 -0.2648  0.8509  0.2606
13842TIP3    H263018   6.671   4.351  12.666  2.6133  0.0375  0.3192
13843TIP3   OH263019   3.754   3.830  15.335 -0.4592  0.1229 -0.0026
13843TIP3    H163020   3.808   3.865  15.406  0.8094  0.5488 -1.1491
13843TIP3    H263021   3.728   3.742  15.364  0.3768  0.1460  0.8038
13844TIP3   OH263022   0.624   1.764  16.170  0.2547  0.4171  0.3382
13844TIP3    H163023   0.687   1.751  16.241  0.1805 -4.2373 -0.3233
13844TIP3    H263024   0.539   1.747  16.210 -0.0233  0.2443 -0.3236
13845TIP3   OH263025   6.465   0.700   3.749 -0.0824  0.4102  0.7268
13845TIP3    H163026   6.373   0.683   3.731 -0.0934  1.4315 -0.2574
13845TIP3    H263027   6.480   0.790   3.717  1.4507 -0.0584  0.0506
13846TIP3   OH263028   0.611   6.376  12.771 -0.0417 -0.1129 -0.7029
13846TIP3    H163029   0.628   6.298  12.719  0.0261 -1.3023  1.0638
13846TIP3    H263030   0.516   6.377  12.783  0.0324 -0.3571 -0.0728
13847TIP3   OH263031   2.671   2.256   4.008  0.0288  0.3425  0.0585
13847TIP3    H163032   2.612   2.222   3.941 -3.1093 -0.1906  2.9421
13847TIP3    H263033   2.660   2.197   4.083  1.8472  2.0756  1.7859
13848TIP3   OH263034   6.643   5.483   4.392  0.3276  0.7490 -0.1432
13848TIP3    H163035   6.671   5.438   4.312  0.8111  1.1352 -0.1972
13848TIP3    H263036   6.725   5.513   4.431  0.0525  0.9927  0.2407
13849TIP3   OH263037   3.201   3.919  15.915  0.4299  0.2899  0.1665
13849TIP3    H163038   3.186   3.998  15.862 -0.0751  0.0246 -0.0887
13849TIP3    H263039   3.169   3.942  16.002  4.3611  1.9204  1.2962
13850TIP3   OH263040   5.037   0.540  10.515  0.1606  0.5015  0.0914
13850TIP3    H163041   5.053   0.586  10.597  0.3064  0.5233  0.0513
13850TIP3    H263042   4.954   0.576  10.483  0.2741  0.7391  0.0604
13851TIP3   OH263043   2.711   6.430  16.889  0.4843 -0.2948 -0.0252
13851TIP3    H163044   2.628   6.478  16.890  0.5168 -0.2563  0.9812
13851TIP3    H263045   2.748   6.448  16.803  0.3510  1.2329  0.2332
13852TIP3   OH263046   3.594   2.222  14.474 -0.0222 -0.5649 -0.3713
13852TIP3    H163047   3.507   2.223  14.434  0.4494 -3.2901 -1.6616
13852TIP3    H263048   3.636   2.303  14.444 -2.3507  1.1648  0.9276
13853TIP3   OH263049   0.572   4.445  16.494  0.1345 -0.2952  0.0039
13853TIP3    H163050   0.575   4.540  16.485  1.6979 -0.4971 -2.2296
13853TIP3    H263051   0.479   4.424  16.502 -0.0283  1.6850  4.9273
13854TIP3   OH263052   6.062   4.840  16.655  0.1025  0.3724 -0.5394
13854TIP3    H163053   6.074   4.875  16.744  0.3631 -2.0246  0.3899
13854TIP3    H263054   6.142   4.866  16.609  1.4289 -1.1203  0.8666
13855TIP3   OH263055   6.806   5.856  15.659 -0.1291  0.4380  0.2630
13855TIP3    H163056   6.858   5.776  15.666 -0.5690  0.2598  1.6575
13855TIP3    H263057   6.790   5.866  15.565  3.0222  0.9126 -0.2725
13856TIP3   OH263058   3.604   0.873   5.522  0.0954  0.3332  0.6324
13856TIP3    H163059   3.646   0.861   5.607  0.6310 -0.7562  0.2196
13856TIP3    H263060   3.646   0.951   5.485  1.5630 -0.5582  0.3568
13857TIP3   OH263061   0.485   2.012   5.152 -0.1138 -0.0266 -0.8880
13857TIP3    H163062   0.439   2.082   5.106  1.4971  1.4723 -0.2667
13857TIP3    H263063   0.536   1.968   5.083 -2.1460 -1.4854 -1.5178
13858TIP3   OH263064   6.061   2.365   2.013  0.2404 -0.2671 -0.2991
13858TIP3    H163065   5.982   2.360   2.066 -1.6747 -1.1160 -3.1528
13858TIP3    H263066   6.071   2.459   1.994 -0.1377 -0.1619  0.0211
13859TIP3   OH263067   3.450   0.845  13.917 -0.4118 -0.0204  0.1916
13859TIP3    H163068   3.495   0.761  13.912  0.9620  0.7007 -0.0020
13859TIP3    H263069   3.357   0.823  13.924  0.0280 -1.5617  1.4172
13860TIP3   OH263070   6.433   5.077  15.283 -0.1647 -0.1945  0.0057
13860TIP3    H163071   6.400   4.999  15.328 -1.0768 -0.1819 -0.6454
13860TIP3    H263072   6.364   5.142  15.294  0.2877  0.2978 -0.0704
13861TIP3   OH263073   2.499   3.762   3.247 -0.0412 -0.7067 -0.8552
13861TIP3    H163074   2.543   3.834   3.292  0.7995 -1.8027  0.1392
13861TIP3    H263075   2.454   3.803   3.173 -0.4577  0.9736  0.3020
13862TIP3   OH263076   3.477   3.638   5.748 -0.1677  0.1910 -0.2648
13862TIP3    H163077   3.405   3.575   5.757 -0.3040  0.2927 -0.6266
13862TIP3    H263078   3.433   3.723   5.741 -0.0323  0.2138 -0.8844
13863TIP3   OH263079   3.934   0.428   0.249 -0.2609  0.2814 -0.3443
13863TIP3    H163080   3.903   0.338   0.253 -1.0608  0.3742 -3.0194
13863TIP3    H263081   4.016   0.428   0.298 -0.8199 -1.6428  0.6179
13864TIP3   OH263082   2.694   2.144  16.530 -0.4025  1.0250 -0.3888
13864TIP3    H163083   2.754   2.120  16.459 -0.8029  1.8065 -1.0072
13864TIP3    H263084   2.700   2.240  16.535 -2.2338  1.2025 -1.0553
13865TIP3   OH263085   6.737   2.392  12.144  0.2562 -0.1397 -0.0746
13865TIP3    H163086   6.671   2.324  12.154 -0.2916  0.2851 -0.7753
13865TIP3    H263087   6.742   2.408  12.050 -2.6074  3.6609  0.3000
13866TIP3   OH263088   1.150   5.550   2.942  0.2608  0.9881  0.6921
13866TIP3    H163089   1.216   5.485   2.920 -1.5347 -0.8529  0.5678
13866TIP3    H263090   1.200   5.628   2.967  2.4682 -0.5621  1.2640
13867TIP3   OH263091   1.785   0.495   4.693 -0.1980  0.0433 -0.1969
13867TIP3    H163092   1.806   0.586   4.715 -0.9739  0.8225 -2.4872
13867TIP3    H263093   1.839   0.476   4.616  0.2446 -1.5847  0.4956
13868TIP3   OH263094   4.871   5.274   2.115  0.2902 -0.4727  0.9182
13868TIP3    H163095   4.842   5.364   2.132  0.6954 -0.6836  2.7749
13868TIP3    H263096   4.790   5.223   2.116  0.1664 -0.2769  0.8897
13869TIP3   OH263097   2.352   4.235   4.599  0.0712 -0.1753 -0.4130
13869TIP3    H163098   2.312   4.320   4.619  1.9687  0.0367  2.8963
13869TIP3    H263099   2.279   4.172   4.605 -0.8458  0.8996 -0.2309
13870TIP3   OH263100   0.311   1.219   1.827  0.3160  0.0020  0.3943
13870TIP3    H163101   0.217   1.199   1.831  0.5709 -1.1190  0.9423
13870TIP3    H263102   0.331   1.221   1.734 -0.3952  0.9302  0.2566
13871TIP3   OH263103   5.222   1.327   4.404  0.2003  0.3868 -0.3572
13871TIP3    H163104   5.175   1.394   4.454  1.7218  0.5401  0.9054
13871TIP3    H263105   5.176   1.323   4.320  0.0047  2.9257 -0.4086
13872TIP3   OH263106   2.222   0.079  17.021  0.0130  0.1568  0.1974
13872TIP3    H163107   2.186   0.165  17.044 -0.1087  0.2641 -0.3717
13872TIP3    H263108   2.317   0.091  17.026 -0.0212 -0.2151  2.0145
13873TIP3   OH263109   2.276   6.157   1.973  0.7587  0.3966 -0.3873
13873TIP3    H163110   2.343   6.091   1.987  1.0374  0.5095 -1.2161
13873TIP3    H263111   2.237   6.136   1.888 -1.2675 -0.5661  0.7292
13874TIP3   OH263112   2.076   2.654  12.227  0.6227 -0.1634 -0.0542
13874TIP3    H163113   2.080   2.620  12.137 -0.1083  1.6557 -0.8042
13874TIP3    H263114   2.160   2.699  12.239  1.4132 -1.8018  0.7883
13875TIP3   OH263115   6.196   5.293  17.206 -0.2986  0.0855 -0.2372
13875TIP3    H163116   6.275   5.254  17.244 -0.6116  1.0904  1.4671
13875TIP3    H263117   6.124   5.246  17.246 -0.6000 -0.0485 -0.9281
13876TIP3   OH263118   6.218   1.559  15.523  0.4900  0.6242  0.1124
13876TIP3    H163119   6.302   1.555  15.568 -0.1663  0.5176  1.3333
13876TIP3    H263120   6.198   1.469  15.499 -0.5906  0.2501  2.2880
13877TIP3   OH263121   4.605   3.556   5.444  0.1927 -0.2483 -0.1789
13877TIP3    H163122   4.624   3.477   5.494  0.1661 -0.1099  0.0516
13877TIP3    H263123   4.620   3.532   5.353  0.5722 -0.4025 -0.0756
13878TIP3   OH263124   0.322   0.585   0.854 -0.0205  0.0861 -0.0816
13878TIP3    H163125   0.327   0.532   0.774  0.6315  0.4735 -0.3049
13878TIP3    H263126   0.379   0.660   0.837  0.1607  0.1515  0.7631
13879TIP3   OH263127   4.829   6.437  14.072  0.0151 -0.1685  0.1964
13879TIP3    H163128   4.767   6.364  14.073  0.1004 -0.2428 -0.0499
13879TIP3    H263129   4.833   6.465  13.981 -1.4974  1.4169  0.5947
13880TIP3   OH263130   2.496   6.440   5.830 -0.0135 -0.3817 -0.3074
13880TIP3    H163131   2.440   6.362   5.831 -0.9144  0.2470 -0.4752
13880TIP3    H263132   2.575   6.414   5.877  1.2123 -2.4860 -3.3410
13881TIP3   OH263133   5.642   2.917   2.754 -0.3259 -0.0813 -0.3450
13881TIP3    H163134   5.584   2.849   2.787  0.0693 -0.7269 -0.9462
13881TIP3    H263135   5.661   2.972   2.830 -0.5278 -0.7343  0.1840
13882TIP3   OH263136   1.619   3.387   5.398 -0.4669 -0.0535 -0.0881
13882TIP3    H163137   1.702   3.398   5.444 -0.8432  0.0028  0.5983
13882TIP3    H263138   1.641   3.339   5.319  0.9989  4.1853 -2.4131
13883TIP3   OH263139   3.765   6.403  13.473  0.8163 -0.2873  0.7352
13883TIP3    H163140   3.805   6.441  13.396  2.3114 -0.6752  1.3079
13883TIP3    H263141   3.721   6.324  13.441  1.0509 -0.2049  0.2091
13884TIP3   OH263142   2.975   5.361  17.064  0.3586  0.5009 -0.5420
13884TIP3    H163143   2.880   5.369  17.057  0.3243 -0.7531 -1.6309
13884TIP3    H263144   3.006   5.451  17.055 -0.6874  0.8501 -0.8212
13885TIP3   OH263145   5.883   2.203  14.993  0.1944  0.0627  0.0173
13885TIP3    H163146   5.810   2.195  15.055  0.7728 -0.6237  0.6244
13885TIP3    H263147   5.867   2.135  14.928  0.8059 -0.7376  0.6930
13886TIP3   OH263148   4.428   6.567  14.495 -0.1622 -0.3136  0.4916
13886TIP3    H163149   4.502   6.626  14.485  0.5598 -1.2740  0.1565
13886TIP3    H263150   4.355   6.624  14.519  0.8244  0.5560  1.4416
13887TIP3   OH263151   4.813   3.328   6.331  0.7632  0.4159  0.0486
13887TIP3    H163152   4.764   3.246   6.326  1.4321  0.1136 -1.8549
13887TIP3    H263153   4.775   3.383   6.263 -0.4908  2.1659  2.1008
13888TIP3   OH263154   0.345   4.766  16.306 -0.3289  0.1125  0.0377
13888TIP3    H163155   0.436   4.738  16.322 -0.2469 -0.1403 -0.8279
13888TIP3    H263156   0.339   4.774  16.210 -1.5352 -0.9678  0.0158
13889TIP3   OH263157   4.273   3.239  16.784  0.0262  0.4301 -0.0314
13889TIP3    H163158   4.342   3.172  16.786  0.8634  1.2739  2.8146
13889TIP3    H263159   4.227   3.224  16.702  2.2864 -1.5105 -1.0205
13890TIP3   OH263160   5.811   2.940  15.191 -0.3511  0.8020  0.3329
13890TIP3    H163161   5.763   3.010  15.234 -0.6393  0.0004  1.3472
13890TIP3    H263162   5.888   2.982  15.154 -1.1759  1.8682 -0.1667
13891TIP3   OH263163   3.152   5.972  16.813 -0.0121  0.3911  0.0715
13891TIP3    H163164   3.092   6.009  16.878 -0.7182  0.4550 -0.6150
13891TIP3    H263165   3.096   5.935  16.745  0.7114  1.0399 -0.9126
13892TIP3   OH263166   5.710   3.497   2.981 -0.1341  0.6162 -0.0380
13892TIP3    H163167   5.639   3.512   2.918 -0.0456  1.7350  0.1114
13892TIP3    H263168   5.690   3.412   3.021 -0.3477  0.0337 -1.3653
13893TIP3   OH263169   3.631   0.741   2.496 -0.2653  0.1618 -0.6123
13893TIP3    H163170   3.627   0.733   2.591 -1.5281 -0.4737 -0.6972
13893TIP3    H263171   3.660   0.654   2.466  0.7970  0.5693 -0.7713
13894TIP3   OH263172   5.538   3.477  11.305 -0.9880 -0.6207  0.5035
13894TIP3    H163173   5.465   3.450  11.360 -1.3073  1.0848  0.9397
13894TIP3    H263174   5.546   3.571  11.320  0.7354 -0.6373 -0.2173
13895TIP3   OH263175   1.436   2.208   5.171 -1.1824 -0.1270 -0.0838
13895TIP3    H163176   1.444   2.143   5.241 -0.3096  0.5999  0.5098
13895TIP3    H263177   1.498   2.178   5.104  1.2799  1.5553  1.3781
13896TIP3   OH263178   6.580   2.835   6.753  0.0453  0.2791 -0.4674
13896TIP3    H163179   6.611   2.827   6.843  1.0575 -0.8762 -0.9049
13896TIP3    H263180   6.521   2.760   6.742 -1.5635  1.4802 -0.1874
13897TIP3   OH263181   4.363   0.411   4.324  0.6449 -1.4170 -0.7134
13897TIP3    H163182   4.293   0.447   4.268  1.7585 -1.1395 -1.9505
13897TIP3    H263183   4.377   0.323   4.290 -0.5090 -2.2312  0.8607
13898TIP3   OH263184   4.383   0.717   0.344  0.2450  0.3084 -0.5815
13898TIP3    H163185   4.376   0.634   0.297 -1.4832  1.3066 -2.1563
13898TIP3    H263186   4.307   0.717   0.403 -0.0189  0.9560 -0.9148
13899TIP3   OH263187   2.859   6.034  11.889 -0.2831 -0.3259 -0.6204
13899TIP3    H163188   2.772   6.042  11.929 -0.2073  0.9080 -0.6790
13899TIP3    H263189   2.874   6.119  11.847  0.1426 -1.1916 -2.2491
13900TIP3   OH263190   3.576   3.854  13.167  0.1535  0.3450  0.3167
13900TIP3    H163191   3.641   3.879  13.233  1.6817 -0.1024 -0.9993
13900TIP3    H263192   3.622   3.861  13.083 -0.7536 -2.3730 -0.4680
13901TIP3   OH263193   3.113   6.323  13.886 -0.4898  0.1034 -0.5938
13901TIP3    H163194   3.065   6.405  13.891  0.8344  0.7791  1.5953
13901TIP3    H263195   3.200   6.347  13.853 -0.3070 -0.5122 -0.5804
13902TIP3   OH263196   4.244   4.004  13.954 -0.2574  0.2070 -0.0489
13902TIP3    H163197   4.285   3.963  13.878  0.2172  1.1046 -0.2832
13902TIP3    H263198   4.262   3.943  14.026  1.2248  0.4212 -0.2110
13903TIP3   OH263199   2.675   5.384  11.811 -0.0423 -0.4669 -0.3176
13903TIP3    H163200   2.761   5.407  11.775 -0.1286 -0.2688 -0.3949
13903TIP3    H263201   2.613   5.408  11.743 -0.2391  0.3218  0.1377
13904TIP3   OH263202   1.781   2.986  14.994  0.4846  0.1436  0.0042
13904TIP3    H163203   1.708   2.934  15.026 -0.0338  1.0823  0.3605
13904TIP3    H263204   1.859   2.938  15.023  0.0209 -0.0327  0.9841
13905TIP3   OH263205   1.624   4.239  14.368  0.8850  0.3730  0.5657
13905TIP3    H163206   1.621   4.233  14.273  0.0494  0.1232  0.6066
13905TIP3    H263207   1.568   4.169  14.399 -1.8830  2.7480  1.1752
13906TIP3   OH263208   0.017   0.787   3.652 -0.1796 -0.2478  0.2589
13906TIP3    H163209  -0.050   0.728   3.687  0.1642 -0.3702  0.7212
13906TIP3    H263210   0.083   0.791   3.721 -0.4469  1.0928  0.4449
13907TIP3   OH263211   4.336   1.515  11.648 -1.1874  0.4478 -0.2910
13907TIP3    H163212   4.424   1.552  11.656 -0.7939 -0.2317 -1.3855
13907TIP3    H263213   4.311   1.495  11.738  0.7905 -1.6935 -0.1779
13908TIP3   OH263214   6.184   0.738  14.840 -0.4692 -0.2032  0.1068
13908TIP3    H163215   6.280   0.739  14.831 -0.5772  0.5480 -1.0353
13908TIP3    H263216   6.169   0.724  14.934  0.8107  2.4865  0.7877
13909TIP3   OH263217   3.152   5.526   0.104 -0.3442 -0.3750  0.3037
13909TIP3    H163218   3.153   5.613   0.143  0.1759 -0.8727  1.4194
13909TIP3    H263219   3.070   5.488   0.132 -0.0915 -0.6357  0.6853
13910TIP3   OH263220   0.389   5.223   3.956 -0.0694  0.9353 -0.3707
13910TIP3    H163221   0.358   5.297   4.007  2.3487  0.6240  1.6404
13910TIP3    H263222   0.393   5.150   4.019 -0.8724 -0.4874 -1.9338
13911TIP3   OH263223   0.821   6.397  15.139 -0.0953 -0.2128 -0.4206
13911TIP3    H163224   0.844   6.479  15.097  0.7622  0.2375  0.8821
13911TIP3    H263225   0.903   6.348  15.143 -0.4777 -0.8778 -0.6535
13912TIP3   OH263226   3.684   0.562  14.352 -0.0805  0.0851 -0.0220
13912TIP3    H163227   3.644   0.601  14.430  1.6574  0.0493  0.9252
13912TIP3    H263228   3.622   0.580  14.281 -2.1300 -0.6922  1.5292
13913TIP3   OH263229   0.607   6.226   5.961 -0.6085 -0.0521  0.0594
13913TIP3    H163230   0.550   6.163   6.005 -1.5633  0.7813  0.0448
13913TIP3    H263231   0.582   6.219   5.868 -2.2523  1.8729  0.3307
13914TIP3   OH263232   5.387   2.322   4.154 -0.2477 -0.5776  0.1459
13914TIP3    H163233   5.331   2.333   4.231 -0.4060  0.6327 -0.1359
13914TIP3    H263234   5.339   2.366   4.084  1.9566  2.2672  0.3275
13915TIP3   OH263235   5.872   3.711  13.325  0.2098 -0.3008  0.0469
13915TIP3    H163236   5.798   3.767  13.350  0.1720 -0.0306 -0.6362
13915TIP3    H263237   5.932   3.716  13.399 -0.8079 -1.1520  0.9418
13916TIP3   OH263238   4.867   1.188  16.068 -0.7190 -0.6406 -0.2299
13916TIP3    H163239   4.895   1.275  16.041 -1.2762 -0.4458 -0.1764
13916TIP3    H263240   4.916   1.128  16.012  0.1187 -0.3116  0.1476
13917TIP3   OH263241   5.333   2.524  12.889  0.9999  0.0300 -0.2629
13917TIP3    H163242   5.362   2.611  12.859  3.6973 -0.6397  0.2341
13917TIP3    H263243   5.342   2.528  12.984 -1.0464 -0.0752 -0.0581
13918TIP3   OH263244   0.285   2.399   3.684  0.6806 -0.5144  0.5888
13918TIP3    H163245   0.377   2.421   3.700  0.4098 -0.0536  1.5420
13918TIP3    H263246   0.282   2.304   3.691  1.1424 -0.5594  0.2459
13919TIP3   OH263247   3.723   5.944   0.785 -0.0333  0.0798 -0.0416
13919TIP3    H163248   3.805   5.898   0.766 -0.3575 -0.9146  0.9344
13919TIP3    H263249   3.747   6.011   0.850 -0.1003 -0.6234  0.7193
13920TIP3   OH263250   0.862   6.614  16.652 -0.1652 -0.1267  0.1054
13920TIP3    H163251   0.784   6.642  16.604  0.6748  2.4065  0.1565
13920TIP3    H263252   0.832   6.605  16.743 -0.2954  1.2788  0.2058
13921TIP3   OH263253   2.170   1.701  12.095  0.0422  0.2433 -0.0814
13921TIP3    H163254   2.130   1.737  12.016 -1.7244  1.7995  1.4764
13921TIP3    H263255   2.124   1.618  12.110  1.6381 -0.9560 -1.6732
13922TIP3   OH263256   3.574   0.785  16.241  0.0293  0.1973  0.5565
13922TIP3    H163257   3.513   0.859  16.237  0.8709  0.8409 -0.8490
13922TIP3    H263258   3.613   0.781  16.154  0.8378 -1.1958  0.9617
13923TIP3   OH263259   5.864   3.891   2.021 -0.1997  0.1361 -0.3781
13923TIP3    H163260   5.786   3.922   2.067 -1.0081  0.5863 -1.9862
13923TIP3    H263261   5.918   3.970   2.010 -0.6018  0.2963 -1.2965
13924TIP3   OH263262   6.690   0.406   3.236  0.4512  0.0982 -0.2400
13924TIP3    H163263   6.633   0.434   3.164 -0.2101 -1.3951 -0.3105
13924TIP3    H263264   6.763   0.362   3.193 -0.3082 -1.4474  0.0062
13925TIP3   OH263265   0.972   6.360   3.383  0.5441 -0.3771  0.1925
13925TIP3    H163266   1.053   6.325   3.345  0.7133  1.0539 -0.7644
13925TIP3    H263267   0.902   6.310   3.341  0.8956 -1.4015  0.7942
13926TIP3   OH263268   4.940   1.369   3.809  0.5025 -0.0663  1.0356
13926TIP3    H163269   4.937   1.343   3.901  3.0447  0.0579  1.1929
13926TIP3    H263270   4.894   1.453   3.806 -0.6292 -0.6374  1.9647
13927TIP3   OH263271   3.892   3.506  11.738 -0.0488 -0.2430 -0.2900
13927TIP3    H163272   3.956   3.521  11.808 -1.1854  1.0122  0.4941
13927TIP3    H263273   3.940   3.456  11.672  1.5669  0.1544  0.5659
13928TIP3   OH263274   5.954   3.331  12.025  0.0744 -0.2313  0.2832
13928TIP3    H163275   5.938   3.332  11.930  0.0604 -0.0837  0.2870
13928TIP3    H263276   5.914   3.250  12.055 -1.8374  0.7633  0.4896
13929TIP3   OH263277   1.950   1.751   5.142 -0.4980  0.3642  0.0477
13929TIP3    H163278   1.858   1.774   5.128 -0.5218  0.5604  0.5235
13929TIP3    H263279   1.978   1.805   5.215 -0.0887  0.0786  0.1061
13930TIP3   OH263280   2.283   3.642  11.951 -0.1879  0.1635  0.1264
13930TIP3    H163281   2.309   3.698  11.877  1.9732 -0.7560  0.1462
13930TIP3    H263282   2.190   3.623  11.935  0.1040  0.3973 -2.0800
13931TIP3   OH263283   1.963   0.786  13.960 -0.4173 -0.2565 -0.2013
13931TIP3    H163284   1.959   0.707  14.014 -1.4923 -0.1470 -0.1225
13931TIP3    H263285   1.989   0.754  13.874 -0.8782 -0.6971 -0.1774
13932TIP3   OH263286   5.628   3.900   0.241  0.1247  0.7921  0.5919
13932TIP3    H163287   5.592   3.985   0.216  1.2947  1.1048 -0.0408
13932TIP3    H263288   5.695   3.882   0.176  1.0488  0.1668  1.6990
13933TIP3   OH263289   4.240   2.219  13.174  0.4128 -0.7876  0.6084
13933TIP3    H163290   4.197   2.138  13.147 -0.6872  0.4469 -1.4538
13933TIP3    H263291   4.189   2.249  13.250 -1.7355  0.0766 -1.1300
13934TIP3   OH263292   1.075   1.488  14.458 -0.1157  0.6965 -0.4679
13934TIP3    H163293   1.019   1.418  14.492  0.1692  0.6830 -0.0325
13934TIP3    H263294   1.036   1.509  14.373 -0.2976  0.1170 -0.5363
13935TIP3   OH263295   0.372   2.107   5.489  0.1531  0.2785  0.3535
13935TIP3    H163296   0.392   2.058   5.569  0.2461  0.5393  0.4878
13935TIP3    H263297   0.453   2.102   5.437  0.6855  1.5950  1.0273
13936TIP3   OH263298   1.151   3.362  13.805  0.1960 -0.1804 -0.1362
13936TIP3    H163299   1.163   3.441  13.858  0.5697 -0.0420 -0.4221
13936TIP3    H263300   1.217   3.369  13.735  1.0142 -1.3161  0.5038
13937TIP3   OH263301   0.245   0.884   1.528  0.1729 -0.0529 -0.0338
13937TIP3    H163302   0.170   0.877   1.587  1.2226 -1.9616  1.1393
13937TIP3    H263303   0.301   0.950   1.569 -0.0949  0.1795 -0.0393
13938TIP3   OH263304   3.648   5.373   2.343  0.7397 -0.1057  0.0730
13938TIP3    H163305   3.672   5.283   2.321 -1.8603 -0.4474 -1.5620
13938TIP3    H263306   3.728   5.424   2.330  1.5713 -1.7841 -1.4488
13939TIP3   OH263307   6.500   2.587   0.924  0.1837 -0.1737 -0.0991
13939TIP3    H163308   6.536   2.499   0.925 -0.7923 -0.5877  1.0851
13939TIP3    H263309   6.438   2.588   0.997 -2.8984  0.1848 -2.6043
13940TIP3   OH263310   0.953   0.212  13.196 -0.2517  0.3883 -0.2500
13940TIP3    H163311   0.930   0.241  13.284 -1.3909  0.0043 -0.4087
13940TIP3    H263312   1.046   0.233  13.187 -0.3026  1.0901  0.7774
13941TIP3   OH263313   0.896   0.747  15.455 -0.0476  0.3937  0.4169
13941TIP3    H163314   0.987   0.767  15.476 -0.4428  0.9212  1.6971
13941TIP3    H263315   0.877   0.799  15.377  0.8337  0.0542 -0.0287
13942TIP3   OH263316   5.615   3.810  14.277 -0.4634  0.9961  0.3043
13942TIP3    H163317   5.589   3.815  14.369 -2.5085  0.3683 -0.2043
13942TIP3    H263318   5.551   3.865  14.231  0.4939  1.2427 -0.7546
13943TIP3   OH263319   5.427   1.810   3.805 -0.4964 -0.5423  0.3972
13943TIP3    H163320   5.381   1.891   3.785  0.4237  0.3097  1.6965
13943TIP3    H263321   5.464   1.823   3.892  0.3818 -2.0342  0.2757
13944TIP3   OH263322   4.929   5.687  16.994 -0.0211  0.2474 -0.0703
13944TIP3    H163323   4.998   5.742  16.958 -1.3651  1.8831 -0.2309
13944TIP3    H263324   4.909   5.625  16.924  1.2968 -0.2687 -0.0009
13945TIP3   OH263325   5.768   5.615   1.699 -0.1093  0.7387  0.3038
13945TIP3    H163326   5.715   5.611   1.778  0.8946  2.1766  1.0897
13945TIP3    H263327   5.708   5.643   1.630 -0.6554  1.0384  0.9009
13946TIP3   OH263328   5.734   0.328  10.974  0.0002  0.3767 -0.3983
13946TIP3    H163329   5.755   0.417  10.947  2.9342 -0.1198  0.0733
13946TIP3    H263330   5.657   0.337  11.030 -0.7720  2.3901 -1.7108
13947TIP3   OH263331   4.550   0.068  10.977  0.4111 -0.5132 -0.1678
13947TIP3    H163332   4.518   0.007  10.910  0.9740 -1.4221  0.3766
13947TIP3    H263333   4.620   0.117  10.933  1.6841 -2.0270  0.1249
13948TIP3   OH263334   3.710   3.610  15.507 -0.4273 -0.2167 -0.5351
13948TIP3    H163335   3.679   3.531  15.463 -0.0391 -0.9936  0.5628
13948TIP3    H263336   3.800   3.590  15.533  0.2880  1.2429 -1.8056
13949TIP3   OH263337   3.628   1.826  12.616  0.3553 -0.1221  0.1935
13949TIP3    H163338   3.617   1.883  12.691  1.7306  0.0774  0.2493
13949TIP3    H263339   3.710   1.780  12.632 -1.3881 -3.1593  0.8234
13950TIP3   OH263340   2.728   1.201   2.302 -0.6280 -0.1403  0.5895
13950TIP3    H163341   2.652   1.241   2.259 -0.0248  0.7418  0.3285
13950TIP3    H263342   2.757   1.267   2.365  1.0395  0.2984 -0.6077
13951TIP3   OH263343   4.441   2.919  16.018 -0.1690 -0.3916 -0.4197
13951TIP3    H163344   4.514   2.885  16.069 -1.0444 -1.4503  0.1516
13951TIP3    H263345   4.466   2.902  15.927  0.6554 -0.0024 -0.2714
13952TIP3   OH263346   2.841   1.038   3.748 -0.2996 -0.2179  0.1577
13952TIP3    H163347   2.809   0.948   3.741 -0.2594 -0.2642  0.6076
13952TIP3    H263348   2.934   1.030   3.765 -0.8670 -0.1492  3.6635
13953TIP3   OH263349   2.318   1.052  11.584  0.3481  0.0888  0.1610
13953TIP3    H163350   2.285   1.101  11.660  0.3285  0.9243 -0.3869
13953TIP3    H263351   2.289   0.962  11.600 -1.5039  0.6428  0.1184
13954TIP3   OH263352   4.145   3.961   1.517  0.0565 -0.5445  0.9068
13954TIP3    H163353   4.056   3.996   1.526  0.0021 -1.2320  3.2158
13954TIP3    H263354   4.200   4.020   1.567  0.6071 -1.2791  1.1718
13955TIP3   OH263355   2.140   2.260   0.572  0.4526 -0.1344 -1.1082
13955TIP3    H163356   2.221   2.244   0.620  0.5773  0.6462 -1.0365
13955TIP3    H263357   2.166   2.322   0.503  0.2520 -1.1395 -2.0950
13956TIP3   OH263358   6.589   0.244   3.787 -0.8788  0.0908  0.4610
13956TIP3    H163359   6.674   0.274   3.755 -1.4535  1.3984  0.1318
13956TIP3    H263360   6.531   0.318   3.775 -1.9728 -0.6346  1.1245
13957TIP3   OH263361   0.998   1.447  17.049 -0.1145  0.5080 -0.4520
13957TIP3    H163362   0.950   1.520  17.088  1.2292  1.8123 -1.2288
13957TIP3    H263363   1.084   1.450  17.091 -0.3845 -1.3079  0.3113
13958TIP3   OH263364   5.145   2.932  16.035 -0.3252 -0.1349  0.4341
13958TIP3    H163365   5.094   2.992  16.089  2.5354  1.2421  1.7342
13958TIP3    H263366   5.210   2.988  15.992  0.7292 -1.9409 -0.4094
13959TIP3   OH263367   6.522   4.754  13.718  0.7282  0.1246  0.2176
13959TIP3    H163368   6.543   4.662  13.735  0.6892  0.2127  0.7811
13959TIP3    H263369   6.477   4.754  13.634 -0.0571 -0.4730  0.6359
13960TIP3   OH263370   5.625   2.573   4.320  0.0607  0.3334  0.3398
13960TIP3    H163371   5.653   2.545   4.407  1.0017  0.5194  0.0986
13960TIP3    H263372   5.652   2.502   4.262 -1.8762 -0.4847  0.3786
13961TIP3   OH263373   6.192   5.187   0.865 -0.2997 -0.0665  0.4173
13961TIP3    H163374   6.285   5.162   0.857 -0.3723 -0.5125  0.9355
13961TIP3    H263375   6.165   5.206   0.775 -0.3109 -2.1307 -0.0434
13962TIP3   OH263376   6.367   6.025   1.698 -0.1619  0.0840  0.4251
13962TIP3    H163377   6.385   6.109   1.656 -2.0989  0.7095  0.8176
13962TIP3    H263378   6.335   5.969   1.628  1.7572 -0.5523  0.0321
13963TIP3   OH263379   2.533   3.929  15.079  0.0136  0.5601 -0.0025
13963TIP3    H163380   2.586   3.869  15.026 -1.1167  0.7356 -1.3835
13963TIP3    H263381   2.444   3.915  15.046 -0.9750 -0.5180  2.9880
13964TIP3   OH263382   1.566   6.412  12.729 -0.3796  0.0748  0.2191
13964TIP3    H163383   1.633   6.475  12.703 -1.4920  0.9047 -0.6799
13964TIP3    H263384   1.611   6.328  12.728  0.1695  0.3485 -2.3333
13965TIP3   OH263385   1.308   0.087  14.453 -0.0774 -0.5635 -0.4500
13965TIP3    H163386   1.340  -0.002  14.470 -1.0295 -0.7957  0.1228
13965TIP3    H263387   1.248   0.105  14.524  0.0244  0.5073 -0.6307
13966TIP3   OH263388   1.336   3.466  15.031 -0.2203  0.2913  0.2161
13966TIP3    H163389   1.254   3.501  15.067  0.0431  0.7353  0.3968
13966TIP3    H263390   1.313   3.379  14.999 -1.0867  0.9317 -0.9716
13967TIP3   OH263391   0.811   5.013   0.146  0.7874 -0.4995 -0.0722
13967TIP3    H163392   0.899   5.050   0.146 -0.0528  1.5581 -1.2428
13967TIP3    H263393   0.801   4.973   0.059  1.1254 -2.1648  0.6296
13968TIP3   OH263394   3.963   1.090  13.389 -0.3969  0.1992  0.2834
13968TIP3    H163395   3.979   1.060  13.300 -1.0611 -1.3853  0.6759
13968TIP3    H263396   3.960   1.010  13.442 -1.3395  1.0030  1.5086
13969TIP3   OH263397   4.171   4.266  16.517  0.4859  0.3378  0.3589
13969TIP3    H163398   4.163   4.354  16.480  0.1778 -0.6367 -1.9610
13969TIP3    H263399   4.247   4.272  16.576  1.4805  1.7526 -1.0188
13970TIP3   OH263400   6.549   1.797   4.815 -0.0705  0.0748 -0.2921
13970TIP3    H163401   6.611   1.739   4.771  0.3326 -0.9733  1.5921
13970TIP3    H263402   6.597   1.878   4.829  0.2958 -0.1127 -0.4582
13971TIP3   OH263403   2.213   4.420  11.908 -0.8099 -0.3591 -0.4351
13971TIP3    H163404   2.157   4.344  11.889 -2.6350  1.2917 -1.7654
13971TIP3    H263405   2.177   4.491  11.855  0.2441  1.7343  1.5718
13972TIP3   OH263406   5.403   6.220  13.090 -0.3577 -0.6569 -0.2996
13972TIP3    H163407   5.331   6.171  13.051 -0.0486  0.0540 -1.8227
13972TIP3    H263408   5.423   6.288  13.025  1.3830 -0.5727  0.2979
13973TIP3   OH263409   2.549   0.951  12.238 -0.2652  0.3451 -0.5689
13973TIP3    H163410   2.560   0.984  12.149  0.8713  1.4791 -0.0180
13973TIP3    H263411   2.486   0.879  12.229 -0.1742  0.4592 -2.2751
13974TIP3   OH263412   1.155   5.297  14.261  0.4373 -0.2554 -0.3272
13974TIP3    H163413   1.086   5.350  14.221  0.0806  0.4021  1.1335
13974TIP3    H263414   1.235   5.349  14.252  0.5639 -0.5739 -1.1095
13975TIP3   OH263415   4.143   0.798   0.165 -0.4260  0.7938  0.2828
13975TIP3    H163416   4.178   0.887   0.168 -0.7294  1.0304 -1.9030
13975TIP3    H263417   4.215   0.744   0.198 -0.6037  1.9086  2.5915
13976TIP3   OH263418   1.692   4.326  13.331  0.3618  0.2053 -0.7610
13976TIP3    H163419   1.657   4.394  13.273  2.2898 -0.3238 -2.5775
13976TIP3    H263420   1.731   4.262  13.272  3.8283  0.4464  1.1430
13977TIP3   OH263421   1.712   1.002  16.526  0.4703  0.0154 -0.1416
13977TIP3    H163422   1.671   1.082  16.557 -1.5273 -1.1890  0.4087
13977TIP3    H263423   1.709   0.942  16.600  3.6144  0.0017  0.0326
13978TIP3   OH263424   2.993   2.435   4.121  0.5778 -0.0156 -0.2001
13978TIP3    H163425   3.077   2.407   4.157  0.1483 -1.5430 -0.3140
13978TIP3    H263426   2.934   2.439   4.196  0.6553  0.6583 -0.1764
13979TIP3   OH263427   0.941   2.480   6.792  0.0086  0.0180  0.4784
13979TIP3    H163428   0.850   2.452   6.806 -0.5731  1.0198 -1.1409
13979TIP3    H263429   0.940   2.574   6.807  1.2127 -0.2620  2.3917
13980TIP3   OH263430   0.554   6.073   1.108 -0.4998 -0.6322 -0.1647
13980TIP3    H163431   0.614   6.007   1.143 -1.0474 -1.0605 -0.0281
13980TIP3    H263432   0.495   6.093   1.181 -1.0352 -0.8099 -0.5512
13981TIP3   OH263433   5.844   1.604  10.762  0.3922  0.4778  0.5128
13981TIP3    H163434   5.801   1.519  10.768  0.1222  0.4283 -1.7457
13981TIP3    H263435   5.816   1.640  10.678  2.3811  1.7734  0.3593
13982TIP3   OH263436   1.315   6.362   0.083  0.2938 -0.0511 -0.3775
13982TIP3    H163437   1.347   6.336   0.169  1.7313  0.9269 -0.5982
13982TIP3    H263438   1.344   6.293   0.024  0.2264 -0.1871 -0.2505
13983TIP3   OH263439   2.354   2.765  10.828  0.1245  0.6386 -0.4199
13983TIP3    H163440   2.266   2.734  10.850  0.5785  0.2366  0.8450
13983TIP3    H263441   2.341   2.857  10.805 -0.5918  0.6674  0.0705
13984TIP3   OH263442   1.402   0.206  13.306  0.6283 -0.2122  0.2359
13984TIP3    H163443   1.427   0.133  13.362  0.0304  0.3896  1.2981
13984TIP3    H263444   1.312   0.227  13.332  0.4211  0.2327 -0.7846
13985TIP3   OH263445   2.347   3.600   0.608  0.6151 -0.9355 -0.0213
13985TIP3    H163446   2.293   3.645   0.673  0.1386 -1.1036 -0.2960
13985TIP3    H263447   2.303   3.516   0.595  1.1679 -1.2385  0.0480
13986TIP3   OH263448   0.844   1.079  17.036 -0.2163 -0.3410  0.1139
13986TIP3    H163449   0.930   1.041  17.021 -0.1265 -0.0366 -0.1495
13986TIP3    H263450   0.842   1.098  17.130 -0.0762 -0.5392  0.1559
13987TIP3   OH263451   4.108   6.661   5.528 -0.5399  0.1503 -0.1566
13987TIP3    H163452   4.037   6.598   5.538 -3.0190  2.7260 -1.0738
13987TIP3    H263453   4.087   6.710   5.449  1.6563  1.7241  0.1639
13988TIP3   OH263454   4.919   2.351  12.898 -0.2230 -0.0689 -0.1904
13988TIP3    H163455   4.960   2.418  12.952  0.1477 -0.4962  0.0684
13988TIP3    H263456   4.953   2.268  12.933  0.7789 -0.3140 -1.7042
13989TIP3   OH263457   0.877   5.558  12.288 -0.3422 -0.4432 -0.6717
13989TIP3    H163458   0.858   5.651  12.290 -1.1393 -0.6164  0.0408
13989TIP3    H263459   0.802   5.518  12.244 -0.0460 -0.7619 -0.8966
13990TIP3   OH263460   6.045   0.259  12.616 -0.3211  0.7230  0.3292
13990TIP3    H163461   6.015   0.280  12.527  2.3342 -2.0081 -1.2882
13990TIP3    H263462   6.036   0.164  12.622  1.7146  0.6274  2.1575
13991TIP3   OH263463   6.541   1.307  15.790 -0.1560 -0.4598  0.5783
13991TIP3    H163464   6.448   1.306  15.767 -0.1455  0.2475  0.4819
13991TIP3    H263465   6.543   1.329  15.883 -0.0983 -0.8254  0.6648
13992TIP3   OH263466   3.611   4.860  12.795  0.1236 -0.0064 -0.2018
13992TIP3    H163467   3.612   4.889  12.886  1.4395  1.1985 -0.5900
13992TIP3    H263468   3.562   4.778  12.797 -0.7935  0.5548  1.4182
13993TIP3   OH263469   3.299   0.582  15.109  0.2796 -0.0349 -0.3140
13993TIP3    H163470   3.230   0.526  15.075  0.4260 -0.2680 -0.2242
13993TIP3    H263471   3.349   0.609  15.032 -0.4153  0.8119 -0.4822
13994TIP3   OH263472   0.541   0.917  12.725  0.2938 -0.3581 -0.7393
13994TIP3    H163473   0.513   1.005  12.751 -0.4892 -0.9758  0.5652
13994TIP3    H263474   0.631   0.910  12.756 -0.1327 -0.5347  0.4989
13995TIP3   OH263475   5.703   0.782  14.626 -0.1726  0.2702 -0.4314
13995TIP3    H163476   5.753   0.847  14.577 -0.2693  1.2393  0.7270
13995TIP3    H263477   5.655   0.733  14.560  0.0435  1.2624 -1.3318
13996TIP3   OH263478   4.532   6.687  12.691 -0.6541  0.5572 -0.1630
13996TIP3    H163479   4.567   6.652  12.609  0.2542  2.0379 -0.4283
13996TIP3    H263480   4.442   6.655  12.695  0.0954 -1.6589 -0.4632
13997TIP3   OH263481   0.682   0.060  12.700  0.3854  0.1402  0.1733
13997TIP3    H163482   0.590   0.082  12.685  0.4266 -0.3079 -0.7574
13997TIP3    H263483   0.680  -0.029  12.734  0.3683  0.7470  1.7924
13998TIP3   OH263484   2.716   4.258  11.924  0.1801  0.3784 -0.6355
13998TIP3    H163485   2.621   4.251  11.924  0.1981 -0.2419  1.2722
13998TIP3    H263486   2.739   4.280  11.834 -1.6334 -1.4743 -1.6008
13999TIP3   OH263487   4.557   1.403  14.639  0.2585 -0.2207 -0.5852
13999TIP3    H163488   4.562   1.460  14.716 -1.8504  0.1114 -0.6592
13999TIP3    H263489   4.512   1.325  14.670  3.1563 -1.9207 -0.4825
14000TIP3   OH263490   3.242   0.368  12.123  0.3132 -0.6045 -0.4462
14000TIP3    H163491   3.325   0.321  12.128  1.0103  0.6567 -0.1848
14000TIP3    H263492   3.197   0.345  12.205  0.7469 -0.6314 -0.2115
14001TIP3   OH263493   0.155   3.804  17.127  0.3282  0.9565  0.6638
14001TIP3    H163494   0.104   3.794  17.046  2.2901  1.4458 -0.6548
14001TIP3    H263495   0.132   3.728  17.179 -0.6675  0.4269 -0.5178
14002TIP3   OH263496   4.117   2.462  16.716  0.1198  0.1337  0.2852
14002TIP3    H163497   4.045   2.521  16.740 -1.5059 -1.9596  0.6314
14002TIP3    H263498   4.110   2.453  16.621  0.0660  0.1063  0.2911
14003TIP3   OH263499   2.671   1.704  12.620  0.3725  0.5971 -0.9501
14003TIP3    H163500   2.587   1.734  12.585  0.2794  1.7428  0.2197
14003TIP3    H263501   2.677   1.612  12.592 -1.3134  0.4709 -0.9563
14004TIP3   OH263502   5.646   6.158  16.528  0.4489 -0.1005  0.0127
14004TIP3    H163503   5.734   6.126  16.504  1.3696  1.0816  1.6906
14004TIP3    H263504   5.628   6.227  16.465  0.3543 -0.8966 -0.8536
14005TIP3   OH263505   6.502   0.002   2.514 -0.1388  0.2889 -0.0421
14005TIP3    H163506   6.449  -0.028   2.588  0.3452 -1.1423 -0.2553
14005TIP3    H263507   6.592  -0.010   2.542  0.0564  1.1925 -0.2857
14006TIP3   OH263508   2.072   3.775   5.181 -0.5356  0.6834 -0.0074
14006TIP3    H163509   2.016   3.706   5.146  0.4908 -0.8369  1.2714
14006TIP3    H263510   2.152   3.770   5.128 -0.7427  1.4093 -0.4019
14007TIP3   OH263511   3.848   4.076   1.616  0.0058  0.3269 -0.4514
14007TIP3    H163512   3.875   4.003   1.560  1.1392 -0.9920  1.7550
14007TIP3    H263513   3.765   4.046   1.655  0.0808  0.5382 -0.1305
14008TIP3   OH263514   2.589   0.894   5.906  0.2854 -0.1094  0.7953
14008TIP3    H163515   2.608   0.843   5.985  1.2878 -0.8491  0.0924
14008TIP3    H263516   2.675   0.922   5.875 -0.2126  1.6214  0.9024
14009TIP3   OH263517   4.977   1.170  12.913 -0.1848  0.1180 -0.7258
14009TIP3    H163518   4.927   1.221  12.850 -0.3202 -0.8175 -1.3827
14009TIP3    H263519   4.963   1.078  12.887  0.6572 -0.2204 -0.0204
14010TIP3   OH263520   6.078   1.520   0.684  0.2123 -0.0297 -0.2474
14010TIP3    H163521   6.086   1.609   0.649  0.8852  0.1207  0.2656
14010TIP3    H263522   6.013   1.526   0.754  0.7739  0.2088  0.2580
14011TIP3   OH263523   3.745   2.581  14.813 -0.1348  0.0893  0.0768
14011TIP3    H163524   3.710   2.643  14.876 -0.2440  0.2939 -0.1895
14011TIP3    H263525   3.774   2.507  14.867  2.9970  1.7031  0.7518
14012TIP3   OH263526   6.668   0.044  14.742  0.4499 -0.4622 -0.2149
14012TIP3    H163527   6.738  -0.020  14.727 -0.1108 -0.9527 -0.7159
14012TIP3    H263528   6.670   0.101  14.665  0.1840 -0.5746 -0.3039
14013TIP3   OH263529   0.849   0.680  16.838 -0.7448  0.3718 -0.3494
14013TIP3    H163530   0.924   0.697  16.781  0.2560 -0.7010  0.6228
14013TIP3    H263531   0.785   0.747  16.813  0.5227  1.3097 -1.1864
14014TIP3   OH263532   4.030   5.711   5.453 -0.1008 -0.5352  0.1527
14014TIP3    H163533   4.029   5.750   5.540  0.0663 -0.3220  0.0607
14014TIP3    H263534   4.015   5.618   5.468 -1.3870 -0.3124  0.3116
14015TIP3   OH263535   5.032   4.631   0.969 -0.1332  0.1962  0.3937
14015TIP3    H163536   5.078   4.631   0.885  1.4210  3.2120  1.1551
14015TIP3    H263537   4.941   4.648   0.947 -0.1172 -1.2309 -0.8148
14016TIP3   OH263538   2.937   5.804  15.581  0.2582  0.4869 -0.2611
14016TIP3    H163539   2.997   5.745  15.536  0.8223  0.4765  0.4945
14016TIP3    H263540   2.927   5.878  15.521  0.5502  0.2129 -0.6522
14017TIP3   OH263541   0.530   1.813  12.823 -0.1951  1.2132  0.3845
14017TIP3    H163542   0.439   1.794  12.799  0.1883  0.6969 -0.6550
14017TIP3    H263543   0.571   1.843  12.742  0.0810  3.2745  1.2634
14018TIP3   OH263544   5.661   4.024  13.442  0.0023 -0.0776 -0.1645
14018TIP3    H163545   5.713   3.964  13.496  0.4332 -0.5988 -1.1394
14018TIP3    H263546   5.618   3.967  13.379  0.7055  0.6675 -1.3364
14019TIP3   OH263547   3.084   4.476  11.715 -0.0328  0.2183 -0.4076
14019TIP3    H163548   3.153   4.412  11.730  0.4935  0.3046 -2.2873
14019TIP3    H263549   3.070   4.518  11.800  0.6249 -1.3730  0.5055
14020TIP3   OH263550   0.344   0.956   1.902 -0.5450  0.3292  0.3465
14020TIP3    H163551   0.364   1.045   1.873 -0.0502 -0.1060 -0.6746
14020TIP3    H263552   0.405   0.901   1.854 -0.1922 -0.4892  1.6996
14021TIP3   OH263553   5.894   5.014   2.124 -0.1596 -0.3275  0.1394
14021TIP3    H163554   5.812   5.048   2.090 -0.0332  0.9925  1.1338
14021TIP3    H263555   5.868   4.952   2.192 -0.3302 -0.3886  0.0206
14022TIP3   OH263556   3.507   3.007  12.131  0.7053 -0.0258 -0.4714
14022TIP3    H163557   3.413   3.025  12.134  0.7520  0.4349 -1.4758
14022TIP3    H263558   3.524   2.952  12.208 -0.1660  0.8640  0.3631
14023TIP3   OH263559   6.537   3.561  14.377 -0.1210 -0.4094  0.3745
14023TIP3    H163560   6.456   3.597  14.415 -0.7411  0.6965 -1.9327
14023TIP3    H263561   6.607   3.600  14.430 -0.9941  0.6497  0.7694
14024TIP3   OH263562   4.679   3.067  16.801  0.0460 -0.8974  0.3662
14024TIP3    H163563   4.717   3.128  16.864 -1.3596  1.0522 -0.5898
14024TIP3    H263564   4.645   3.124  16.731 -1.4012 -2.7738 -0.4994
14025TIP3   OH263565   6.358   2.610  10.996  0.4029  0.4459  0.1792
14025TIP3    H163566   6.343   2.672  10.924 -2.0621 -1.0335 -0.6469
14025TIP3    H263567   6.360   2.525  10.954  1.2272 -0.2605  1.6182
14026TIP3   OH263568   3.034   2.770   2.358  0.2103 -0.1770 -0.8466
14026TIP3    H163569   3.095   2.773   2.432  0.1110 -1.4606 -0.7078
14026TIP3    H263570   3.050   2.686   2.316  0.5817  0.7337 -2.5814
14027TIP3   OH263571   5.716   4.162  17.137  0.0865 -0.4690  0.1147
14027TIP3    H163572   5.623   4.154  17.117 -0.3148 -0.4109  1.8710
14027TIP3    H263573   5.744   4.072  17.156  0.4074 -0.4908 -0.4364
14028TIP3   OH263574   4.303   3.304  12.283  0.1387 -0.0435  0.7817
14028TIP3    H163575   4.355   3.384  12.275 -0.8385  0.4554 -0.8341
14028TIP3    H263576   4.320   3.273  12.372  2.1094  0.8564  0.7481
14029TIP3   OH263577   3.130   5.781  12.825 -0.2849  0.0092 -0.4589
14029TIP3    H163578   3.144   5.872  12.799 -0.2504 -0.5327 -2.3928
14029TIP3    H263579   3.062   5.749  12.765 -1.9299 -0.6119  1.6391
14030TIP3   OH263580   6.138   3.367  16.185  0.0649  0.4073 -0.0946
14030TIP3    H163581   6.181   3.282  16.176 -3.0062 -1.1632 -0.3705
14030TIP3    H263582   6.101   3.367  16.273  0.7911  1.8593  0.2321
14031TIP3   OH263583   5.042   2.679   3.498  0.2114 -0.3639 -0.4541
14031TIP3    H163584   5.004   2.740   3.435 -0.7727  0.7016  1.1690
14031TIP3    H263585   5.118   2.725   3.533  0.9113 -1.0612 -1.0218
14032TIP3   OH263586   4.053   3.851  13.122 -0.1415  0.3865 -0.1358
14032TIP3    H163587   3.985   3.797  13.084 -0.4341  0.7065 -0.0748
14032TIP3    H263588   4.015   3.939  13.125 -0.1727  0.3479  0.9850
14033TIP3   OH263589   5.933   3.969   5.707 -0.2904 -0.6939  0.1093
14033TIP3    H163590   5.902   4.053   5.673  1.2850  0.5666  1.6907
14033TIP3    H263591   5.921   3.975   5.802  2.4188 -1.1001  0.5298
14034TIP3   OH263592   0.693   3.945  15.720 -0.2797  0.2113 -0.6884
14034TIP3    H163593   0.773   3.951  15.666 -0.1716 -0.6672 -0.6311
14034TIP3    H263594   0.631   3.898  15.665 -0.1248 -0.8167  0.0028
14035TIP3   OH263595   5.753   1.186   3.839  1.2555 -0.2214  0.2534
14035TIP3    H163596   5.734   1.193   3.745  1.6971 -2.2220 -0.0052
14035TIP3    H263597   5.790   1.272   3.862  1.5206  0.1534 -1.4910
14036TIP3   OH263598   2.511   3.096   0.338  0.3258  0.0686 -0.2690
14036TIP3    H163599   2.580   3.161   0.350  0.3075  0.1928 -0.8290
14036TIP3    H263600   2.444   3.120   0.403  0.6462  0.1657  0.0249
14037TIP3   OH263601   1.063   5.206   0.139 -0.0919 -0.3637  0.4969
14037TIP3    H163602   1.105   5.274   0.086 -1.6980  0.9933  0.9439
14037TIP3    H263603   1.067   5.238   0.229 -0.6207 -0.9770  0.7463
14038TIP3   OH263604   6.460   5.332   0.769  0.3606  0.5571 -0.4676
14038TIP3    H163605   6.419   5.410   0.732  1.6490  0.6749 -1.6650
14038TIP3    H263606   6.447   5.340   0.863 -0.9031  1.4194 -0.7077
14039TIP3   OH263607   0.345   4.259   1.161 -0.2085  0.1526  0.1477
14039TIP3    H163608   0.350   4.177   1.113 -0.7220  0.5993 -0.6819
14039TIP3    H263609   0.298   4.237   1.242  2.9469 -1.1442  1.6880
14040TIP3   OH263610   5.034   0.078  12.111 -0.0494  0.9658 -0.1614
14040TIP3    H163611   5.093   0.097  12.184 -1.8690  0.1520  1.5692
14040TIP3    H263612   5.044  -0.016  12.096 -0.9519  0.8087  0.1971
14041TIP3   OH263613   4.301   3.774  15.217  0.0967 -0.5492 -0.0590
14041TIP3    H163614   4.265   3.782  15.129 -0.7410 -1.0996  0.2241
14041TIP3    H263615   4.316   3.864  15.246  2.0797 -0.4274 -1.4527
14042TIP3   OH263616   3.769   6.361  11.277 -0.7828  0.3280 -0.6254
14042TIP3    H163617   3.703   6.301  11.241 -1.4142  0.8543 -0.3548
14042TIP3    H263618   3.744   6.372  11.369 -0.6437  0.9720 -0.6636
14043TIP3   OH263619   4.405   0.480  17.108 -0.1881  0.8895 -0.1486
14043TIP3    H163620   4.459   0.469  17.029 -1.1115  0.7280 -0.7703
14043TIP3    H263621   4.466   0.513  17.174  0.9914 -0.6967 -0.4145
14044TIP3   OH263622   1.488   2.463  12.764 -0.0948 -0.1422  0.0499
14044TIP3    H163623   1.579   2.434  12.758 -0.2857 -0.7799  0.1513
14044TIP3    H263624   1.451   2.443  12.678  0.2193  1.3762 -0.4513
14045TIP3   OH263625   5.913   0.989  14.468  0.5966 -0.1300  0.6165
14045TIP3    H163626   5.950   0.940  14.394 -0.6223 -1.0938  0.6315
14045TIP3    H263627   5.890   1.074  14.431  0.9054 -0.2572  0.1197
14046TIP3   OH263628   3.002   1.210  12.365 -0.3686 -0.3049 -0.5798
14046TIP3    H163629   3.074   1.232  12.306  0.2445 -2.1019 -0.5373
14046TIP3    H263630   3.006   1.276  12.434  2.3501 -1.4355  0.3768
14047TIP3   OH263631   4.741   0.251   2.046 -0.1006  0.1660  0.0513
14047TIP3    H163632   4.807   0.306   2.004  0.5043 -0.7481 -0.2155
14047TIP3    H263633   4.743   0.277   2.138 -0.6167  1.3744 -0.2767
14048TIP3   OH263634   1.315   5.968   2.084 -0.1901  1.1230 -0.3527
14048TIP3    H163635   1.364   5.958   2.003 -0.3199 -0.5662 -0.2263
14048TIP3    H263636   1.243   5.906   2.077  0.3260  0.2875  1.4578
14049TIP3   OH263637   2.065   4.915  12.349  0.1504 -0.3254 -0.5954
14049TIP3    H163638   1.975   4.926  12.380  0.6660  0.8335  0.5421
14049TIP3    H263639   2.079   4.989  12.290 -0.2948 -1.6344 -2.3890
14050TIP3   OH263640   3.722   0.484   2.408  0.2034  0.2766 -0.2070
14050TIP3    H163641   3.748   0.410   2.463  0.5042  0.6694  0.1839
14050TIP3    H263642   3.799   0.502   2.353 -0.3746 -0.6391 -1.3479
14051TIP3   OH263643   5.211   2.570  12.485  0.3881 -0.2311 -0.1641
14051TIP3    H163644   5.183   2.521  12.407 -0.1928  2.5650 -1.7761
14051TIP3    H263645   5.155   2.537  12.555  0.0876 -1.9426 -1.1775
14052TIP3   OH263646   4.072   3.194  10.962 -0.2787  0.2074 -0.1413
14052TIP3    H163647   4.033   3.275  10.928 -0.4587 -0.4363 -1.5078
14052TIP3    H263648   4.060   3.131  10.891  0.6554 -0.7799  0.5752
14053TIP3   OH263649   6.188   2.328  10.429 -0.1552  0.0580  0.7683
14053TIP3    H163650   6.258   2.285  10.379 -1.3488 -0.0166 -0.8477
14053TIP3    H263651   6.188   2.282  10.513  0.7571 -0.9266  0.2521
14054TIP3   OH263652   3.058   4.134   4.849  0.1511  0.2610  0.7482
14054TIP3    H163653   3.141   4.178   4.828  0.1176 -0.5924 -1.2442
14054TIP3    H263654   2.992   4.203   4.841  0.1339 -0.0318 -2.0748
14055TIP3   OH263655   6.422   4.122  15.839 -0.6452  0.2810  0.6740
14055TIP3    H163656   6.458   4.077  15.915  0.3717  3.0454  1.9210
14055TIP3    H263657   6.380   4.200  15.875 -0.6180  1.3785 -1.5380
14056TIP3   OH263658   4.555   6.743   4.067 -0.4058  0.1043 -0.1879
14056TIP3    H163659   4.640   6.758   4.108  0.5319 -1.3471 -1.5196
14056TIP3    H263660   4.507   6.690   4.132 -0.0976  0.4599  0.3379
14057TIP3   OH263661   5.672   1.914  16.453  0.0014 -0.0280  0.2303
14057TIP3    H163662   5.696   1.995  16.409  0.7488 -0.4676 -0.1853
14057TIP3    H263663   5.614   1.870  16.391 -1.5407  0.8154  1.0380
14058TIP3   OH263664   4.578   5.978   3.422 -0.0060 -0.3952 -0.1851
14058TIP3    H163665   4.617   5.938   3.345 -0.2375 -0.4719 -0.2615
14058TIP3    H263666   4.622   5.935   3.496  0.3794 -0.1569 -0.2738
14059TIP3   OH263667   3.615   6.177   1.219  0.2036  0.6452  0.1779
14059TIP3    H163668   3.613   6.127   1.300 -1.1205  1.5742  0.7357
14059TIP3    H263669   3.533   6.154   1.174  0.8470  0.2626 -0.8122
14060TIP3   OH263670   1.878   4.481  12.836 -0.0621  0.4359 -0.2524
14060TIP3    H163671   1.881   4.500  12.930 -0.1734 -1.0737  0.0757
14060TIP3    H263672   1.784   4.470  12.817  0.0729 -0.7924 -0.2130
14061TIP3   OH263673   3.308   1.678  16.122  0.0066  0.8325  0.2355
14061TIP3    H163674   3.332   1.710  16.209  0.3980  1.1336  0.0196
14061TIP3    H263675   3.384   1.628  16.093  0.3291  1.6597 -0.3852
14062TIP3   OH263676   3.945   6.395  14.672 -0.3243 -0.2334 -0.0076
14062TIP3    H163677   3.888   6.360  14.605 -1.3051 -0.9839  1.1901
14062TIP3    H263678   3.904   6.369  14.755  0.9784  0.4529  0.8820
14063TIP3   OH263679   0.565   2.444   3.792 -0.0730 -0.1424 -0.8011
14063TIP3    H163680   0.600   2.363   3.828 -1.0034 -0.1620  0.1049
14063TIP3    H263681   0.638   2.505   3.793  0.2721 -0.5579 -0.1395
14064TIP3   OH263682   3.541   6.127  12.745  0.8538 -0.1163  0.2439
14064TIP3    H163683   3.534   6.087  12.658  1.6667 -0.8646  0.5049
14064TIP3    H263684   3.601   6.200  12.733  0.2450  0.3344 -0.0152
14065TIP3   OH263685   2.526   4.506   2.760  0.1952  0.5690 -0.4826
14065TIP3    H163686   2.462   4.571   2.733  0.0440  1.0862  1.0740
14065TIP3    H263687   2.487   4.463   2.836 -0.2213 -2.1684 -2.1624
14066TIP3   OH263688   0.146   1.557  17.038 -0.3755  0.4208 -0.6739
14066TIP3    H163689   0.126   1.491  16.970  1.2095  1.3159 -2.0568
14066TIP3    H263690   0.213   1.515  17.092 -1.1376 -0.0250 -0.0610
14067TIP3   OH263691   0.056   1.170   1.159  0.0723 -0.2635  0.3914
14067TIP3    H163692   0.091   1.086   1.190 -0.3713 -0.8380 -0.6152
14067TIP3    H263693   0.096   1.236   1.216  0.6216 -1.1378  1.0329
14068TIP3   OH263694   3.510   4.378   5.184 -0.1873  0.0544  0.3732
14068TIP3    H163695   3.483   4.452   5.129  0.9244  0.0186 -0.2288
14068TIP3    H263696   3.550   4.418   5.261 -1.4043  0.0996  0.9888
14069TIP3   OH263697   5.736   2.232   6.311 -0.6569 -0.2581  0.1971
14069TIP3    H163698   5.695   2.187   6.384  0.4301 -0.9967  0.3699
14069TIP3    H263699   5.760   2.318   6.346 -0.9476 -0.2820  0.4512
14070TIP3   OH263700   3.270   4.189   4.366 -0.0644  0.6536 -0.4437
14070TIP3    H163701   3.229   4.104   4.383 -0.1573  0.7883 -0.0034
14070TIP3    H263702   3.198   4.243   4.332 -0.6594  1.4120  1.9472
14071TIP3   OH263703   0.763   1.291   1.288 -0.0769 -0.0506 -0.0433
14071TIP3    H163704   0.798   1.202   1.288 -0.7842 -0.3314  0.2471
14071TIP3    H263705   0.829   1.342   1.242  0.8011 -0.5382  0.6561
14072TIP3   OH263706   1.356   6.215  16.797 -0.0829  0.0044 -0.3033
14072TIP3    H163707   1.441   6.259  16.788 -0.1277 -0.0723 -1.1839
14072TIP3    H263708   1.307   6.241  16.719 -0.2702 -1.2626 -0.6260
14073TIP3   OH263709   1.348   0.299   1.456 -0.7148  0.3492  0.0845
14073TIP3    H163710   1.341   0.372   1.517 -0.5867  0.6081 -0.2095
14073TIP3    H263711   1.342   0.221   1.511  1.1267  0.5745  0.6492
14074TIP3   OH263712   6.767   1.903  12.928 -0.8012 -0.3540  0.3478
14074TIP3    H163713   6.822   1.833  12.963 -0.0750 -0.1067 -0.2752
14074TIP3    H263714   6.829   1.962  12.883 -1.3365  0.9354  1.2651
14075TIP3   OH263715   2.462   0.239  16.019  0.9443  0.1368  0.5769
14075TIP3    H163716   2.531   0.292  16.058  0.1972  1.3599  0.2404
14075TIP3    H263717   2.452   0.274  15.931 -1.4056  1.2324  1.2359
14076TIP3   OH263718   5.318   3.077   5.743 -0.5040  0.1963  0.3397
14076TIP3    H163719   5.302   3.033   5.659  0.0095  0.8915 -0.1335
14076TIP3    H263720   5.255   3.148   5.745 -0.1986  0.4726  0.3149
14077TIP3   OH263721   1.083   4.532  12.395 -0.0712  0.0647  0.1498
14077TIP3    H163722   1.148   4.535  12.325  0.5249  0.7027  0.7194
14077TIP3    H263723   1.080   4.440  12.421 -0.4671 -0.2186 -0.8584
14078TIP3   OH263724   3.887   0.303   2.594 -0.0871  0.2781  0.2793
14078TIP3    H163725   3.941   0.243   2.647 -0.3089  1.3052  1.7061
14078TIP3    H263726   3.854   0.366   2.657 -0.7210  1.2885 -1.0532
14079TIP3   OH263727   0.074   3.394   3.955  0.3273  0.2841  0.0130
14079TIP3    H163728   0.144   3.391   4.020  2.0882 -0.7925 -1.8364
14079TIP3    H263729   0.041   3.304   3.951 -0.1935  0.4821 -0.1076
14080TIP3   OH263730   5.673   3.384  16.554 -0.5808 -0.2229  1.0403
14080TIP3    H163731   5.603   3.444  16.580 -1.4738 -1.0714  0.6044
14080TIP3    H263732   5.641   3.344  16.473 -0.2765 -1.7742  1.6737
14081TIP3   OH263733   4.994   0.316  15.715  0.3923  0.6790 -0.3158
14081TIP3    H163734   5.032   0.392  15.671  3.0486 -0.8520 -0.7648
14081TIP3    H263735   5.027   0.241  15.665  1.2371 -0.9740  2.6200
14082TIP3   OH263736   4.849   2.791  11.727 -0.1038  0.1504 -0.1678
14082TIP3    H163737   4.761   2.765  11.756  0.3242 -2.4243 -1.0615
14082TIP3    H263738   4.842   2.794  11.631  1.3314 -2.3771 -0.4005
14083TIP3   OH263739   1.670   0.825  15.176  0.7448 -0.3925  0.4454
14083TIP3    H163740   1.634   0.905  15.138  0.0536 -1.2731 -0.7991
14083TIP3    H263741   1.613   0.806  15.250  0.0668 -0.4683 -0.0854
14084TIP3   OH263742   3.425   6.478  11.836  0.3630 -0.0300 -0.3094
14084TIP3    H163743   3.509   6.432  11.824  0.1265 -0.8626  1.0510
14084TIP3    H263744   3.389   6.440  11.916  0.3349  2.8351  1.1113
14085TIP3   OH263745   4.977   3.474  12.195  0.3549 -0.3370  0.2289
14085TIP3    H163746   5.069   3.448  12.206  0.5007 -0.3189 -0.9203
14085TIP3    H263747   4.963   3.474  12.101 -0.7339  0.0155  0.3849
14086TIP3   OH263748   2.472   0.902   4.747 -0.0503 -0.3872 -0.8117
14086TIP3    H163749   2.459   0.810   4.769 -0.7510 -0.1482 -0.2060
14086TIP3    H263750   2.557   0.924   4.785  0.1805 -0.8191 -1.0759
14087TIP3   OH263751   2.760   6.050   5.078  0.1192 -0.4042  0.4291
14087TIP3    H163752   2.851   6.020   5.083  0.1774 -0.0746  1.3193
14087TIP3    H263753   2.767   6.144   5.066 -0.0968 -0.5115 -0.6434
14088TIP3   OH263754   2.477   1.260   6.123 -0.0858 -0.2326 -0.0335
14088TIP3    H163755   2.506   1.253   6.032  0.2262  0.5869 -0.0011
14088TIP3    H263756   2.381   1.261   6.118 -0.0915 -1.6032 -0.2414
14089TIP3   OH263757   0.346   6.505  13.215 -0.5571 -0.4523 -0.3514
14089TIP3    H163758   0.320   6.511  13.123  0.7189 -0.4082 -0.7169
14089TIP3    H263759   0.276   6.549  13.263 -1.6304 -1.1797 -1.2279
14090TIP3   OH263760   1.579   3.041  16.573 -0.5363 -0.1371 -0.0059
14090TIP3    H163761   1.571   3.086  16.657  2.5081 -0.9078  0.7757
14090TIP3    H263762   1.614   3.108  16.514 -0.9109 -0.0951 -0.1820
14091TIP3   OH263763   4.493   0.106  16.802 -0.3703 -0.4043  0.0309
14091TIP3    H163764   4.425   0.115  16.869  0.2022 -0.0305  0.5690
14091TIP3    H263765   4.557   0.045  16.840 -0.0861 -0.2563 -0.2025
14092TIP3   OH263766   5.547   3.483   5.080  0.0072 -0.3625  0.2051
14092TIP3    H163767   5.571   3.428   5.005  1.2555  0.2663  0.1450
14092TIP3    H263768   5.453   3.468   5.090  0.3994 -2.9204  0.4958
14093TIP3   OH263769   5.751   6.742   1.912 -0.6234  0.3531  0.4270
14093TIP3    H163770   5.796   6.792   1.980  3.5675 -0.5524 -1.5497
14093TIP3    H263771   5.753   6.652   1.944 -0.5727  0.2208  0.0436
14094TIP3   OH263772   6.085   2.714   4.571 -0.2194 -0.4418  0.2503
14094TIP3    H163773   6.143   2.745   4.501 -0.1802  1.8038  1.2465
14094TIP3    H263774   5.997   2.738   4.542 -0.3965 -1.3212  0.0469
14095TIP3   OH263775   4.597   5.923  15.540 -0.1301 -0.1014 -0.2960
14095TIP3    H163776   4.553   6.006  15.559 -0.3732 -0.5375  1.1861
14095TIP3    H263777   4.599   5.878  15.625  2.3667 -0.4842 -0.5130
14096TIP3   OH263778   2.902   1.275   1.193  0.1201  0.3583 -0.0784
14096TIP3    H163779   2.836   1.218   1.153  1.7335 -1.9249  0.4552
14096TIP3    H263780   2.967   1.289   1.125  0.8524 -0.2730  0.4830
14097TIP3   OH263781   2.633   6.366  13.523  0.1897 -0.5372 -0.1276
14097TIP3    H163782   2.678   6.290  13.561  1.7776  0.6064  0.3687
14097TIP3    H263783   2.543   6.359  13.554  0.8949 -0.9103  1.9471
14098TIP3   OH263784   2.352   2.618   2.048  0.3898 -0.1589 -0.3000
14098TIP3    H163785   2.266   2.635   2.009  0.2647  1.9279  0.8229
14098TIP3    H263786   2.407   2.596   1.974 -0.8406 -0.3732 -1.1769
14099TIP3   OH263787   1.254   4.738  11.742  0.1661 -0.6351 -0.1034
14099TIP3    H163788   1.180   4.798  11.742  0.1870 -0.6101 -0.2423
14099TIP3    H263789   1.309   4.767  11.669  0.1691 -0.8318 -0.1801
14100TIP3   OH263790   3.757   4.483  13.281 -0.2521  0.3376 -0.0689
14100TIP3    H163791   3.746   4.551  13.215 -1.6287 -0.9600 -1.2138
14100TIP3    H263792   3.852   4.475  13.292 -0.0159  0.7281 -1.7393
14101TIP3   OH263793   0.750   4.629  11.139 -0.6863 -0.5382 -0.4275
14101TIP3    H163794   0.821   4.645  11.201 -0.5561 -1.0708 -0.4393
14101TIP3    H263795   0.724   4.538  11.155 -1.5762 -0.2561 -0.1994
14102TIP3   OH263796   4.300   6.391  11.978 -0.1727  0.0437 -0.7578
14102TIP3    H163797   4.366   6.328  12.007 -0.1939 -0.4630 -1.7926
14102TIP3    H263798   4.224   6.373  12.034  0.2727  0.0698 -0.1307
14103TIP3   OH263799   5.959   4.182  11.945 -0.0280 -0.2104  0.1015
14103TIP3    H163800   6.015   4.105  11.950 -0.5952 -0.5648  1.2021
14103TIP3    H263801   5.872   4.151  11.969 -0.4045  0.6278 -0.1461
14104TIP3   OH263802   4.516   0.222  11.972 -0.1691 -0.0633 -0.8592
14104TIP3    H163803   4.471   0.148  12.011  0.4592  0.2588  0.4978
14104TIP3    H263804   4.607   0.212  12.000  0.1158  0.6570 -1.5115
14105TIP3   OH263805   0.967   0.032   0.871 -0.5147  0.3017  0.4285
14105TIP3    H163806   0.946  -0.050   0.915  0.2352 -0.6340 -0.9387
14105TIP3    H263807   0.890   0.088   0.886 -1.4076 -0.9542  0.5783
14106TIP3   OH263808   3.237   2.245  17.240  0.2754  0.0088  0.0539
14106TIP3    H163809   3.317   2.220  17.287  0.8553  0.2998 -0.7898
14106TIP3    H263810   3.232   2.340  17.250 -0.6943 -0.1483  1.2561
14107TIP3   OH263811   5.142   3.953  14.005  0.2867 -0.5358 -0.3874
14107TIP3    H163812   5.208   3.938  14.073  0.2424  2.4170  0.3736
14107TIP3    H263813   5.190   3.944  13.922  2.1269  3.1572  0.1580
14108TIP3   OH263814   3.146   6.727   0.100 -0.2912 -0.0220  0.3023
14108TIP3    H163815   3.214   6.701   0.162  1.2693  1.3846 -0.7816
14108TIP3    H263816   3.085   6.780   0.152 -0.2477 -0.7644  1.1306
14109TIP3   OH263817   4.225   1.632  10.984 -0.1974 -0.2007 -0.0165
14109TIP3    H163818   4.206   1.680  10.904  1.0572 -1.1876 -0.9159
14109TIP3    H263819   4.320   1.633  10.992 -0.1639 -2.1512  0.1644
14110TIP3   OH263820   2.044   2.143   4.918  0.5755  0.0967 -0.3486
14110TIP3    H163821   1.988   2.103   4.852 -1.3633  3.1020 -0.5753
14110TIP3    H263822   2.082   2.219   4.876  2.0990  0.0715  0.9263
14111TIP3   OH263823   1.687   3.751   2.432  0.2944  0.3956 -0.2278
14111TIP3    H163824   1.782   3.750   2.442  0.3772  0.8990 -0.8845
14111TIP3    H263825   1.653   3.738   2.520  0.9740  0.5485  0.0606
14112TIP3   OH263826   4.507   6.255   4.247  0.2095  0.2890  0.6860
14112TIP3    H163827   4.493   6.327   4.308 -0.0267  2.4183 -1.7857
14112TIP3    H263828   4.603   6.250   4.237  0.2369  0.0840  1.0429
14113TIP3   OH263829   4.943   0.548  15.531 -0.7374  0.8311 -0.1245
14113TIP3    H163830   4.914   0.561  15.441  0.1293  0.7050 -0.4265
14113TIP3    H263831   4.887   0.478  15.565 -0.8410  0.6469 -0.6759
14114TIP3   OH263832   1.405   4.705   2.328 -0.7442  0.0184  0.7892
14114TIP3    H163833   1.370   4.628   2.283 -0.7265 -0.8581  2.2526
14114TIP3    H263834   1.358   4.779   2.289  0.8470 -0.5062 -2.2172
14115TIP3   OH263835   4.165   3.437  14.518 -0.0338  0.0548 -0.3119
14115TIP3    H163836   4.080   3.407  14.486 -0.5078  0.8780  0.1685
14115TIP3    H263837   4.145   3.511  14.574  0.9103 -0.4241  0.6801
14116TIP3   OH263838   6.372   0.812  11.736 -0.0100 -0.4501  0.6259
14116TIP3    H163839   6.278   0.825  11.728  0.0673  0.2288  0.7424
14116TIP3    H263840   6.410   0.891  11.699  0.5276 -0.9558  0.0969
14117TIP3   OH263841   1.988   2.004  12.921  0.1031  0.2733  0.0099
14117TIP3    H163842   1.966   1.922  12.965 -2.5612  0.9826  0.0975
14117TIP3    H263843   2.013   1.977  12.832  0.9012 -0.7476  0.5306
14118TIP3   OH263844   4.698   4.931   0.654  0.3061 -0.3199 -0.3396
14118TIP3    H163845   4.676   4.947   0.562 -1.8293  0.3544  0.2582
14118TIP3    H263846   4.614   4.924   0.698  1.2929  0.6292  1.7791
14119TIP3   OH263847   1.522   2.240  16.525  0.0833  0.1150  0.0925
14119TIP3    H163848   1.427   2.232  16.533  0.0692  0.8711  0.7315
14119TIP3    H263849   1.542   2.327  16.561  1.1024 -0.3448  0.6518
14120TIP3   OH263850   2.379   3.841  15.535  0.1665  0.2511  0.6752
14120TIP3    H163851   2.380   3.927  15.577 -1.6101 -0.3022  1.9153
14120TIP3    H263852   2.296   3.837  15.489  0.9622 -0.1760 -0.7586
14121TIP3   OH263853   6.242   0.900   2.086  0.3471 -0.1048 -0.3956
14121TIP3    H163854   6.264   0.822   2.035  0.8821  0.1257 -0.5177
14121TIP3    H263855   6.324   0.950   2.089  0.4543 -0.3623  1.1189
14122TIP3   OH263856   0.706   3.597   3.954 -0.3627 -0.7590  0.1727
14122TIP3    H163857   0.735   3.581   4.044  0.0162 -0.7219  0.0589
14122TIP3    H263858   0.686   3.691   3.952  0.6079 -0.5551 -0.0554
14123TIP3   OH263859   3.229   3.933   4.053  0.4449  0.4532 -0.3951
14123TIP3    H163860   3.173   4.006   4.029  1.1348  0.9292 -0.5662
14123TIP3    H263861   3.211   3.918   4.146  0.4798  0.9995 -0.2986
14124TIP3   OH263862   4.227   6.454  14.895  0.3247  0.6619 -0.0347
14124TIP3    H163863   4.281   6.408  14.831  1.8772  3.6473 -0.9761
14124TIP3    H263864   4.288   6.485  14.962 -0.8810  0.1157  1.3584
14125TIP3   OH263865   3.902   2.124   5.053 -0.2527  0.4162  0.1021
14125TIP3    H163866   3.852   2.205   5.064 -0.2901  0.1149  2.3756
14125TIP3    H263867   3.837   2.054   5.062 -0.2608  0.1141 -2.0808
14126TIP3   OH263868   4.193   6.014  15.212 -0.2579  0.2513  0.2657
14126TIP3    H163869   4.280   5.977  15.226 -0.4664  0.1900  1.4396
14126TIP3    H263870   4.185   6.022  15.117  0.9926  0.1832  0.1519
14127TIP3   OH263871   0.364   5.543   1.151  0.0995  0.2003  0.0623
14127TIP3    H163872   0.369   5.519   1.059 -0.9841  0.6226 -0.1162
14127TIP3    H263873   0.340   5.635   1.151  0.3787  0.2744  0.7639
14128TIP3   OH263874   2.974   1.949  13.030 -0.6043  0.0593 -0.8381
14128TIP3    H163875   3.069   1.956  13.035 -0.5398 -0.4402 -1.3188
14128TIP3    H263876   2.958   1.890  12.956 -1.3385  1.4466 -1.7974
14129TIP3   OH263877   3.114   6.055   5.633  0.2112 -0.7870 -0.0543
14129TIP3    H163878   3.050   5.999   5.588 -0.6617  0.2343 -0.1032
14129TIP3    H263879   3.160   5.995   5.692 -1.7448 -1.2906  0.9974
14130TIP3   OH263880   2.491   6.566  13.128 -0.1159 -0.1659 -0.0687
14130TIP3    H163881   2.578   6.594  13.156 -0.0939 -0.4182  0.1235
14130TIP3    H263882   2.462   6.632  13.066  0.9029 -0.9533 -1.4034
14131TIP3   OH263883   2.662   3.235   4.279 -0.2561 -0.0658 -0.3730
14131TIP3    H163884   2.616   3.286   4.346  0.0245 -2.0966  1.4019
14131TIP3    H263885   2.737   3.291   4.255 -0.0658  0.4848  1.3952
14132TIP3   OH263886   4.819   2.396   2.055 -0.4072  0.2993  0.1655
14132TIP3    H163887   4.772   2.453   1.995  0.4975  1.4726  0.5563
14132TIP3    H263888   4.910   2.398   2.024 -0.3726 -0.9539  0.1607
14133TIP3   OH263889   5.732   5.053   1.081  0.1817  0.0879 -0.5109
14133TIP3    H163890   5.650   5.008   1.063  1.2473 -1.9141 -0.5095
14133TIP3    H263891   5.766   5.077   0.995  0.0156  0.1565 -0.5567
14134TIP3   OH263892   4.593   2.449  15.251  0.0221 -0.0137 -0.7220
14134TIP3    H163893   4.509   2.436  15.207  0.5677 -0.4402 -1.6388
14134TIP3    H263894   4.615   2.362  15.285 -1.4654  0.7336  2.3476
14135TIP3   OH263895   3.350   4.838  15.610  0.2308 -0.1603  0.6745
14135TIP3    H163896   3.350   4.828  15.705  1.7383 -2.0492  0.4980
14135TIP3    H263897   3.368   4.931  15.596  2.4136 -0.3114  2.2225
14136TIP3   OH263898   1.527   3.986  16.630  0.0352 -0.1622 -0.1890
14136TIP3    H163899   1.534   4.081  16.620  1.3006 -0.3755 -1.5060
14136TIP3    H263900   1.570   3.967  16.713  0.5114  0.3199 -0.3285
14137TIP3   OH263901   0.035   5.635  13.084  0.2649 -0.2557 -0.8066
14137TIP3    H163902  -0.021   5.558  13.082 -0.1616  0.0553 -1.0572
14137TIP3    H263903  -0.010   5.697  13.141  1.4730 -0.8346  0.7975
14138TIP3   OH263904   4.435   4.414   0.330 -0.0701 -0.6543 -0.4890
14138TIP3    H163905   4.482   4.332   0.316  1.8970  0.5526 -1.2859
14138TIP3    H263906   4.451   4.435   0.423 -1.7670 -1.8478  0.1014
14139TIP3   OH263907   4.456   5.649   5.711 -0.7483  0.0964  0.3635
14139TIP3    H163908   4.538   5.626   5.667 -1.8406 -1.5820 -0.8467
14139TIP3    H263909   4.483   5.674   5.800  1.2601  1.4250 -0.5718
14140TIP3   OH263910   2.712   1.478  12.480 -0.2879 -0.3398  0.2346
14140TIP3    H163911   2.664   1.421  12.540 -0.4955  0.5870  0.9631
14140TIP3    H263912   2.770   1.419  12.432  0.6811 -0.9560  2.1163
14141TIP3   OH263913   6.104   4.251   1.243 -0.0940 -0.3468 -0.3296
14141TIP3    H163914   6.100   4.326   1.303 -0.9612 -1.3891  0.9395
14141TIP3    H263915   6.137   4.179   1.297  1.3010 -0.7537 -1.6900
14142TIP3   OH263916   2.399   5.795  16.005  0.0759  0.4368 -0.0919
14142TIP3    H163917   2.330   5.785  15.939  0.0015 -0.3204  0.1057
14142TIP3    H263918   2.417   5.889  16.006 -1.6636  0.7713  0.5934
14143TIP3   OH263919   5.824   5.206   4.887  0.5467  0.9533  0.9490
14143TIP3    H163920   5.826   5.259   4.967  0.3088  0.8360  1.0335
14143TIP3    H263921   5.858   5.121   4.915  0.0017  0.7644  1.0359
14144TIP3   OH263922   6.492   1.698   4.547  0.6884  0.3369  0.2106
14144TIP3    H163923   6.482   1.678   4.640  4.1578  0.3689  0.6504
14144TIP3    H263924   6.518   1.790   4.544  0.8656  0.2657 -0.8037
14145TIP3   OH263925   4.233   2.810   2.098  0.1555 -0.2004  0.2326
14145TIP3    H163926   4.244   2.794   2.005  2.3104 -0.5269  0.5234
14145TIP3    H263927   4.146   2.850   2.106 -0.3646 -0.9035 -1.8094
14146TIP3   OH263928   6.724   0.102  11.391  0.2054  1.1429  0.6669
14146TIP3    H163929   6.634   0.095  11.424 -0.0857 -0.3979 -0.4396
14146TIP3    H263930   6.730   0.192  11.359 -1.3113  0.9324 -0.2863
14147TIP3   OH263931   5.252   0.363  11.695  0.1943 -0.0077  0.0345
14147TIP3    H163932   5.193   0.421  11.647  2.8767  3.3835  0.6015
14147TIP3    H263933   5.304   0.319  11.627 -0.4868 -0.2419 -0.3372
14148TIP3   OH263934   4.372   6.568  17.018  0.3383  0.4475  0.5785
14148TIP3    H163935   4.380   6.612  17.102 -0.3249  0.2792  0.7282
14148TIP3    H263936   4.314   6.624  16.967 -1.2713 -0.7091  1.0878
14149TIP3   OH263937   4.778   6.246  12.126 -0.4222  0.5756 -0.0571
14149TIP3    H163938   4.864   6.288  12.127  1.1271 -2.3079 -2.6845
14149TIP3    H263939   4.729   6.292  12.058 -0.1656  0.8243 -0.0720
14150TIP3   OH263940   1.089   1.842   6.020 -0.4184  0.1352  0.5207
14150TIP3    H163941   1.060   1.873   6.105  1.0651  1.5437  0.5501
14150TIP3    H263942   1.086   1.747   6.026 -1.9245  0.2398  1.5647
14151TIP3   OH263943   1.596   3.452   3.811 -0.2833  0.6693  0.2654
14151TIP3    H163944   1.677   3.446   3.760 -0.4546  0.7175 -0.0131
14151TIP3    H263945   1.528   3.469   3.746 -0.8068 -1.3014  0.2831
14152TIP3   OH263946   6.244   5.689   0.337 -0.7564 -0.5162  0.6665
14152TIP3    H163947   6.213   5.776   0.315  0.8845  0.1090  0.7368
14152TIP3    H263948   6.170   5.631   0.321 -1.4879  0.7433 -0.5084
14153TIP3   OH263949   1.421   0.530  13.584 -0.0689  0.0488  0.0675
14153TIP3    H163950   1.441   0.487  13.501 -1.9333  0.4512 -0.6269
14153TIP3    H263951   1.491   0.594  13.597  1.8067 -2.0350  0.2785
14154TIP3   OH263952   4.560   6.124  15.272  0.0264  0.4910 -0.4827
14154TIP3    H163953   4.508   6.169  15.206 -0.5123  1.1663  0.3975
14154TIP3    H263954   4.509   6.046  15.294 -1.2881  1.8368  1.3533
14155TIP3   OH263955   4.237   5.902   2.998 -0.6384  0.1581 -0.0050
14155TIP3    H163956   4.175   5.951   3.052 -0.5546  1.1724 -0.8072
14155TIP3    H263957   4.186   5.828   2.964 -0.1924 -1.5482  2.9442
14156TIP3   OH263958   2.818   4.579  15.234 -0.0147  0.5210 -0.2857
14156TIP3    H163959   2.728   4.559  15.259  0.0370  0.4583 -0.1552
14156TIP3    H263960   2.854   4.628  15.308  0.3916 -0.3590  0.1038
14157TIP3   OH263961   5.678   0.274  12.065 -0.1479  0.3638  0.5489
14157TIP3    H163962   5.629   0.355  12.060  0.3370  0.7217  1.4010
14157TIP3    H263963   5.613   0.205  12.058 -0.5404  0.8268 -0.3651
14158TIP3   OH263964   6.768   2.029   0.521  0.0665  0.9042 -0.8204
14158TIP3    H163965   6.833   1.962   0.501 -1.3646  0.2073 -3.2401
14158TIP3    H263966   6.717   1.992   0.593 -0.0694 -0.1862 -1.4708
14159TIP3   OH263967   2.034   2.485   5.305 -0.7616  0.1475  0.3169
14159TIP3    H163968   1.984   2.423   5.357 -0.6816 -1.8067 -1.8231
14159TIP3    H263969   2.125   2.460   5.320 -0.6241  1.1037  1.0777
14160TIP3   OH263970   5.693   5.301  16.310 -0.2702 -0.0799  0.4487
14160TIP3    H163971   5.648   5.376  16.348 -0.0214  0.3147 -0.0401
14160TIP3    H263972   5.624   5.236  16.296 -0.6789  0.5125 -0.2827
14161TIP3   OH263973   6.370   5.199   4.717  0.1216 -0.4394  0.4058
14161TIP3    H163974   6.298   5.201   4.655 -0.0285 -0.6115  0.5734
14161TIP3    H263975   6.447   5.225   4.666 -0.4570  2.1770  0.7962
14162TIP3   OH263976   1.092   0.374   5.464  1.3507 -0.2458  0.1034
14162TIP3    H163977   1.102   0.286   5.498  0.5777 -0.1201  0.6697
14162TIP3    H263978   1.181   0.411   5.467  1.3952 -0.4392  1.4181
14163TIP3   OH263979   5.214   4.385   5.345 -0.5672  0.4755  0.8597
14163TIP3    H163980   5.246   4.453   5.405 -0.7087  0.4788  0.9302
14163TIP3    H263981   5.141   4.344   5.391 -1.4595  1.2893  0.1799
14164TIP3   OH263982   2.235   0.250   2.950 -0.5562  0.1267 -0.6032
14164TIP3    H163983   2.201   0.204   3.027 -0.6699  0.0875 -0.6769
14164TIP3    H263984   2.192   0.336   2.952  1.2897  1.0640  0.7511
14165TIP3   OH263985   0.410   3.802   2.044 -0.0317  0.6585 -0.7607
14165TIP3    H163986   0.448   3.888   2.028 -0.3787  1.0206  0.3374
14165TIP3    H263987   0.394   3.767   1.956  1.9289  0.8884 -1.2495
14166TIP3   OH263988   0.759   3.298   1.855  0.1521  0.2254 -0.3850
14166TIP3    H163989   0.711   3.283   1.774  3.3609 -2.5895 -1.9201
14166TIP3    H263990   0.765   3.393   1.863 -3.3675  0.5932 -1.4350
14167TIP3   OH263991   5.010   3.046  15.451  0.1759  0.0544 -0.6773
14167TIP3    H163992   4.971   3.030  15.365 -2.7632 -0.1835  0.6396
14167TIP3    H263993   4.982   2.971  15.504 -0.2905  1.4918  1.1728
14168TIP3   OH263994   5.376   0.664   5.090  0.3128 -0.2656 -0.2511
14168TIP3    H163995   5.353   0.719   5.016 -0.7717 -1.7616 -1.0453
14168TIP3    H263996   5.320   0.694   5.161  0.1975  0.0860 -0.4918
14169TIP3   OH263997   2.655   0.027  17.023 -0.1883 -0.8051 -0.2081
14169TIP3    H163998   2.741   0.066  17.007 -0.4092 -0.8238 -1.4907
14169TIP3    H263999   2.635  -0.022  16.943 -0.2740 -2.9088  1.0726
14170TIP3   OH264000   1.715   4.438   6.182  0.1780 -0.8760  0.3665
14170TIP3    H164001   1.715   4.527   6.219  1.5264 -0.0234 -1.6141
14170TIP3    H264002   1.662   4.387   6.243 -2.7892  1.8444  0.2515
14171TIP3   OH264003   5.006   1.529  11.616 -0.7314  0.1335 -0.5716
14171TIP3    H164004   4.937   1.593  11.632  0.1425  0.6168  1.4280
14171TIP3    H264005   5.030   1.498  11.704  1.2651 -0.3735 -1.2879
14172TIP3   OH264006   0.645   1.518   4.390 -0.3755  0.2201 -0.0830
14172TIP3    H164007   0.714   1.581   4.367  1.1785 -1.0493  0.9809
14172TIP3    H264008   0.591   1.565   4.454  1.0750  0.3300  1.1013
14173TIP3   OH264009   2.146   5.081  12.952  0.0061 -0.1796  0.1322
14173TIP3    H164010   2.057   5.116  12.948 -0.2657 -0.8192  0.5077
14173TIP3    H264011   2.177   5.105  13.039  0.0429 -0.3365  0.1625
14174TIP3   OH264012   5.963   1.930  12.027 -0.3657 -0.0841 -0.6981
14174TIP3    H164013   5.933   1.876  11.953 -1.0239 -0.5788 -0.0850
14174TIP3    H264014   5.886   1.938  12.082  0.3041 -0.2991  0.2764
14175TIP3   OH264015   1.683   2.357   0.377 -0.8020  0.2172  0.5531
14175TIP3    H164016   1.723   2.432   0.421 -0.1494 -0.1365  0.5781
14175TIP3    H264017   1.751   2.289   0.379 -1.1942 -0.1965  0.0590
14176TIP3   OH264018   6.617   5.356  16.853 -0.0808  0.4900  0.0502
14176TIP3    H164019   6.543   5.330  16.908  1.3703  0.5217  2.0807
14176TIP3    H264020   6.607   5.305  16.772 -0.3226 -2.2589  1.7445
14177TIP3   OH264021   5.612   4.237   1.077  0.2046 -0.3223  0.4227
14177TIP3    H164022   5.516   4.242   1.082  0.0414 -2.1890 -0.7757
14177TIP3    H264023   5.632   4.244   0.984  1.1271 -1.7534  0.5102
14178TIP3   OH264024   1.894   3.091  16.106  0.0381  0.6010  0.5614
14178TIP3    H164025   1.905   2.996  16.101 -0.6028  0.5798 -0.8493
14178TIP3    H264026   1.838   3.105  16.182 -0.2272 -0.1907  0.5136
14179TIP3   OH264027   0.027   0.544  14.572 -0.1088 -0.2479 -0.1367
14179TIP3    H164028   0.036   0.501  14.487  1.1204  1.3216 -0.8191
14179TIP3    H264029  -0.012   0.629  14.551  1.0766  0.5210  0.7716
14180TIP3   OH264030   2.722   6.613   2.856 -0.2466  0.4696 -0.2969
14180TIP3    H164031   2.699   6.614   2.949  0.5380  1.7013 -0.1024
14180TIP3    H264032   2.803   6.561   2.853  0.8820  2.1666  0.0120
14181TIP3   OH264033   0.012   1.286   2.257 -0.2048  0.3607 -0.1224
14181TIP3    H164034   0.100   1.253   2.239  0.1572  1.9991 -1.4482
14181TIP3    H264035   0.026   1.372   2.296 -1.2072  0.0946  0.8593
14182TIP3   OH264036   0.100   2.001  12.029 -0.3125  0.0504 -0.3997
14182TIP3    H164037   0.018   1.969  11.994 -0.4904 -1.1454  1.0467
14182TIP3    H264038   0.153   1.922  12.044  0.8653  0.7509 -0.7554
14183TIP3   OH264039   4.621   2.895   2.863  0.2029  0.0389 -0.2424
14183TIP3    H164040   4.566   2.967   2.893  0.3009 -0.0234  0.0955
14183TIP3    H264041   4.587   2.872   2.777  0.6337  0.9608 -0.6568
14184TIP3   OH264042   4.558   5.082   0.447 -0.1935  0.0525 -0.4673
14184TIP3    H164043   4.496   5.016   0.417 -1.0391  0.3793  0.5210
14184TIP3    H264044   4.504   5.144   0.496  0.6246  1.3370 -1.1695
14185TIP3   OH264045   5.358   4.192  14.762 -0.2513 -0.2889 -0.1195
14185TIP3    H164046   5.336   4.251  14.690 -1.5315 -0.8079 -0.1590
14185TIP3    H264047   5.344   4.245  14.841  1.4067  0.3659 -0.2354
14186TIP3   OH264048   3.600   4.039  11.461 -0.0507  0.1185 -0.3125
14186TIP3    H164049   3.649   4.119  11.438 -1.0990  0.0264 -3.1199
14186TIP3    H264050   3.655   3.968  11.429  1.1559 -0.3898  2.7054
14187TIP3   OH264051   6.302   2.001   5.573  0.2252  0.1017  0.4063
14187TIP3    H164052   6.283   2.068   5.507  0.4738 -0.4517 -0.2332
14187TIP3    H264053   6.327   1.924   5.522  0.5495 -0.2893  1.1560
14188TIP3   OH264054   5.465   3.088   3.574 -0.6976 -0.2535  0.5098
14188TIP3    H164055   5.488   3.122   3.660 -1.3108  1.7117 -0.0845
14188TIP3    H264056   5.369   3.093   3.570 -0.7631 -1.4787  0.1681
14189TIP3   OH264057   0.742   2.118   1.158 -0.1472  0.0146  0.0990
14189TIP3    H164058   0.832   2.099   1.131 -0.8988  0.9607 -3.3198
14189TIP3    H264059   0.751   2.153   1.247  2.6710 -1.4401  0.4479
14190TIP3   OH264060   2.485   4.875  16.735 -0.0920  0.1982 -0.4596
14190TIP3    H164061   2.450   4.810  16.796  0.7712 -1.2081 -1.4417
14190TIP3    H264062   2.483   4.957  16.784  0.6855 -0.9268  1.5170
14191TIP3   OH264063   6.642   5.408   0.410 -0.4453  0.0285 -0.3165
14191TIP3    H164064   6.687   5.422   0.494 -1.1053 -0.2826  0.0973
14191TIP3    H264065   6.705   5.360   0.357 -1.1438 -2.5004  1.0890
14192TIP3   OH264066   6.641   1.635  14.657  0.1169 -0.1434  0.0012
14192TIP3    H164067   6.581   1.669  14.723 -1.3858 -0.8812 -0.9449
14192TIP3    H264068   6.610   1.673  14.575  1.0570 -0.4070 -0.4823
14193TIP3   OH264069   4.118   2.744   6.401  0.2804  0.0004  0.0425
14193TIP3    H164070   4.127   2.798   6.323 -0.7246 -0.9454 -0.7361
14193TIP3    H264071   4.185   2.777   6.461  0.7514  1.0280 -1.0414
14194TIP3   OH264072   3.842   2.380   0.843  0.2636  0.4108  0.5938
14194TIP3    H164073   3.913   2.316   0.857 -0.2517 -0.3553 -0.1906
14194TIP3    H264074   3.831   2.423   0.927  0.2649 -0.9219  1.2844
14195TIP3   OH264075   3.542   1.903  15.838  0.1499  0.0526  0.2827
14195TIP3    H164076   3.590   1.983  15.816  0.4345  0.5139  2.4969
14195TIP3    H264077   3.464   1.933  15.884 -0.5897 -0.8680 -0.3421
14196TIP3   OH264078   6.376   3.971   0.883 -0.2907 -0.4172 -0.3947
14196TIP3    H164079   6.336   4.003   0.963 -2.3188  0.2639 -1.6484
14196TIP3    H264080   6.447   4.033   0.865 -1.2901  0.7469 -0.3484
14197TIP3   OH264081   5.390   2.854  11.386  0.3333 -0.1340  0.1308
14197TIP3    H164082   5.363   2.945  11.374  0.8041  0.1870  1.5022
14197TIP3    H264083   5.308   2.806  11.402  0.0138 -0.0810 -1.2340
14198TIP3   OH264084   4.770   1.069   4.148  0.1443  0.3188  0.3724
14198TIP3    H164085   4.844   1.067   4.209 -1.1317  1.2191  1.9645
14198TIP3    H264086   4.709   1.003   4.182 -0.2132  0.2523 -0.3866
14199TIP3   OH264087   2.209   6.750  14.728 -0.2132  0.1667 -0.3972
14199TIP3    H164088   2.217   6.729  14.635  2.5699  0.0533 -0.1615
14199TIP3    H264089   2.236   6.671  14.773  0.6832  0.9730  0.4957
14200TIP3   OH264090   5.976   0.438   3.178 -0.3866 -0.0532 -0.6553
14200TIP3    H164091   5.943   0.357   3.218  0.7496 -0.4416 -0.4975
14200TIP3    H264092   5.897   0.489   3.160 -0.9781 -0.1213  1.5562
14201TIP3   OH264093   6.188   0.281   3.628 -0.0820  0.8015  0.7276
14201TIP3    H164094   6.198   0.227   3.707 -0.0613 -3.0750 -1.8129
14201TIP3    H264095   6.094   0.297   3.622 -0.4365 -1.3681  0.0249
14202TIP3   OH264096   5.411   2.972   1.171 -0.0451  0.2471 -0.0352
14202TIP3    H164097   5.322   2.973   1.207  0.8740  0.4280  2.2933
14202TIP3    H264098   5.423   2.882   1.140 -0.4336 -0.2490  1.2093
14203TIP3   OH264099   6.531   1.311   2.506  0.7745 -0.5566 -0.3764
14203TIP3    H164100   6.581   1.245   2.457 -0.5508 -2.0322  0.1972
14203TIP3    H264101   6.525   1.274   2.594 -1.6023 -0.5744 -0.5211
14204TIP3   OH264102   0.831   2.880   0.324 -0.3498 -0.1371 -0.0826
14204TIP3    H164103   0.909   2.891   0.270 -1.4055  0.9811 -1.4399
14204TIP3    H264104   0.796   2.969   0.334 -2.5108 -0.8206 -1.1766
14205TIP3   OH264105   4.104   3.383   3.676  0.1498 -0.7341 -0.0342
14205TIP3    H164106   4.066   3.394   3.763  1.7999 -1.2213  0.7669
14205TIP3    H264107   4.030   3.394   3.616 -1.0085 -0.4212  1.4195
14206TIP3   OH264108   4.329   5.837   6.125 -0.3120  0.4978 -0.7713
14206TIP3    H164109   4.270   5.826   6.200  2.2671 -0.0333  1.2273
14206TIP3    H264110   4.356   5.929   6.129  0.0896  0.3827 -0.8364
14207TIP3   OH264111   2.789   5.491  14.652 -0.3293  0.0319 -0.3953
14207TIP3    H164112   2.866   5.435  14.661 -0.4754 -0.1994 -0.5816
14207TIP3    H264113   2.776   5.500  14.558  0.3948  1.3604 -0.3784
14208TIP3   OH264114   0.595   4.370   0.994 -0.4717  0.1529 -0.1834
14208TIP3    H164115   0.550   4.364   0.910 -2.3556 -0.8272  0.8709
14208TIP3    H264116   0.528   4.351   1.060  0.2815  3.7711  1.7631
14209TIP3   OH264117   3.943   3.542  15.620  0.1847 -0.0407 -0.2063
14209TIP3    H164118   4.007   3.545  15.691 -0.5769 -1.0748  0.5375
14209TIP3    H264119   3.989   3.580  15.545  1.1546  0.6286  0.7061
14210TIP3   OH264120   5.239   3.331   5.193 -0.2687  0.1852 -0.5318
14210TIP3    H164121   5.175   3.325   5.122  1.8213 -0.6265 -2.4064
14210TIP3    H264122   5.245   3.241   5.226  1.6431 -0.2750 -2.0035
14211TIP3   OH264123   6.303   5.898   3.093  0.0059  0.1270 -0.0890
14211TIP3    H164124   6.397   5.881   3.091  0.3306  1.7895 -0.0180
14211TIP3    H264125   6.263   5.812   3.105  1.5313 -0.5532  0.2503
14212TIP3   OH264126   4.162   0.291   5.500 -0.3250 -0.0241 -0.7491
14212TIP3    H164127   4.113   0.369   5.526 -0.0300  0.5414 -1.8206
14212TIP3    H264128   4.252   0.310   5.526 -0.2609 -0.0216 -0.9733
14213TIP3   OH264129   3.558   1.455  11.168  0.7628  0.0285 -0.4964
14213TIP3    H164130   3.531   1.472  11.078 -2.1276  1.8610  0.6635
14213TIP3    H264131   3.604   1.534  11.195 -2.8717  1.6583  1.2416
14214TIP3   OH264132   0.383   1.592   2.994 -0.0337 -0.4036 -0.0156
14214TIP3    H164133   0.316   1.559   3.055 -0.8548  1.6673  0.2534
14214TIP3    H264134   0.349   1.570   2.908 -0.0380 -1.2008  0.1797
14215TIP3   OH264135   6.287   6.281   3.619  0.0981 -0.3458  0.2771
14215TIP3    H164136   6.264   6.339   3.691 -1.5499 -0.7832  0.1232
14215TIP3    H264137   6.220   6.213   3.620  1.6154 -1.9118  0.0499
14216TIP3   OH264138   1.871   3.999  16.150  0.2729 -0.0749 -0.7491
14216TIP3    H164139   1.791   3.955  16.121  0.5089 -0.1626 -1.2697
14216TIP3    H264140   1.852   4.026  16.240  0.3387 -1.7738 -0.2122
14217TIP3   OH264141   4.765   3.572   1.632  0.5002 -0.3151 -0.0060
14217TIP3    H164142   4.673   3.549   1.645  0.2778 -0.1234 -1.2307
14217TIP3    H264143   4.764   3.665   1.609  1.0077 -0.3064  0.0004
14218TIP3   OH264144   6.052   3.595   4.722  0.0150 -0.2409  0.1057
14218TIP3    H164145   5.974   3.610   4.669  0.1088  0.1722  0.0872
14218TIP3    H264146   6.101   3.677   4.717  0.6337 -0.6282 -0.1883
14219TIP3   OH264147   4.270   3.471   0.840  0.1719 -0.1264  0.3054
14219TIP3    H164148   4.315   3.531   0.899  2.5259 -0.3938 -1.1819
14219TIP3    H264149   4.253   3.393   0.892 -0.3974  0.7488  1.4464
14220TIP3   OH264150   4.188   1.117   4.843 -0.6585 -0.0443  0.2132
14220TIP3    H164151   4.204   1.160   4.759 -0.1863  2.1400  1.3839
14220TIP3    H264152   4.166   1.188   4.903 -2.4457 -1.7061  1.6220
14221TIP3   OH264153   2.541   3.673   5.466 -0.2252  0.1689  0.0365
14221TIP3    H164154   2.607   3.735   5.435  0.8529 -1.3676 -0.8510
14221TIP3    H264155   2.471   3.727   5.501  0.7670  1.8717 -0.5557
14222TIP3   OH264156   2.336   3.088  14.318 -0.1883 -0.7827  0.0778
14222TIP3    H164157   2.246   3.103  14.287  0.3982 -0.7518 -1.6286
14222TIP3    H264158   2.372   3.024  14.256  0.9267 -0.9103  0.8493
14223TIP3   OH264159   6.426   4.817   3.885  0.5299 -0.4701  0.1799
14223TIP3    H164160   6.417   4.832   3.979  0.4261 -1.1476  0.2848
14223TIP3    H264161   6.442   4.903   3.848 -0.2890 -0.0849  0.7206
14224TIP3   OH264162   1.814   3.170  15.662  0.3376  0.5577  0.0552
14224TIP3    H164163   1.882   3.228  15.697  0.7534 -0.4247  0.9034
14224TIP3    H264164   1.858   3.122  15.592  0.4008  0.2227  0.3252
14225TIP3   OH264165   3.494   4.315   2.331 -0.2375  0.2454  0.1072
14225TIP3    H164166   3.468   4.287   2.418 -0.6815 -2.9958 -0.9890
14225TIP3    H264167   3.588   4.301   2.328  0.4420  4.0376  1.2874
14226TIP3   OH264168   5.837   0.818   5.609 -0.3728  0.3811  0.0916
14226TIP3    H164169   5.895   0.749   5.577  0.6418  0.7348  1.1243
14226TIP3    H264170   5.817   0.793   5.699 -1.1906  0.6823 -0.0009
14227TIP3   OH264171   5.699   5.107   2.509 -0.2279 -0.3647 -0.2818
14227TIP3    H164172   5.628   5.059   2.466  0.2089 -1.9311  0.6935
14227TIP3    H264173   5.702   5.192   2.464  0.2686 -1.9629 -3.3828
14228TIP3   OH264174   4.984   1.131   3.285  0.6070  0.1562  0.7401
14228TIP3    H164175   4.986   1.050   3.233  0.3972  0.7944 -0.2767
14228TIP3    H264176   5.073   1.165   3.280  0.3294  0.7714 -0.0932
14229TIP3   OH264177   2.281   2.445  11.539 -0.2909 -0.2026 -0.2168
14229TIP3    H164178   2.260   2.377  11.603 -0.5022 -0.5503 -0.6517
14229TIP3    H264179   2.309   2.520  11.592 -0.6342 -0.4283  0.2883
14230TIP3   OH264180   6.392   1.405   2.866  0.2625 -0.6635  0.4588
14230TIP3    H164181   6.450   1.330   2.858 -0.0082 -0.6945 -1.4122
14230TIP3    H264182   6.445   1.471   2.911 -0.2673 -2.7322  4.2778
14231TIP3   OH264183   6.009   6.752   5.054  0.1747 -0.4651  1.0453
14231TIP3    H164184   6.074   6.821   5.063  0.0005 -0.3334  1.3035
14231TIP3    H264185   6.061   6.671   5.052  0.3670 -0.3371  0.9183
14232TIP3   OH264186   1.855   5.324  15.501  0.1800  0.2369  0.1738
14232TIP3    H164187   1.864   5.229  15.496 -0.7002  0.1881 -0.6757
14232TIP3    H264188   1.767   5.338  15.538 -0.0437  0.7197 -0.5357
14233TIP3   OH264189   6.532   3.363  15.609 -0.0892 -0.3082 -0.0446
14233TIP3    H164190   6.511   3.296  15.674  0.7518 -1.3948 -0.8692
14233TIP3    H264191   6.582   3.429  15.657 -0.9181 -0.2701  0.7689
14234TIP3   OH264192   4.163   5.000  16.851  0.0730 -0.1564 -0.3547
14234TIP3    H164193   4.225   5.010  16.924  0.0795 -0.4313 -0.3211
14234TIP3    H264194   4.082   5.039  16.883  0.4925  1.0727 -0.7473
14235TIP3   OH264195   1.194   4.637   1.624  0.4203 -0.1435 -0.0549
14235TIP3    H164196   1.178   4.711   1.682  1.6874 -0.1359  0.3074
14235TIP3    H264197   1.137   4.567   1.658  0.2669  0.2304  0.4667
14236TIP3   OH264198   0.911   6.323   6.316 -0.3995  0.1201  0.1531
14236TIP3    H164199   1.004   6.298   6.309 -0.0756  1.2065  0.5005
14236TIP3    H264200   0.871   6.251   6.366  0.2496 -0.3549  0.0013
14237TIP3   OH264201   3.365   2.798   3.718 -0.3482  0.4094  0.4090
14237TIP3    H164202   3.281   2.837   3.692 -0.8087 -0.7000  0.2139
14237TIP3    H264203   3.431   2.853   3.674 -0.9844  0.9113  0.0617
14238TIP3   OH264204   1.926   5.590   4.765 -0.4753 -0.3835  0.0406
14238TIP3    H164205   1.850   5.634   4.726  1.0986  0.9510 -1.6410
14238TIP3    H264206   1.990   5.587   4.694  1.5133 -0.3132  1.8011
14239TIP3   OH264207   4.226   0.472  12.510 -0.2221 -0.2827  0.1639
14239TIP3    H164208   4.259   0.467  12.600 -1.5629  0.6051  0.7238
14239TIP3    H264209   4.292   0.524  12.464  1.0787 -1.7640  0.3300
14240TIP3   OH264210   2.694   2.201   1.809 -0.3747  0.1837  0.4653
14240TIP3    H164211   2.777   2.163   1.837  0.8281  4.4921  3.1654
14240TIP3    H264212   2.627   2.143   1.846  1.3808 -1.4306  1.1917
14241TIP3   OH264213   6.184   4.762  12.033  0.2636  0.1991 -0.2343
14241TIP3    H164214   6.188   4.707  11.955 -0.3574 -0.2880  0.0717
14241TIP3    H264215   6.233   4.714  12.099 -1.9924 -0.9967  0.6303
14242TIP3   OH264216   2.579   5.553  11.471 -0.5098  0.3766 -0.6212
14242TIP3    H164217   2.611   5.605  11.398  1.9116 -1.8541 -1.2140
14242TIP3    H264218   2.534   5.479  11.429 -0.3974 -0.1349  0.1589
14243TIP3   OH264219   4.327   3.140  15.452  0.6296 -0.2290 -0.7502
14243TIP3    H164220   4.409   3.167  15.494 -0.1137  0.1068  0.5304
14243TIP3    H264221   4.354   3.097  15.371  2.0990 -0.6143 -0.0781
14244TIP3   OH264222   5.437   2.775  13.628 -0.4595 -0.7171  0.5467
14244TIP3    H164223   5.406   2.742  13.544  1.8829 -0.4967 -0.4304
14244TIP3    H264224   5.408   2.867  13.630 -1.6614 -1.0948  0.5796
14245TIP3   OH264225   2.408   2.198   6.305  0.2141 -0.6317  0.0890
14245TIP3    H164226   2.421   2.292   6.322 -1.3262 -0.1363 -1.3319
14245TIP3    H264227   2.315   2.183   6.321  0.1151 -1.5505 -1.2991
14246TIP3   OH264228   4.137   1.758  12.282 -0.1618  0.1689  0.5592
14246TIP3    H164229   4.069   1.691  12.289 -0.8481  0.9834  1.9288
14246TIP3    H264230   4.216   1.716  12.316 -0.5830  0.0369  1.3856
14247TIP3   OH264231   0.232   3.944   5.502  0.3135  0.1386  0.0262
14247TIP3    H164232   0.138   3.956   5.517  0.1156  1.0167 -1.8267
14247TIP3    H264233   0.273   4.019   5.545 -0.0555  1.3126 -1.6725
14248TIP3   OH264234   4.208   6.130  15.460 -0.0408 -0.6144 -0.0916
14248TIP3    H164235   4.203   6.065  15.390 -0.1141 -0.1443 -0.5214
14248TIP3    H264236   4.123   6.127  15.502 -0.0101 -0.8692 -0.0424
14249TIP3   OH264237   3.022   5.014   5.718 -0.4266  0.0056  0.1987
14249TIP3    H164238   3.054   5.000   5.807 -0.5265  1.0833  0.4083
14249TIP3    H264239   3.019   5.109   5.708 -1.2164 -0.1050 -0.6669
14250TIP3   OH264240   2.730   3.837  10.995  0.0012  0.6560 -0.0357
14250TIP3    H164241   2.725   3.852  11.089  0.7636 -0.3925  0.1723
14250TIP3    H264242   2.768   3.918  10.960 -0.7592  1.2462  0.4927
14251TIP3   OH264243   1.589   2.321   2.861  0.4457 -0.6059 -0.5807
14251TIP3    H164244   1.578   2.283   2.949  0.6906  1.6177  0.4638
14251TIP3    H264245   1.680   2.303   2.839 -0.0226 -2.5045 -1.0617
14252TIP3   OH264246   6.528   1.076  15.453 -0.2629  0.6247 -0.3459
14252TIP3    H164247   6.442   1.074  15.412 -0.0902 -0.4079 -0.6540
14252TIP3    H264248   6.510   1.094  15.546 -0.7763  0.8669 -0.4920
14253TIP3   OH264249   6.381   0.670  11.244 -0.3481  0.2866  0.4102
14253TIP3    H164250   6.388   0.617  11.164  1.5330  0.7733  0.2091
14253TIP3    H264251   6.463   0.652  11.291  0.5346  3.3083  0.1351
14254TIP3   OH264252   5.543   4.995   3.018 -0.2310  0.5090 -0.3242
14254TIP3    H164253   5.560   5.090   3.016 -1.3008  0.7183  0.0185
14254TIP3    H264254   5.560   4.966   2.929  1.8532  0.7099 -0.0035
14255TIP3   OH264255   6.595   3.510   3.788 -0.3832  0.4023 -0.3339
14255TIP3    H164256   6.506   3.477   3.802  0.1308  0.0356  2.2525
14255TIP3    H264257   6.652   3.436   3.810  0.5968  1.1587 -0.2921
14256TIP3   OH264258   3.184   2.372  11.631  0.1787 -0.2361 -0.0814
14256TIP3    H164259   3.113   2.419  11.585  0.6660  0.4088 -0.1776
14256TIP3    H264260   3.138   2.319  11.696 -0.1830  3.5821  2.9444
14257TIP3   OH264261   2.104   5.552  11.473 -0.0927  0.2392  0.1509
14257TIP3    H164262   2.046   5.510  11.536  0.1535 -1.5342 -0.7795
14257TIP3    H264263   2.063   5.538  11.388 -0.3398  2.4798 -0.1428
14258TIP3   OH264264   4.728   5.719  14.926 -0.3577 -0.4035 -0.4663
14258TIP3    H164265   4.693   5.637  14.961 -0.7699  0.5556  1.4961
14258TIP3    H264266   4.799   5.742  14.985  0.4188  0.1313 -1.5955
14259TIP3   OH264267   2.019   0.588   2.260 -0.2687  0.4988 -0.3869
14259TIP3    H164268   2.009   0.650   2.332  0.6299  0.3099 -0.0954
14259TIP3    H264269   1.931   0.552   2.247 -0.7836  1.7736 -0.5165
14260TIP3   OH264270   1.617   6.397  15.573 -0.3772  0.0704 -0.2806
14260TIP3    H164271   1.703   6.425  15.544 -0.8201  0.9172 -0.8046
14260TIP3    H264272   1.590   6.332  15.509 -0.0025 -0.4278  0.0611
14261TIP3   OH264273   5.898   0.614  12.291  0.0878  0.1075 -0.1410
14261TIP3    H164274   5.908   0.551  12.219 -1.1581  0.6726 -0.8343
14261TIP3    H264275   5.984   0.620  12.331  0.1895 -2.1672  0.0273
14262TIP3   OH264276   4.387   0.870   3.838  0.3025  0.5199 -0.4206
14262TIP3    H164277   4.471   0.866   3.793 -0.0074 -0.5345 -0.9156
14262TIP3    H264278   4.382   0.960   3.871  1.2998  0.7964 -0.9962
14263TIP3   OH264279   3.301   0.847  14.289  0.3288 -0.6093  0.1369
14263TIP3    H164280   3.228   0.895  14.249 -1.4898 -1.1484  2.6527
14263TIP3    H264281   3.359   0.915  14.322 -1.3624 -0.0871  2.1449
14264TIP3   OH264282   3.878   4.497   2.174  0.0103  0.6477  0.4381
14264TIP3    H164283   3.959   4.531   2.138 -0.0605  0.4645  0.0993
14264TIP3    H264284   3.887   4.506   2.268  0.7232 -0.0443  0.4393
14265TIP3   OH264285   0.687   4.204  16.437  0.0308  0.4322 -0.5001
14265TIP3    H164286   0.646   4.208  16.350  1.1534  0.8434 -1.0210
14265TIP3    H264287   0.686   4.294  16.468 -0.8910  0.2015  0.1825
14266TIP3   OH264288   2.393   2.222   5.654  0.6954  0.0190 -0.1469
14266TIP3    H164289   2.376   2.316   5.649  2.9986  0.5075  0.3558
14266TIP3    H264290   2.476   2.210   5.608  0.9209 -1.6187  0.6325
14267TIP3   OH264291   3.613   2.907  17.086 -0.4156  0.4523 -0.0934
14267TIP3    H164292   3.571   2.957  17.156  2.1420  0.6575  1.3843
14267TIP3    H264293   3.628   2.820  17.124  0.4853  0.3903 -0.5791
14268TIP3   OH264294   5.815   4.662  11.674 -0.0513  0.0500 -0.1030
14268TIP3    H164295   5.840   4.733  11.616  1.0317  0.9496  1.4145
14268TIP3    H264296   5.819   4.584  11.620 -1.2057  1.1306 -1.7800
14269TIP3   OH264297   6.269   1.191   3.766  0.2138  0.1796  0.4608
14269TIP3    H164298   6.353   1.217   3.728 -1.2947  3.0443 -1.1085
14269TIP3    H264299   6.282   1.196   3.861  1.4699  1.9308  0.2211
14270TIP3   OH264300   6.545   2.445  10.656  0.3847 -0.3786 -0.6644
14270TIP3    H164301   6.622   2.501  10.662  0.2991 -0.3473  0.2100
14270TIP3    H264302   6.480   2.497  10.609  0.8578 -0.3673 -1.3166
14271TIP3   OH264303   1.577   6.516  16.056  0.3170 -0.3737 -0.2922
14271TIP3    H164304   1.609   6.606  16.054  2.2636 -1.0385 -0.1939
14271TIP3    H264305   1.618   6.475  15.980 -1.7135 -0.8239 -1.1929
14272TIP3   OH264306   4.446   3.677  13.044  0.7849 -0.0139 -0.5356
14272TIP3    H164307   4.496   3.605  13.006  0.9329 -0.3241  0.2334
14272TIP3    H264308   4.383   3.701  12.977  2.0457  0.4716 -1.5855
14273TIP3   OH264309   0.104   3.506   3.726 -0.6248 -0.6091  0.3917
14273TIP3    H164310   0.089   3.467   3.812  0.8619 -2.7290 -0.2442
14273TIP3    H264311   0.040   3.463   3.669 -0.5262 -0.4215  0.1410
14274TIP3   OH264312   6.450   0.874   4.585  0.6471 -0.5955 -0.1768
14274TIP3    H164313   6.539   0.882   4.620 -0.6118 -1.7542  3.5319
14274TIP3    H264314   6.407   0.955   4.610 -0.1662 -1.2713  0.6575
14275TIP3   OH264315   5.608   2.862   0.011 -0.3159  0.4003 -0.3149
14275TIP3    H164316   5.544   2.934   0.014  0.8648  1.3970  1.5732
14275TIP3    H264317   5.659   2.880  -0.068 -2.0671 -0.1871 -1.6341
14276TIP3   OH264318   3.337   4.891   6.096 -0.5604  0.1973  0.0726
14276TIP3    H164319   3.398   4.956   6.131  0.1500  0.5960 -1.8830
14276TIP3    H264320   3.391   4.829   6.048 -1.5477 -0.1550 -0.6082
14277TIP3   OH264321   5.811   2.461  10.996  0.3596 -0.2828 -0.0063
14277TIP3    H164322   5.756   2.391  10.962  1.0207 -0.0322 -1.5985
14277TIP3    H264323   5.749   2.522  11.037 -0.4224 -0.6832 -0.5842
14278TIP3   OH264324   6.644   4.837  16.157 -0.0909 -0.3058 -0.0038
14278TIP3    H164325   6.718   4.780  16.137  0.8280  0.8604  0.0390
14278TIP3    H264326   6.608   4.862  16.072 -1.4350 -2.1384 -0.0024
14279TIP3   OH264327   3.577   1.587  11.929  0.0743 -0.0745  1.1108
14279TIP3    H164328   3.558   1.505  11.973 -1.4201  0.2085  1.0432
14279TIP3    H264329   3.578   1.653  11.999 -1.2017  0.2068  0.8843
14280TIP3   OH264330   5.135   1.274   5.865  0.5955 -0.5676 -0.1342
14280TIP3    H164331   5.093   1.312   5.788  0.8473  0.2030  0.1050
14280TIP3    H264332   5.221   1.245   5.833  1.2908  1.0813  0.1711
14281TIP3   OH264333   0.139   4.119  12.901  0.2958 -0.1795 -0.5750
14281TIP3    H164334   0.142   4.051  12.968 -0.5476 -0.9881 -1.3594
14281TIP3    H264335   0.229   4.124  12.869  0.9724  1.0100  1.3805
14282TIP3   OH264336   4.708   1.984  12.240 -0.0707 -0.3430 -0.0649
14282TIP3    H164337   4.629   2.037  12.245 -0.5603 -0.8383 -2.1461
14282TIP3    H264338   4.757   2.006  12.319 -1.5853  1.0735  0.5007
14283TIP3   OH264339   5.681   6.066   6.594 -0.3922 -0.2268  0.2536
14283TIP3    H164340   5.771   6.068   6.626 -0.0789 -1.2750 -0.5026
14283TIP3    H264341   5.653   6.158   6.594  1.2017  0.2919 -0.9227
14284TIP3   OH264342   0.064   1.420   6.706 -0.0382 -0.0035  0.1142
14284TIP3    H164343  -0.022   1.399   6.744 -0.0518  0.1601  0.1735
14284TIP3    H264344   0.050   1.502   6.660  0.2053  0.2688  0.5239
14285TIP3   OH264345   5.033   3.352   3.027  0.1301 -0.0352  0.0177
14285TIP3    H164346   4.993   3.428   2.986 -1.7156  0.0787  1.9342
14285TIP3    H264347   5.118   3.384   3.057 -0.0872  0.9104 -0.3460
14286TIP3   OH264348   5.624   4.836   3.901 -0.2750  0.3311  0.1739
14286TIP3    H164349   5.568   4.825   3.977  0.4362 -1.7097  0.4410
14286TIP3    H264350   5.650   4.928   3.903 -1.7502  0.7320  1.3359
14287TIP3   OH264351   5.384   6.446  16.692 -0.0622 -0.0162 -0.1519
14287TIP3    H164352   5.417   6.462  16.604  1.4965  1.4374  0.6679
14287TIP3    H264353   5.436   6.503  16.748 -0.1900 -1.8060  1.8663
14288TIP3   OH264354   1.197   0.518  14.857  0.6247  0.1295 -0.5342
14288TIP3    H164355   1.262   0.568  14.906 -0.9991  0.7561  1.0432
14288TIP3    H264356   1.152   0.583  14.803  0.4239 -0.0767 -0.6188
14289TIP3   OH264357   3.435   2.946  16.266  0.1674  0.3168 -0.1173
14289TIP3    H164358   3.405   2.909  16.183  2.7398 -0.7632 -0.5974
14289TIP3    H264359   3.400   2.887  16.333 -0.1440  0.0034 -0.5561
14290TIP3   OH264360   6.804   4.562   6.582 -0.0913  0.1319 -0.1212
14290TIP3    H164361   6.717   4.572   6.545  1.2575  1.0180 -3.2645
14290TIP3    H264362   6.807   4.472   6.613 -1.4984 -0.5062 -1.7543
14291TIP3   OH264363   5.111   2.019  16.435  0.2349 -0.4242  0.1398
14291TIP3    H164364   5.149   2.005  16.348  1.8243  0.3384  0.7090
14291TIP3    H264365   5.166   2.086  16.475 -0.8972 -0.2816  1.4887
14292TIP3   OH264366   0.996   2.119   0.331 -0.1693  0.0098  0.6367
14292TIP3    H164367   0.973   2.064   0.257  0.7368 -0.9606  1.0653
14292TIP3    H264368   1.075   2.079   0.368 -0.3867  0.6934  1.8945
14293TIP3   OH264369   3.279   4.353   1.275  0.3670 -0.2795  0.5129
14293TIP3    H164370   3.361   4.347   1.225  0.8512 -1.5095  1.4167
14293TIP3    H264371   3.304   4.397   1.356  0.1703 -0.7461  0.8326
14294TIP3   OH264372   6.657   0.670   6.247 -0.5822  0.0871  0.1144
14294TIP3    H164373   6.600   0.705   6.316  1.6286  1.7205  1.1561
14294TIP3    H264374   6.648   0.732   6.174  1.8180  1.8232  1.2391
14295TIP3   OH264375   6.309   3.436   3.821  0.6347  0.6234  0.3860
14295TIP3    H164376   6.271   3.477   3.744  1.9726  1.5157  0.1715
14295TIP3    H264377   6.239   3.382   3.858 -0.7459  2.0469 -0.1059
14296TIP3   OH264378   4.451   4.249  13.807 -0.3315 -0.0069 -0.1392
14296TIP3    H164379   4.454   4.344  13.816 -2.1507 -0.1042  2.0620
14296TIP3    H264380   4.379   4.232  13.746 -2.0278 -0.0183  1.7918
14297TIP3   OH264381   5.905   1.812  15.644  0.5044 -0.4113 -0.3042
14297TIP3    H164382   5.855   1.893  15.635 -0.6206 -0.8979  1.3585
14297TIP3    H264383   5.995   1.841  15.660 -0.6730  0.6686  5.2874
14298TIP3   OH264384   2.496   4.889  12.009  0.3449 -0.0647 -1.1109
14298TIP3    H164385   2.432   4.842  11.956 -1.5169  0.8863  0.2594
14298TIP3    H264386   2.474   4.982  11.998  0.3397  0.1795  0.7771
14299TIP3   OH264387   1.714   6.608   3.825  0.6008  0.3471  0.3034
14299TIP3    H164388   1.772   6.656   3.767 -1.2878 -0.4170 -2.3110
14299TIP3    H264389   1.766   6.534   3.856  1.3141  0.1458 -1.3311
14300TIP3   OH264390   6.296   0.155  13.581 -0.1413 -0.0549  0.6953
14300TIP3    H164391   6.392   0.148  13.583  0.0458  1.8132 -0.1202
14300TIP3    H264392   6.265   0.065  13.591  1.6878 -0.6235  1.4904
14301TIP3   OH264393   1.526   6.231   2.218  0.2718  0.3740  0.1227
14301TIP3    H164394   1.557   6.160   2.162  1.2246 -0.2057  1.3582
14301TIP3    H264395   1.499   6.300   2.157  2.6549  0.3435 -1.0307
14302TIP3   OH264396   0.121   6.680  12.606 -0.0328  0.3459  0.2262
14302TIP3    H164397   0.079   6.611  12.554  1.6345 -1.2035  0.8739
14302TIP3    H264398   0.089   6.667  12.695 -1.1611  1.6059  0.0225
14303TIP3   OH264399   5.759   5.164   2.773  0.1007  0.0956 -0.0586
14303TIP3    H164400   5.768   5.137   2.681  0.6357  1.1305 -0.3121
14303TIP3    H264401   5.721   5.252   2.769  1.7690  0.8683  0.6485
14304TIP3   OH264402   1.846   3.275  17.150  0.1540 -0.4521  0.3775
14304TIP3    H164403   1.840   3.187  17.114  0.5768 -0.3206 -0.0283
14304TIP3    H264404   1.940   3.289  17.164 -0.0178 -0.5617  1.7001
14305TIP3   OH264405   3.100   5.719   4.671  0.0194  0.4661  0.0199
14305TIP3    H164406   3.130   5.768   4.747 -4.6917  0.3353  2.1069
14305TIP3    H264407   3.102   5.627   4.699 -2.6656  0.4946  0.3854
14306TIP3   OH264408   6.132   2.129   4.365  0.1909  0.1022 -0.8265
14306TIP3    H164409   6.074   2.164   4.432  0.6991 -0.4518 -0.0766
14306TIP3    H264410   6.217   2.170   4.383 -0.0457  1.1979 -2.1441
14307TIP3   OH264411   0.614   0.847  15.478 -0.0894  0.2307 -0.1493
14307TIP3    H164412   0.691   0.799  15.445  0.1661  0.0628  0.6700
14307TIP3    H264413   0.549   0.779  15.495 -1.2416  0.5686 -2.9466
14308TIP3   OH264414   6.248   2.819  15.190 -0.2114 -0.3079  0.0450
14308TIP3    H164415   6.245   2.729  15.160  2.3741 -0.4657  0.1748
14308TIP3    H264416   6.297   2.866  15.123 -0.1139  0.6643  0.7708
14309TIP3   OH264417   4.001   3.128   2.399  0.1418 -0.2470 -0.1643
14309TIP3    H164418   4.033   3.216   2.376  0.1299 -0.5540 -1.3444
14309TIP3    H264419   3.948   3.143   2.478  0.4069  0.7563 -0.1581
14310TIP3   OH264420   2.025   6.598  12.731  0.2414  0.5362 -0.1539
14310TIP3    H164421   2.075   6.547  12.795 -3.3476 -2.1908  0.6203
14310TIP3    H264422   2.063   6.575  12.646 -0.0389 -1.9220  0.3632
14311TIP3   OH264423   6.135   6.569   6.769 -0.5184  0.2669  0.2353
14311TIP3    H164424   6.188   6.531   6.839  0.3706 -0.0750 -0.6185
14311TIP3    H264425   6.051   6.524   6.776 -0.6047  0.5890  1.3906
14312TIP3   OH264426   1.244   6.536   4.159  0.1590 -0.0775  0.0961
14312TIP3    H164427   1.265   6.462   4.217  0.8053 -0.9737 -1.2412
14312TIP3    H264428   1.215   6.494   4.077  1.5949  1.1225 -1.0672
14313TIP3   OH264429   1.246   3.554   3.868  0.0409 -0.4589  0.3297
14313TIP3    H164430   1.217   3.590   3.952 -1.6053  1.5012 -1.0297
14313TIP3    H264431   1.166   3.524   3.826  0.7003 -0.3488 -1.0286
14314TIP3   OH264432   5.607   1.813   1.846 -0.0948 -0.4298  0.5215
14314TIP3    H164433   5.654   1.771   1.919  0.2466  2.0532  1.7803
14314TIP3    H264434   5.516   1.816   1.876 -0.0430  0.1250  0.6165
14315TIP3   OH264435   3.760   0.987   2.493  0.3484  0.2394 -0.0948
14315TIP3    H164436   3.697   0.915   2.491  1.2708 -0.5983  0.6106
14315TIP3    H264437   3.738   1.036   2.572 -1.1993  1.5902 -1.3290
14316TIP3   OH264438   3.890   4.665  16.262 -0.1729 -0.4845  0.8398
14316TIP3    H164439   3.829   4.609  16.213  0.0311 -1.0706  1.2479
14316TIP3    H264440   3.836   4.738  16.292 -0.8732 -1.4519  1.9522
14317TIP3   OH264441   4.356   4.063  15.197 -0.0758  0.3153 -0.0840
14317TIP3    H164442   4.276   4.051  15.146 -0.1147 -1.9785  0.4283
14317TIP3    H264443   4.416   4.108  15.138 -2.5487  4.4324  0.3785
14318TIP3   OH264444   0.566   6.217  13.256 -0.2187  0.6508  0.1233
14318TIP3    H164445   0.583   6.300  13.301  1.3551  0.1145  0.5563
14318TIP3    H264446   0.519   6.241  13.177  0.8039  2.0237 -0.0736
14319TIP3   OH264447   5.441   1.164  14.672 -0.4420 -0.3873 -0.0534
14319TIP3    H164448   5.536   1.159  14.664 -0.3157  0.1933  1.0293
14319TIP3    H264449   5.410   1.078  14.646  0.3858 -0.6183 -0.2913
14320TIP3   OH264450   2.310   2.271  12.922  0.1605 -0.2081  0.3725
14320TIP3    H164451   2.268   2.192  12.956 -2.3117  0.5844 -0.7160
14320TIP3    H264452   2.341   2.317  13.000 -0.2376 -1.2380  1.1516
14321TIP3   OH264453   0.182   2.125  14.130  0.4806 -0.1098 -0.0534
14321TIP3    H164454   0.243   2.051  14.137  0.0299 -0.4183  0.5891
14321TIP3    H264455   0.115   2.108  14.195  0.0752  0.5930 -0.2779
14322TIP3   OH264456   6.647   0.121  14.005 -0.6604  0.3811  0.2678
14322TIP3    H164457   6.580   0.184  14.030 -1.7117 -0.6146  0.0046
14322TIP3    H264458   6.598   0.046  13.972  0.6360  0.4242 -1.8142
14323TIP3   OH264459   4.964   4.144   1.236 -0.7571 -0.7788 -0.8447
14323TIP3    H164460   5.001   4.098   1.160 -0.4737  0.0555 -1.2162
14323TIP3    H264461   4.992   4.092   1.311 -0.4476 -1.2229 -1.2619
14324TIP3   OH264462   5.707   0.385   2.804 -0.3430  0.1567  0.0177
14324TIP3    H164463   5.683   0.477   2.816 -1.1581  0.0141 -0.4453
14324TIP3    H264464   5.738   0.380   2.714  2.0705  0.4644  0.8162
14325TIP3   OH264465   4.553   6.607  15.490  0.1171 -0.0809 -1.0666
14325TIP3    H164466   4.504   6.527  15.471  2.0089 -1.6680  0.4564
14325TIP3    H264467   4.491   6.662  15.538 -1.1933 -0.6682 -2.0713
14326TIP3   OH264468   4.116   2.889   4.757  0.1587  0.3403 -0.0035
14326TIP3    H164469   4.123   2.801   4.792 -0.2281  0.5194  0.5346
14326TIP3    H264470   4.088   2.942   4.831  1.4448  1.1130 -0.0522
14327TIP3   OH264471   5.754   1.102  16.093  0.2956  0.6141 -0.3303
14327TIP3    H164472   5.779   1.158  16.167 -0.9769  1.5918 -0.6207
14327TIP3    H264473   5.769   1.013  16.124 -0.7975  0.9953  1.3277
14328TIP3   OH264474   2.777   6.490  12.590  0.3350 -0.5802  0.4226
14328TIP3    H164475   2.855   6.546  12.591  0.3130 -0.5553  2.2518
14328TIP3    H264476   2.797   6.422  12.526  0.9007  0.7491 -0.8666
14329TIP3   OH264477   3.728   2.098   3.277 -0.5917  0.2900  0.3089
14329TIP3    H164478   3.645   2.145   3.285 -0.3683  0.4693  1.7369
14329TIP3    H264479   3.763   2.125   3.192 -1.7742  0.5595 -0.1048
14330TIP3   OH264480   4.134   6.256  11.650  0.0607  0.2478  0.1530
14330TIP3    H164481   4.170   6.218  11.729  2.4303 -0.4663 -1.1995
14330TIP3    H264482   4.092   6.183  11.604  0.3397  0.2600 -0.1271
14331TIP3   OH264483   2.335   0.257   3.458  0.3432  0.4991  0.6899
14331TIP3    H164484   2.326   0.307   3.378  0.1589  1.5961  1.3846
14331TIP3    H264485   2.394   0.184   3.435 -0.2855  0.3979 -0.6033
14332TIP3   OH264486   1.942   2.538  15.556  1.0750  0.0734  0.0999
14332TIP3    H164487   1.985   2.619  15.581  0.1470  0.2075  1.3279
14332TIP3    H264488   2.009   2.471  15.564  0.9984  0.2229  2.3468
14333TIP3   OH264489   2.840   0.084   3.711 -0.2256 -0.0941 -0.1630
14333TIP3    H164490   2.851   0.016   3.644 -0.7474  0.3252 -0.6843
14333TIP3    H264491   2.927   0.097   3.747 -0.5562 -2.9468  1.8222
14334TIP3   OH264492   1.818   5.020  12.412  0.0847  0.2026  0.0425
14334TIP3    H164493   1.735   5.012  12.459  0.8885 -0.7231  1.3141
14334TIP3    H264494   1.846   5.110  12.428  0.9057 -0.4308  2.2838
14335TIP3   OH264495   2.034   2.396  13.115 -0.4274 -0.2353 -0.3444
14335TIP3    H164496   2.010   2.472  13.063  1.2996  0.2330 -0.5048
14335TIP3    H264497   1.987   2.406  13.197 -1.1384  0.3785 -0.8218
14336TIP3   OH264498   6.410   1.576  12.697 -0.2022 -0.5672  0.0303
14336TIP3    H164499   6.435   1.494  12.741  0.3059 -0.8050 -0.6929
14336TIP3    H264500   6.418   1.643  12.765  0.2959 -0.9804  0.3841
14337TIP3   OH264501   1.152   1.821   0.991 -0.0167 -0.0885 -0.1248
14337TIP3    H164502   1.237   1.854   1.021 -0.3974  1.0254 -0.2393
14337TIP3    H264503   1.156   1.828   0.896  0.1415 -1.0033 -0.1910
14338TIP3   OH264504   2.389   6.134   1.176  0.9890 -0.2851  0.0707
14338TIP3    H164505   2.403   6.115   1.268 -1.1702 -0.4965  0.3780
14338TIP3    H264506   2.417   6.055   1.130 -0.7309 -1.3318  0.7810
14339TIP3   OH264507   3.908   3.540   4.716 -0.1460  0.0694 -0.3811
14339TIP3    H164508   3.876   3.581   4.635 -1.6459  0.3777  0.3521
14339TIP3    H264509   4.002   3.560   4.717 -0.2885  0.8934 -1.5590
14340TIP3   OH264510   1.901   2.579   5.754  0.0698  0.5176 -0.0329
14340TIP3    H164511   1.876   2.623   5.673 -0.5709 -0.0600 -0.1572
14340TIP3    H264512   1.948   2.500   5.726 -0.8485 -0.1044  0.1200
14341TIP3   OH264513   2.430   0.787   4.121  0.7621  0.1320 -0.0380
14341TIP3    H164514   2.506   0.804   4.066 -0.5719 -0.6891 -2.2115
14341TIP3    H264515   2.363   0.755   4.060 -1.3882  1.0273  1.7839
14342TIP3   OH264516   2.729   2.159   2.985 -0.1754  0.0231  0.1063
14342TIP3    H164517   2.815   2.173   2.945  0.3436 -2.7924  0.1296
14342TIP3    H264518   2.671   2.218   2.937  1.6461  1.5273 -0.3205
14343TIP3   OH264519   1.278   3.517  15.909 -0.6730 -0.0062 -0.1486
14343TIP3    H164520   1.213   3.546  15.973 -1.0927  1.5748 -1.2537
14343TIP3    H264521   1.247   3.552  15.825  2.1104  1.6979 -0.5457
14344TIP3   OH264522   3.498   1.339  11.794  0.7132  0.3160  0.2470
14344TIP3    H164523   3.455   1.420  11.766 -0.4471 -0.0349  0.9783
14344TIP3    H264524   3.560   1.320  11.723  0.9651  1.8026  0.0410
14345TIP3   OH264525   6.652   3.453   5.427 -0.0721  0.1613 -0.7230
14345TIP3    H164526   6.735   3.419   5.461 -0.3493 -1.3808 -1.5713
14345TIP3    H264527   6.608   3.376   5.391 -2.1600  0.8486  0.3114
14346TIP3   OH264528   5.392   0.320   3.872  0.0660  0.0407  0.0442
14346TIP3    H164529   5.403   0.260   3.946  0.2065 -1.8737 -1.5027
14346TIP3    H264530   5.334   0.273   3.812 -0.6509  1.8959 -0.7380
14347TIP3   OH264531   5.708   2.282   1.280 -0.3593  0.2303 -0.7005
14347TIP3    H164532   5.801   2.289   1.305 -0.4582  0.1483 -0.3042
14347TIP3    H264533   5.674   2.370   1.288 -1.0600 -0.2652  2.1264
14348TIP3   OH264534   1.493   0.369   2.607 -0.1371 -0.2558  0.0267
14348TIP3    H164535   1.406   0.358   2.645  0.3611  0.4681  1.4088
14348TIP3    H264536   1.540   0.289   2.628  0.3876  0.4571  1.6594
14349TIP3   OH264537   1.211   0.523   0.173  0.1636  0.1302  0.4826
14349TIP3    H164538   1.163   0.503   0.253 -0.4677 -0.0413  0.0633
14349TIP3    H264539   1.188   0.453   0.113  0.9088  0.0694  0.2595
14350TIP3   OH264540   3.462   4.496  10.484 -0.4174  0.2727 -0.0144
14350TIP3    H164541   3.511   4.542  10.416 -1.4217 -1.5971 -2.0708
14350TIP3    H264542   3.508   4.412  10.493 -0.3798  0.4511  1.5400
14351TIP3   OH264543   5.057   3.689   6.212  0.4624  0.4984 -0.4127
14351TIP3    H164544   5.011   3.657   6.289  0.1446  1.6207 -0.1351
14351TIP3    H264545   5.082   3.778   6.234  0.5875  0.7425 -1.5120
14352TIP3   OH264546   4.646   6.748   5.274 -0.1555  0.2539  0.0837
14352TIP3    H164547   4.655   6.753   5.179 -2.1517  0.4754 -0.1075
14352TIP3    H264548   4.736   6.738   5.306  0.8486  3.2793 -1.5976
14353TIP3   OH264549   6.796   3.506   5.859 -0.3993 -0.6642  0.2058
14353TIP3    H164550   6.708   3.487   5.890 -0.3191 -0.2294  0.6951
14353TIP3    H264551   6.783   3.573   5.791 -0.3008  0.6382  1.4518
14354TIP3   OH264552   6.730   5.126  15.946  0.1145  0.3880  0.0228
14354TIP3    H164553   6.728   5.174  15.864  0.2235  1.4269  0.6215
14354TIP3    H264554   6.816   5.083  15.947  0.1681  0.4833 -0.3360
14355TIP3   OH264555   1.928   5.942  12.477  0.1836  0.3044 -0.3265
14355TIP3    H164556   1.945   5.847  12.476 -2.5943 -0.2251  0.1930
14355TIP3    H264557   1.947   5.969  12.387  1.0530 -0.7305 -0.4760
14356TIP3   OH264558   0.313   3.297  15.138 -0.5720  0.4075 -0.6007
14356TIP3    H164559   0.338   3.357  15.208  1.7711  0.9879 -1.8440
14356TIP3    H264560   0.234   3.334  15.100 -1.5002  0.4168  1.3265
14357TIP3   OH264561   6.245   0.064   6.433 -0.6033 -0.2913 -0.0691
14357TIP3    H164562   6.195   0.122   6.490 -2.6438 -2.5697  0.5640
14357TIP3    H264563   6.224   0.094   6.344  0.2202  1.3755  0.2805
14358TIP3   OH264564   0.588   6.431   2.803  0.2339 -0.3715 -0.6063
14358TIP3    H164565   0.535   6.366   2.758 -0.3793  1.0320 -1.9722
14358TIP3    H264566   0.578   6.411   2.896 -1.8051 -0.7986 -0.8938
14359TIP3   OH264567   0.669   4.374  11.161  0.1719  0.3604  0.0113
14359TIP3    H164568   0.749   4.321  11.151 -0.0621 -0.1097  0.6012
14359TIP3    H264569   0.625   4.337  11.237 -0.9596  0.1752 -0.7110
14360TIP3   OH264570   1.808   5.976   5.015 -0.3513 -0.2378  0.2437
14360TIP3    H164571   1.754   5.975   5.093  0.8307 -1.1433  1.0613
14360TIP3    H264572   1.866   5.900   5.024  0.6033  0.3258 -0.9216
14361TIP3   OH264573   0.017   2.345  13.448  0.9048  0.2075 -0.0589
14361TIP3    H164574   0.095   2.335  13.504 -1.1751 -2.1685  2.5554
14361TIP3    H264575   0.012   2.263  13.399 -0.9240 -0.4030  1.1180
14362TIP3   OH264576   4.853   4.848  11.504 -0.2359 -0.5256  0.0394
14362TIP3    H164577   4.844   4.762  11.544 -0.5425 -0.6276 -0.2488
14362TIP3    H264578   4.841   4.833  11.410 -0.4265 -0.1547  0.0016
14363TIP3   OH264579   1.085   1.628   5.369 -0.3321 -0.0917 -0.3924
14363TIP3    H164580   1.088   1.646   5.463  0.6091  1.4326 -0.6902
14363TIP3    H264581   0.995   1.602   5.352  0.3889 -4.1181  1.5532
14364TIP3   OH264582   5.284   2.393   5.902 -0.2198  0.4484  0.3009
14364TIP3    H164583   5.350   2.414   5.969 -0.0868 -0.9820  0.6372
14364TIP3    H264584   5.259   2.302   5.921 -1.8762  0.7872 -0.1740
14365TIP3   OH264585   6.694   5.883   1.697  0.3980 -0.4935 -0.1406
14365TIP3    H164586   6.624   5.887   1.632 -0.0480 -2.5537  0.1750
14365TIP3    H264587   6.654   5.916   1.778 -0.1350 -1.3654 -0.0390
14366TIP3   OH264588   2.358   2.087  11.570  0.6175  0.1261  0.5185
14366TIP3    H164589   2.307   2.141  11.631  0.2652  0.4993 -0.0904
14366TIP3    H264590   2.366   2.002  11.613  0.6356  0.4781  1.2138
14367TIP3   OH264591   3.014   4.660   0.539  0.0541 -0.1236  0.3046
14367TIP3    H164592   2.986   4.670   0.630 -0.6124 -1.4562  0.2664
14367TIP3    H264593   2.933   4.661   0.489  0.2740 -1.2658 -0.0868
14368TIP3   OH264594   5.512   4.151   5.357  0.8363  0.0175 -0.7381
14368TIP3    H164595   5.425   4.114   5.342 -0.0940  1.5893  0.6244
14368TIP3    H264596   5.505   4.242   5.328  1.5233  0.6238  0.9296
14369TIP3   OH264597   0.163   1.676  16.003 -0.1151  0.1527  0.2545
14369TIP3    H164598   0.214   1.757  16.011 -1.7106  1.2602 -0.6050
14369TIP3    H264599   0.225   1.613  15.966  0.4297  1.7267 -1.5802
14370TIP3   OH264600   0.155   0.710   2.921 -0.2982 -0.1245 -0.1187
14370TIP3    H164601   0.240   0.704   2.965 -0.0332 -2.8330 -0.9184
14370TIP3    H264602   0.172   0.678   2.833 -1.4119  2.7042 -1.4260
14371TIP3   OH264603   4.388   1.430   5.183 -0.1588 -1.0938 -0.4325
14371TIP3    H164604   4.314   1.452   5.240 -0.6107  0.2101 -1.5000
14371TIP3    H264605   4.448   1.381   5.240 -1.5550 -1.6532  0.6065
14372TIP3   OH264606   3.227   5.670  15.055  0.6339  0.0900 -0.3670
14372TIP3    H164607   3.311   5.701  15.087  1.6184 -1.6217 -1.2148
14372TIP3    H264608   3.234   5.676  14.959  1.1039 -3.3168 -0.5812
14373TIP3   OH264609   5.365   0.143  13.656 -0.3970 -0.3474 -0.3437
14373TIP3    H164610   5.374   0.050  13.633 -1.2219 -0.3747 -0.5802
14373TIP3    H264611   5.455   0.176  13.657 -0.1745 -0.8735 -1.4448
14374TIP3   OH264612   2.337   6.787   3.407  0.2703  0.1811  0.0548
14374TIP3    H164613   2.269   6.817   3.467  0.3967  0.1821  0.1992
14374TIP3    H264614   2.297   6.713   3.361  0.6893 -0.8005  1.2352
14375TIP3   OH264615   2.605   2.267   1.337 -0.4707 -0.1353  0.4228
14375TIP3    H164616   2.623   2.211   1.412 -2.6847  0.3370  1.3494
14375TIP3    H264617   2.624   2.356   1.368 -0.3580 -0.0411  0.0859
14376TIP3   OH264618   4.574   5.463  13.763 -0.0175 -0.6866  0.2066
14376TIP3    H164619   4.540   5.391  13.710 -1.1639 -0.6074  0.8008
14376TIP3    H264620   4.524   5.458  13.845 -0.8546  1.3902 -0.1335
14377TIP3   OH264621   1.465   5.612   1.448 -0.1245 -0.6970 -0.1669
14377TIP3    H164622   1.413   5.538   1.418 -1.2627  0.0325 -0.0325
14377TIP3    H264623   1.512   5.642   1.370 -1.4833 -0.0935 -0.7692
14378TIP3   OH264624   0.344   6.395  10.906  0.3493 -0.3466 -0.9587
14378TIP3    H164625   0.416   6.458  10.911  0.3709 -0.2948 -1.9826
14378TIP3    H264626   0.280   6.427  10.970  0.8952  0.0237 -0.5894
14379TIP3   OH264627   3.253   6.613  12.341  0.3562 -0.1488 -0.6959
14379TIP3    H164628   3.335   6.657  12.319  1.2315 -1.6404 -0.4820
14379TIP3    H264629   3.278   6.545  12.404 -0.8106 -1.5588 -1.7032
14380TIP3   OH264630   3.976   4.689  10.709  0.4301  0.2812 -0.5103
14380TIP3    H164631   4.030   4.626  10.660 -0.6027  0.4941 -1.9726
14380TIP3    H264632   3.975   4.767  10.654 -0.2006  0.7648  0.1836
14381TIP3   OH264633   3.829   3.547   1.763 -0.0814 -0.1024 -0.3411
14381TIP3    H164634   3.776   3.546   1.683  0.7721  0.6997 -0.9194
14381TIP3    H264635   3.873   3.462   1.763 -1.4433 -0.8241  0.2043
14382TIP3   OH264636   4.537   6.632   5.501  0.8938  0.0944  0.3075
14382TIP3    H164637   4.563   6.662   5.414  0.0391  0.6197  0.2199
14382TIP3    H264638   4.544   6.537   5.497  2.2727  0.2050  0.1278
14383TIP3   OH264639   5.319   5.767   2.313 -0.7452  0.1125  0.1522
14383TIP3    H164640   5.292   5.845   2.263 -0.5619  0.3707  0.4575
14383TIP3    H264641   5.319   5.796   2.404  0.6132  0.1240  0.1512
14384TIP3   OH264642   1.073   2.241   3.685  0.1472  0.4863 -0.4687
14384TIP3    H164643   1.089   2.315   3.744  2.0322  2.6413 -3.5741
14384TIP3    H264644   1.139   2.176   3.712 -0.5886  0.4432  1.3379
14385TIP3   OH264645   4.850   3.016  12.826  0.0228 -0.3924 -0.1347
14385TIP3    H164646   4.826   3.035  12.917 -1.0768 -0.7280 -0.3490
14385TIP3    H264647   4.905   2.938  12.832 -0.4585 -0.7138  0.2095
14386TIP3   OH264648   2.957   4.570  17.242 -0.3108 -0.3640  0.3312
14386TIP3    H164649   3.033   4.562  17.185 -1.2711 -0.6381 -0.9243
14386TIP3    H264650   2.916   4.652  17.216 -0.4889 -0.2556  0.9522
14387TIP3   OH264651   6.612   4.356  10.856 -0.5631 -0.0462 -0.4705
14387TIP3    H164652   6.674   4.341  10.927 -1.0170  0.5456  0.0608
14387TIP3    H264653   6.530   4.380  10.901 -0.2178  2.6421 -1.2417
14388TIP3   OH264654   0.426   5.924   1.407  0.1961 -0.2583  0.0137
14388TIP3    H164655   0.513   5.962   1.396  0.0191  0.9779  2.6385
14388TIP3    H264656   0.370   5.976   1.350  0.6289  1.0441  0.7452
14389TIP3   OH264657   4.586   4.625   4.623  0.0084 -0.1409  0.3680
14389TIP3    H164658   4.530   4.659   4.692  1.3950  0.0544  1.4357
14389TIP3    H264659   4.587   4.694   4.557  0.4641  0.6545  1.1877
14390TIP3   OH264660   1.104   1.449  15.929  0.6057  0.3364  0.0702
14390TIP3    H164661   1.050   1.374  15.907 -0.2285  0.5881  1.2794
14390TIP3    H264662   1.063   1.488  16.006  1.3665  1.6822 -0.1768
14391TIP3   OH264663   0.393   2.819   2.993  0.0886 -0.0894 -0.3970
14391TIP3    H164664   0.357   2.901   2.957 -0.3650  0.3805  1.0554
14391TIP3    H264665   0.481   2.813   2.956 -0.7756 -0.2555 -2.4973
14392TIP3   OH264666   0.346   5.980   2.081 -1.0384 -0.3304  0.4494
14392TIP3    H164667   0.431   6.008   2.047 -2.2404  2.2549 -0.5552
14392TIP3    H264668   0.317   5.911   2.022 -0.1174 -0.5091  0.1999
14393TIP3   OH264669   2.885   3.656  12.940 -0.4169 -0.5024  0.6544
14393TIP3    H164670   2.927   3.670  12.855  1.3072  0.8971  1.7078
14393TIP3    H264671   2.868   3.562  12.943  0.5778 -0.7395 -0.7479
14394TIP3   OH264672   4.597   5.772   5.310 -0.2800  0.7596  0.4212
14394TIP3    H164673   4.627   5.853   5.268 -0.4581  0.4696 -0.2735
14394TIP3    H264674   4.635   5.775   5.397  1.5259  0.5383 -0.3420
14395TIP3   OH264675   6.708   3.065   5.239  0.4915 -0.2422 -0.8102
14395TIP3    H164676   6.663   3.017   5.170 -0.5345 -0.5951  0.0758
14395TIP3    H264677   6.783   3.106   5.196  0.3700 -1.1823 -1.9341
14396TIP3   OH264678   5.150   2.815   4.398  0.0086 -0.0701  0.3649
14396TIP3    H164679   5.237   2.789   4.426 -1.5078 -2.1043  3.4251
14396TIP3    H264680   5.138   2.902   4.436  0.3714 -0.1723  0.7170
14397TIP3   OH264681   5.213   5.996   5.124  0.3596 -0.2715  0.5501
14397TIP3    H164682   5.276   6.066   5.141  0.4600 -0.1218 -0.4101
14397TIP3    H264683   5.139   6.041   5.082  0.3298 -0.6998  0.1348
14398TIP3   OH264684   4.841   2.210   2.254  0.1910  0.7342  0.0147
14398TIP3    H164685   4.843   2.258   2.172  0.2627 -1.6149 -1.3903
14398TIP3    H264686   4.820   2.277   2.320 -1.2257  2.4084 -2.0549
14399TIP3   OH264687   0.068   3.426  15.069 -0.3519  0.4374  0.1862
14399TIP3    H164688  -0.004   3.398  15.013 -0.2124  0.3484  0.0511
14399TIP3    H264689   0.055   3.520  15.080 -0.2289  0.4980 -0.2070
14400TIP3   OH264690   4.133   0.721  11.207 -0.2524  0.2523 -0.6805
14400TIP3    H164691   4.114   0.657  11.276 -1.4576  0.2781 -0.9822
14400TIP3    H264692   4.152   0.802  11.254  1.4547 -0.3500 -0.2866
14401TIP3   OH264693   0.515   6.224  10.790  0.2544 -0.2232 -0.0312
14401TIP3    H164694   0.577   6.228  10.863  1.2919  0.2949 -0.9339
14401TIP3    H264695   0.445   6.284  10.816 -0.3322 -1.4653  1.3898
14402TIP3   OH264696   3.956   0.143   1.412 -0.0287 -0.1366  0.5456
14402TIP3    H164697   3.901   0.167   1.487 -0.7303  1.8082 -0.5648
14402TIP3    H264698   3.894   0.130   1.340  0.6710 -1.6816  0.1950
14403TIP3   OH264699   6.183   3.887  11.631  0.0351 -0.1380 -1.0953
14403TIP3    H164700   6.260   3.911  11.683 -0.0752 -1.4496 -0.3045
14403TIP3    H264701   6.150   3.807  11.672 -2.5014  1.0839 -0.6301
14404TIP3   OH264702   5.906   6.648  14.209 -0.2821  0.1906  0.6383
14404TIP3    H164703   5.959   6.713  14.162  0.6753  0.5749  2.2209
14404TIP3    H264704   5.846   6.701  14.262  1.2798 -0.1810  2.8146
14405TIP3   OH264705   3.336   3.088  16.867 -0.5248  0.0248  0.3255
14405TIP3    H164706   3.251   3.048  16.884 -0.9245  1.6236  2.3594
14405TIP3    H264707   3.345   3.088  16.772 -3.2201  0.6663  0.0370
14406TIP3   OH264708   4.537   6.249   3.097 -0.2031 -0.1684 -0.4103
14406TIP3    H164709   4.487   6.219   3.172  0.0724 -1.3797 -0.7114
14406TIP3    H264710   4.481   6.315   3.056 -0.2905  0.6060  0.9274
14407TIP3   OH264711   6.607   6.396   4.752 -0.0606  0.6001  0.4995
14407TIP3    H164712   6.641   6.477   4.790  0.4346  0.9600 -0.6852
14407TIP3    H264713   6.623   6.405   4.658 -1.0644 -0.3708  0.2293
14408TIP3   OH264714   2.708   6.138  16.708 -0.0620  0.1958 -0.1303
14408TIP3    H164715   2.674   6.169  16.792  1.7533 -0.5230  0.8874
14408TIP3    H264716   2.629   6.112  16.659 -1.2042  1.5185  0.9576
14409TIP3   OH264717   1.789   1.591   4.893 -0.3322 -0.5883  0.2931
14409TIP3    H164718   1.811   1.679   4.863 -1.5800  0.0736  1.3173
14409TIP3    H264719   1.873   1.544   4.893  0.6617  1.1450  1.6239
14410TIP3   OH264720   5.576   6.142   5.999 -0.3080  0.0909  0.4354
14410TIP3    H164721   5.532   6.226   5.987 -0.5590 -0.2769 -1.4297
14410TIP3    H264722   5.664   6.165   6.030 -1.0112  0.9366  1.8506
14411TIP3   OH264723   2.920   5.034  10.640 -0.0314  0.2277 -0.3166
14411TIP3    H164724   2.977   5.090  10.588  2.3492 -0.8932  0.9951
14411TIP3    H264725   2.959   4.947  10.634 -0.1442 -0.0966  2.6229
14412TIP3   OH264726   4.694   0.945   0.830  0.0222 -0.3112 -0.1117
14412TIP3    H164727   4.712   1.038   0.817  0.1290 -0.2870  0.2028
14412TIP3    H264728   4.633   0.942   0.904  0.4890 -0.5239  0.2671
14413TIP3   OH264729   5.165   4.658   3.895  0.1880 -0.1554  0.2880
14413TIP3    H164730   5.241   4.670   3.952  0.2195 -1.3315  0.4980
14413TIP3    H264731   5.115   4.739   3.906  0.6058 -0.0281  1.3557
14414TIP3   OH264732   4.868   2.619  15.073  0.0130  0.0704 -0.3400
14414TIP3    H164733   4.782   2.656  15.094  0.5300  0.1247  1.7327
14414TIP3    H264734   4.931   2.675  15.119  0.9585 -1.8103  0.7101
14415TIP3   OH264735   5.769   5.651  11.135  0.2084 -0.0486  0.2183
14415TIP3    H164736   5.708   5.577  11.130  0.3381 -0.0321 -1.6090
14415TIP3    H264737   5.725   5.721  11.088  0.2702  0.9485  1.6062
14416TIP3   OH264738   0.610   2.515   2.264  0.1153  0.1579 -0.7071
14416TIP3    H164739   0.572   2.473   2.187  0.8629  2.6454 -2.4880
14416TIP3    H264740   0.537   2.566   2.301  0.6850  2.0039 -2.0217
14417TIP3   OH264741   2.573   6.633  12.491 -0.8761 -0.0176  0.3372
14417TIP3    H164742   2.634   6.598  12.555 -1.3941 -1.1214  0.2446
14417TIP3    H264743   2.624   6.645  12.412 -0.2896  1.1169  0.8794
14418TIP3   OH264744   5.344   4.610  14.153 -0.5724 -0.5054  0.2503
14418TIP3    H164745   5.271   4.672  14.154  0.3397  0.6611 -1.7028
14418TIP3    H264746   5.421   4.663  14.173  0.3830 -0.6987 -2.6188
14419TIP3   OH264747   6.776   2.790   1.448  0.0841 -0.9192 -0.1694
14419TIP3    H164748   6.707   2.780   1.514  1.2152 -0.3587  1.1299
14419TIP3    H264749   6.736   2.761   1.367 -1.8788 -0.0648  0.4636
14420TIP3   OH264750   1.004   0.487  11.849 -0.2804 -0.1538 -0.4656
14420TIP3    H164751   0.996   0.419  11.915 -0.6887  0.6599  0.3485
14420TIP3    H264752   1.085   0.466  11.801  1.2555  0.4903  1.7604
14421TIP3   OH264753   5.031   4.976   5.909 -0.2013  0.3179  0.5221
14421TIP3    H164754   5.043   5.067   5.882 -0.6883  0.6632  1.4344
14421TIP3    H264755   5.033   4.980   6.005  1.0467 -0.8067  0.5492
14422TIP3   OH264756   1.666   4.737  13.264  0.1499  0.2558  0.2954
14422TIP3    H164757   1.694   4.804  13.326 -1.0307  1.1003 -0.0632
14422TIP3    H264758   1.683   4.776  13.178 -0.9843  0.3040  0.0834
14423TIP3   OH264759   1.782   2.423  12.794 -0.1985 -0.0762  0.9187
14423TIP3    H164760   1.781   2.355  12.862  1.5007 -0.4114  0.6362
14423TIP3    H264761   1.831   2.384  12.722  0.5245  1.3443  0.6340
14424TIP3   OH264762   4.175   4.707  14.108 -0.4715  0.6508 -0.0639
14424TIP3    H164763   4.153   4.707  14.201 -0.8868 -0.4411 -0.1564
14424TIP3    H264764   4.172   4.615  14.082 -0.2207  0.9290 -1.1279
14425TIP3   OH264765   5.788   2.689  15.298  0.3506 -0.1953 -0.1411
14425TIP3    H164766   5.862   2.638  15.265  0.4015 -0.0928 -0.1883
14425TIP3    H264767   5.803   2.777  15.264  1.9092  0.6120  2.4406
14426TIP3   OH264768   6.338   5.258   0.412 -0.6910  0.0279  0.0739
14426TIP3    H164769   6.332   5.216   0.327 -0.2219 -2.4409  1.2233
14426TIP3    H264770   6.421   5.306   0.409 -2.1628  2.5492 -1.9458
14427TIP3   OH264771   3.424   2.518  16.224 -0.0546  0.0981  0.6385
14427TIP3    H164772   3.491   2.532  16.157 -0.1909 -0.9839  0.2602
14427TIP3    H264773   3.362   2.589  16.212  1.3131  1.4425  1.3542
14428TIP3   OH264774   3.237   4.039  12.520 -0.8858 -0.0128 -0.1395
14428TIP3    H164775   3.199   3.952  12.508  0.1069 -0.4068 -0.4705
14428TIP3    H264776   3.246   4.048  12.615  0.1361 -0.7628 -0.1641
14429TIP3   OH264777   0.909   6.460  15.945 -0.0642  0.4027 -0.3472
14429TIP3    H164778   0.813   6.452  15.939 -0.4661  2.3295  2.4094
14429TIP3    H264779   0.927   6.548  15.912  0.4473  0.9994  1.4724
14430TIP3   OH264780   0.541   1.062   4.460 -0.3479 -0.1968 -0.1213
14430TIP3    H164781   0.472   1.075   4.394 -0.0576 -1.7342 -0.7470
14430TIP3    H264782   0.617   1.105   4.422 -0.0545 -1.4808 -1.0386
14431TIP3   OH264783   3.875   1.841   2.766  0.0433 -0.1050  0.2499
14431TIP3    H164784   3.821   1.764   2.783  2.4187 -1.4684  1.9373
14431TIP3    H264785   3.939   1.842   2.837  2.4413  1.2562 -1.8294
14432TIP3   OH264786   4.199   1.061   0.180 -0.3603 -0.3855  0.1259
14432TIP3    H164787   4.198   1.121   0.106  1.3204  1.3598  1.4827
14432TIP3    H264788   4.289   1.061   0.211 -0.7233 -2.1816  1.3204
14433TIP3   OH264789   4.637   0.130  14.440 -0.2019 -0.7106 -0.3850
14433TIP3    H164790   4.717   0.172  14.473 -1.3315 -0.2250  1.8513
14433TIP3    H264791   4.644   0.137  14.345  0.8483  2.3418 -0.1542
14434TIP3   OH264792   1.692   1.148  11.712 -0.1459 -1.1560  0.7804
14434TIP3    H164793   1.597   1.164  11.718 -0.0774 -0.9126  1.1754
14434TIP3    H264794   1.731   1.235  11.712  0.0080 -1.2173 -0.6011
14435TIP3   OH264795   0.055   0.405   1.409  0.8319 -0.0742  0.1739
14435TIP3    H164796   0.080   0.340   1.475  0.0273  1.0258  1.6014
14435TIP3    H264797   0.106   0.483   1.432 -0.1179  0.5931  0.0292
14436TIP3   OH264798   4.774   6.706   5.030  0.0839  0.1729  0.5221
14436TIP3    H164799   4.779   6.612   5.047  2.7154 -0.1992 -1.8827
14436TIP3    H264800   4.864   6.737   5.040 -0.6030  2.2756  0.4663
14437TIP3   OH264801   2.203   3.394   0.670  0.1337 -0.0735 -0.0319
14437TIP3    H164802   2.230   3.302   0.665  0.8755  0.1210  0.3810
14437TIP3    H264803   2.152   3.400   0.750  0.9018  0.0883  0.4430
14438TIP3   OH264804   0.234   4.948   6.213  0.2483  0.4043  0.3782
14438TIP3    H164805   0.329   4.937   6.207  0.4031  1.7918  0.2258
14438TIP3    H264806   0.222   5.032   6.256 -0.9201 -0.3633  1.5743
14439TIP3   OH264807   6.787   4.817   1.887 -0.0677  0.1727  0.1373
14439TIP3    H164808   6.800   4.865   1.805 -0.0153 -0.7781 -0.4263
14439TIP3    H264809   6.862   4.841   1.941  1.5726 -1.5501 -1.2730
14440TIP3   OH264810   4.977   5.644   2.703  0.1776  0.6448  0.2189
14440TIP3    H164811   4.891   5.625   2.665  0.0056  2.0301 -0.0969
14440TIP3    H264812   5.025   5.562   2.695 -0.2000  0.6087 -2.0281
14441TIP3   OH264813   1.624   1.632  12.842  0.1893 -0.6698  0.1544
14441TIP3    H164814   1.711   1.670  12.827  0.5599 -0.3682  2.7332
14441TIP3    H264815   1.640   1.560  12.904 -0.9513 -2.9928 -2.1430
14442TIP3   OH264816   6.224   5.781  13.596 -0.2120  0.0026  0.3912
14442TIP3    H164817   6.198   5.713  13.657 -0.7890 -1.2599 -1.2087
14442TIP3    H264818   6.232   5.736  13.512 -0.8932  1.9525 -0.7656
14443TIP3   OH264819   4.700   5.975  13.456 -0.1731  0.3016  0.5197
14443TIP3    H164820   4.640   5.990  13.529  0.7745  2.7596  0.8593
14443TIP3    H264821   4.787   5.970  13.496 -0.0835 -3.3986  0.0574
14444TIP3   OH264822   5.549   0.073  14.672  0.3455 -0.0954 -0.2127
14444TIP3    H164823   5.583   0.118  14.749 -0.5994  0.8167 -0.3110
14444TIP3    H264824   5.503  -0.003  14.707  1.5942 -0.7636 -0.0129
14445TIP3   OH264825   1.135   1.373   2.687 -0.3636 -0.6704 -0.2220
14445TIP3    H164826   1.208   1.412   2.640 -0.6888 -0.1438 -0.2921
14445TIP3    H264827   1.090   1.320   2.622 -2.0956  1.7790 -1.0920
14446TIP3   OH264828   2.738   1.084   1.094 -0.3650  0.1389  0.7863
14446TIP3    H164829   2.697   1.040   1.020 -1.1369 -0.4009  1.5290
14446TIP3    H264830   2.780   1.014   1.144  1.7792  0.7118 -0.1384
14447TIP3   OH264831   0.310   2.271  12.084  0.6154  0.7201 -0.1114
14447TIP3    H164832   0.333   2.361  12.107  0.4357  0.2687  1.9808
14447TIP3    H264833   0.249   2.244  12.153 -0.1164 -0.6784 -1.2734
14448TIP3   OH264834   2.880   5.379   5.229 -0.0330  0.2561 -0.6387
14448TIP3    H164835   2.833   5.360   5.149  0.8303  1.0417 -1.3420
14448TIP3    H264836   2.883   5.295   5.275 -1.4004  0.0251 -0.9441
14449TIP3   OH264837   6.325   1.689   6.273 -0.2157  0.3049 -0.3202
14449TIP3    H164838   6.308   1.614   6.330 -1.2933  1.6014  1.0847
14449TIP3    H264839   6.416   1.713   6.293  0.1665 -0.6598 -0.8389
14450TIP3   OH264840   6.322   4.334  16.439  0.0816 -0.3882  0.2532
14450TIP3    H164841   6.335   4.340  16.534  2.0921  2.8625 -0.1743
14450TIP3    H264842   6.226   4.334  16.429 -0.1682  0.9331  2.2278
14451TIP3   OH264843   2.849   6.755   4.722  0.0469 -0.0189 -0.1835
14451TIP3    H164844   2.759   6.763   4.753 -0.2462  0.0853 -1.0462
14451TIP3    H264845   2.900   6.808   4.783 -0.3006 -1.0442  1.0307
14452TIP3   OH264846   1.015   2.664   5.127 -0.0292 -0.1583 -0.0977
14452TIP3    H164847   1.015   2.751   5.168 -1.1831 -0.3757  0.3771
14452TIP3    H264848   1.006   2.603   5.201  1.4723 -0.7239 -0.3621
14453TIP3   OH264849   6.575   0.800   1.942  0.6693 -0.2723 -0.4976
14453TIP3    H164850   6.585   0.847   1.859 -1.6769 -0.7549 -1.0816
14453TIP3    H264851   6.525   0.722   1.919  1.7689 -1.4572  1.0342
14454TIP3   OH264852   4.047   3.038  15.439  0.1406  0.2479  0.6270
14454TIP3    H164853   4.029   2.944  15.432  2.1080 -0.0148 -1.2774
14454TIP3    H264854   4.134   3.043  15.476 -0.8084  1.3869  2.7593
14455TIP3   OH264855   1.381   4.408   1.910 -0.8457 -0.2469 -0.2311
14455TIP3    H164856   1.401   4.315   1.894  0.6298  0.0535 -0.1934
14455TIP3    H264857   1.286   4.413   1.903 -1.1052 -2.1196  1.5999
14456TIP3   OH264858   1.637   5.214   3.780 -0.0826  0.7876  0.1328
14456TIP3    H164859   1.673   5.130   3.808  1.2629  1.3722  0.2267
14456TIP3    H264860   1.646   5.271   3.856 -1.3201  0.9220  0.1868
14457TIP3   OH264861   5.530   5.540  15.078  0.3441  0.5558  0.1282
14457TIP3    H164862   5.583   5.516  15.154  0.9628 -0.9968 -0.7666
14457TIP3    H264863   5.569   5.491  15.006 -0.5425  1.6270 -1.1004
14458TIP3   OH264864   0.282   2.784   5.631  0.8997  0.1767  0.1103
14458TIP3    H164865   0.310   2.704   5.588  0.4388 -0.4250  0.9033
14458TIP3    H264866   0.227   2.754   5.704 -0.5436  1.2669 -0.4983
14459TIP3   OH264867   1.858   6.021  15.793 -0.4485  0.3005 -0.1415
14459TIP3    H164868   1.918   6.068  15.851 -0.7585 -0.2892  0.6556
14459TIP3    H264869   1.877   6.056  15.706  1.9470 -0.7639 -0.0842
14460TIP3   OH264870   6.146   5.023  12.092  0.4793  0.2611  0.5793
14460TIP3    H164871   6.208   5.028  12.165 -0.4632 -0.0725  1.4202
14460TIP3    H264872   6.157   4.935  12.058  2.0360  0.9223 -0.7045
14461TIP3   OH264873   1.370   3.655   3.414 -0.6569  0.1195  0.2265
14461TIP3    H164874   1.321   3.637   3.334  0.2053 -0.2025 -0.2309
14461TIP3    H264875   1.308   3.703   3.470 -1.6883 -0.8182 -0.0989
14462TIP3   OH264876   2.544   1.049   0.639  0.3575  0.3424  0.0308
14462TIP3    H164877   2.519   0.960   0.614 -0.9214  0.9315 -0.8512
14462TIP3    H264878   2.613   1.072   0.576 -0.5805  0.6216 -0.9201
14463TIP3   OH264879   1.896   2.482   1.249 -0.1912 -0.2729 -0.0473
14463TIP3    H164880   1.963   2.450   1.189  0.4490  0.7977  0.0872
14463TIP3    H264881   1.941   2.489   1.334 -0.8136 -0.7656  0.3347
14464TIP3   OH264882   2.978   4.685   2.733  0.3098 -0.1915  0.5423
14464TIP3    H164883   3.051   4.656   2.788  0.4952 -3.1248 -1.1606
14464TIP3    H264884   2.943   4.605   2.695 -1.2698  1.5535 -1.8218
14465TIP3   OH264885   0.011   4.264   3.851  0.1628  0.3334 -0.3818
14465TIP3    H164886  -0.084   4.263   3.839  0.2315  0.6324 -0.9708
14465TIP3    H264887   0.031   4.354   3.874  0.6105  0.9039 -2.8835
14466TIP3   OH264888   2.368   4.813  13.918  0.2980 -0.3000 -0.0141
14466TIP3    H164889   2.340   4.830  14.008  2.8003 -0.1698  0.7679
14466TIP3    H264890   2.321   4.878  13.866 -0.7246  0.0099  1.2620
14467TIP3   OH264891   1.140   6.097   0.156  0.1133  0.0722 -0.4292
14467TIP3    H164892   1.117   6.097   0.063  2.3065 -0.9885 -0.9900
14467TIP3    H264893   1.227   6.135   0.160 -0.7923  2.1000  1.4628
14468TIP3   OH264894   6.192   1.327  11.392 -0.2527 -0.0292 -0.0782
14468TIP3    H164895   6.191   1.418  11.420  1.1253 -0.2536  0.7897
14468TIP3    H264896   6.195   1.331  11.297  0.8515  0.8756 -0.0217
14469TIP3   OH264897   5.223   0.716   0.314 -0.1818  0.0142  0.0902
14469TIP3    H164898   5.292   0.771   0.352  1.1823 -2.3356  1.1468
14469TIP3    H264899   5.172   0.687   0.390 -0.2619 -0.9781 -0.3362
14470TIP3   OH264900   1.697   2.365  11.849 -0.2878 -0.1470  0.1105
14470TIP3    H164901   1.701   2.460  11.860 -1.4945  0.0432 -1.0089
14470TIP3    H264902   1.770   2.344  11.791 -0.7608  0.2644 -0.6426
14471TIP3   OH264903   5.191   2.695  16.953 -0.3947  0.1096  0.0632
14471TIP3    H164904   5.112   2.693  17.007 -1.3152  1.1919 -1.2194
14471TIP3    H264905   5.174   2.631  16.884  0.6059 -0.9588  0.7708
14472TIP3   OH264906   1.558   5.530   1.930 -0.2964 -0.0052 -0.0721
14472TIP3    H164907   1.526   5.516   2.020  0.4545  0.7235  0.3145
14472TIP3    H264908   1.511   5.465   1.878 -0.3140 -0.8227  0.9447
14473TIP3   OH264909   4.042   3.354   3.225 -0.1416  0.1051  0.3276
14473TIP3    H164910   4.077   3.442   3.205 -0.8630  0.8898  2.4269
14473TIP3    H264911   3.987   3.367   3.302 -2.1235 -1.7946 -0.7009
14474TIP3   OH264912   6.401   0.256   4.701  0.2027  0.7045  0.2106
14474TIP3    H164913   6.329   0.196   4.684  0.2201  0.5232  0.7519
14474TIP3    H264914   6.371   0.340   4.669 -0.0084  0.5046 -0.1209
14475TIP3   OH264915   4.230   4.987  11.827 -0.1148  0.8900 -0.5315
14475TIP3    H164916   4.212   4.893  11.829 -1.5501  1.1889  1.3302
14475TIP3    H264917   4.303   4.996  11.765 -0.5475 -1.3399 -1.4030
14476TIP3   OH264918   5.138   3.359  11.136  0.2050 -0.1466 -0.1107
14476TIP3    H164919   5.084   3.301  11.083 -0.0185  1.8964 -2.1798
14476TIP3    H264920   5.104   3.349  11.225 -1.4981 -1.2345 -0.8650
14477TIP3   OH264921   6.718   4.283  15.705 -0.3364  0.1795 -0.0112
14477TIP3    H164922   6.787   4.257  15.766 -0.4833  0.3739  0.2409
14477TIP3    H264923   6.637   4.255  15.748 -0.5665  1.7868  0.6653
14478TIP3   OH264924   0.330   6.698  13.500  0.0422  0.0930 -0.0183
14478TIP3    H164925   0.241   6.685  13.468  0.6400 -2.0302 -0.9258
14478TIP3    H264926   0.364   6.771  13.448 -1.0873  0.7693  0.1876
14479TIP3   OH264927   0.937   1.544  14.201 -0.2604  0.5200 -0.4085
14479TIP3    H164928   0.976   1.617  14.154 -0.9232  0.4040 -1.1538
14479TIP3    H264929   0.872   1.508  14.140 -0.1538 -0.4956  0.0677
14480TIP3   OH264930   2.932   3.003   3.273 -0.3646 -0.2704  0.0382
14480TIP3    H164931   2.951   2.996   3.366 -0.3953  1.9328  0.2415
14480TIP3    H264932   2.840   2.980   3.264  0.2001 -2.7279  0.2113
14481TIP3   OH264933   5.456   5.318  16.682  0.1402 -0.0222  0.2036
14481TIP3    H164934   5.498   5.245  16.636  1.3984  0.2681  0.8694
14481TIP3    H264935   5.494   5.315  16.770  0.1625  1.3934  0.2504
14482TIP3   OH264936   3.516   5.665   0.330  0.1786 -0.4632  0.4499
14482TIP3    H164937   3.436   5.715   0.342  1.1053  1.0725  0.3627
14482TIP3    H264938   3.581   5.709   0.385  1.1224 -1.3017  0.0412
14483TIP3   OH264939   0.579   1.269  15.583  0.1021  0.0473 -0.4084
14483TIP3    H164940   0.618   1.345  15.625  0.2664 -0.5185  0.4595
14483TIP3    H264941   0.645   1.199  15.592  0.6009  0.1857 -2.5176
14484TIP3   OH264942   6.081   0.603   0.295 -0.1609 -0.0501 -0.2578
14484TIP3    H164943   6.122   0.589   0.210  1.6384  0.4695  0.4986
14484TIP3    H264944   6.153   0.596   0.358 -1.3313  0.3292  1.1591
14485TIP3   OH264945   2.095   5.484  14.789  0.3676 -0.4857 -0.2150
14485TIP3    H164946   2.157   5.501  14.718  0.5991  0.9156  0.3010
14485TIP3    H264947   2.134   5.525  14.866 -1.0432  0.1527  0.1886
14486TIP3   OH264948   5.302   1.622  11.893 -0.3833 -0.6930  0.3216
14486TIP3    H164949   5.209   1.599  11.895 -0.3983 -0.7084 -0.5258
14486TIP3    H264950   5.333   1.591  11.808  0.7247 -1.9135  1.1574
14487TIP3   OH264951   3.964   0.909   0.388  0.0187 -0.4190  0.6145
14487TIP3    H164952   4.015   0.973   0.339 -0.2184 -1.1849 -0.6607
14487TIP3    H264953   4.002   0.824   0.364 -0.8989 -0.8921  0.7975
14488TIP3   OH264954   1.649   1.736   0.944 -0.1205 -0.2523  0.2173
14488TIP3    H164955   1.554   1.733   0.953 -0.0344  0.1873  1.3588
14488TIP3    H264956   1.673   1.824   0.972  0.6042 -0.2895 -0.2731
14489TIP3   OH264957   5.335   3.371  16.089 -0.3277 -0.0565  0.1910
14489TIP3    H164958   5.403   3.428  16.054 -1.8916  2.5543  1.2632
14489TIP3    H264959   5.309   3.316  16.015 -0.8292  2.6545 -1.7080
14490TIP3   OH264960   5.527   4.815   3.623  0.0318  0.1090 -0.2618
14490TIP3    H164961   5.586   4.796   3.696 -0.8627  0.8790  0.6866
14490TIP3    H264962   5.441   4.826   3.664 -0.3884  1.1082 -1.3629
14491TIP3   OH264963   6.212   5.120  10.660 -0.6619  0.2791 -0.1628
14491TIP3    H164964   6.258   5.173  10.726 -0.6381 -2.0537  1.7444
14491TIP3    H264965   6.134   5.087  10.706 -2.2244  1.0033 -2.1992
14492TIP3   OH264966   1.700   6.225  12.372  0.4330 -0.0897  0.1625
14492TIP3    H164967   1.707   6.293  12.305  0.5508 -1.7484 -1.5470
14492TIP3    H264968   1.783   6.230  12.420  0.1788  1.3732  0.4952
14493TIP3   OH264969   1.502   2.221  13.835  0.1390  0.0030 -0.1255
14493TIP3    H164970   1.562   2.148  13.818 -0.8781 -0.5909 -1.2875
14493TIP3    H264971   1.419   2.178  13.858 -0.1037  0.8092  0.5270
14494TIP3   OH264972   2.160   3.126   4.174  0.2489 -0.0486 -0.1400
14494TIP3    H164973   2.150   3.084   4.259  1.1669 -1.6245 -0.7891
14494TIP3    H264974   2.071   3.151   4.149 -0.1298 -0.3393  0.9129
14495TIP3   OH264975   3.978   4.132  13.164  0.1720  0.1119  0.2914
14495TIP3    H164976   3.895   4.176  13.143  1.0812  1.2546 -0.9964
14495TIP3    H264977   4.031   4.200  13.206  1.0490 -0.1504 -0.3616
14496TIP3   OH264978   1.040   2.162  13.498  0.0467 -0.7061 -0.0095
14496TIP3    H164979   0.949   2.163  13.466  0.6046  0.8837 -1.5953
14496TIP3    H264980   1.036   2.204  13.583 -0.5798  0.1255 -0.4439
14497TIP3   OH264981   1.368   1.598   0.204 -0.0489  0.3046  0.0288
14497TIP3    H164982   1.395   1.683   0.172  0.8818  0.9555  2.4436
14497TIP3    H264983   1.327   1.616   0.288  2.0072 -1.8072  1.5448
14498TIP3   OH264984   3.223   0.500   2.602 -0.2903  0.5340  0.0352
14498TIP3    H164985   3.287   0.537   2.663  2.6707  1.0269 -3.2091
14498TIP3    H264986   3.163   0.450   2.658  1.5692  1.9068  3.4366
14499TIP3   OH264987   5.493   6.496   2.063  0.4121  0.7242  0.6673
14499TIP3    H164988   5.558   6.527   2.126  0.0027 -2.1503  2.6284
14499TIP3    H264989   5.417   6.475   2.117 -0.7497  0.3774 -1.0927
14500TIP3   OH264990   3.730   4.073   1.253 -0.2452 -0.1385 -0.1564
14500TIP3    H164991   3.717   3.982   1.229 -2.0023  0.1264 -0.2296
14500TIP3    H264992   3.652   4.097   1.303  0.3278  1.2431  0.1117
14501TIP3   OH264993   6.001   1.517  16.493  0.2896  0.3228 -0.1972
14501TIP3    H164994   5.965   1.592  16.447  0.3866 -0.5819 -1.7802
14501TIP3    H264995   6.046   1.467  16.426  0.7941 -0.8079  0.9658
14502TIP3   OH264996   4.549   4.463  15.452  0.4258  0.0707  0.0458
14502TIP3    H164997   4.495   4.399  15.498  0.6925 -1.0034 -1.1242
14502TIP3    H264998   4.627   4.415  15.424  1.2086  1.2033  0.2531
14503TIP3   OH264999   3.876   2.199  16.793  0.7064 -0.1315 -0.9200
14503TIP3    H165000   3.914   2.247  16.720  0.7621  0.9615 -0.1819
14503TIP3    H265001   3.783   2.217  16.788  0.4378 -1.6828 -1.9002
14504TIP3   OH265002   2.083   0.564  12.711 -0.5755  0.0685  0.2509
14504TIP3    H165003   2.043   0.506  12.776  1.0747  0.4487  1.6610
14504TIP3    H265004   2.131   0.628  12.763  0.2555  0.7694 -1.3467
14505TIP3   OH265005   0.997   1.460   2.417  0.1556  0.0136 -0.5014
14505TIP3    H165006   1.074   1.429   2.368 -0.8698 -1.7866 -0.9915
14505TIP3    H265007   1.034   1.519   2.483  1.8489  0.1435 -1.5146
14506TIP3   OH265008   4.428   5.374  13.504  0.1974  0.1223  0.0421
14506TIP3    H165009   4.364   5.388  13.574  0.5349  1.3422  0.1246
14506TIP3    H265010   4.378   5.336  13.432  0.0192 -1.9562  1.2489
14507TIP3   OH265011   5.124   3.643  11.154  0.4297  0.2545  0.4525
14507TIP3    H165012   5.151   3.551  11.149  1.9057  0.7531 -0.9395
14507TIP3    H265013   5.051   3.642  11.216  0.5620 -1.8241  0.6329
14508TIP3   OH265014   3.006   1.060   0.143 -0.3146  0.0745  0.6671
14508TIP3    H165015   2.985   1.154   0.149  0.1073  0.2342 -0.1840
14508TIP3    H265016   2.921   1.018   0.129 -0.1893  0.6623 -2.1840
14509TIP3   OH265017   0.055   6.435   0.594  0.3675  0.4523 -0.6713
14509TIP3    H165018   0.097   6.378   0.659  0.9763  0.9987 -0.5779
14509TIP3    H265019  -0.033   6.399   0.584  0.6717 -0.3632 -0.4408
14510TIP3   OH265020   0.232   0.660  14.929 -0.0271  0.2181 -0.3675
14510TIP3    H165021   0.199   0.748  14.947 -0.5680  0.0794 -0.6653
14510TIP3    H265022   0.297   0.673  14.859 -0.4623  0.3191 -0.7522
14511TIP3   OH265023   5.997   1.355  11.875 -0.1235  0.3752 -0.2800
14511TIP3    H165024   5.904   1.342  11.893 -0.5297  1.0956 -1.7686
14511TIP3    H265025   5.999   1.404  11.793  1.5860 -0.1713 -0.5897
14512TIP3   OH265026   3.192   0.784  13.349 -0.3494 -0.1760 -0.4545
14512TIP3    H165027   3.252   0.855  13.371 -1.3696  0.7336 -0.5929
14512TIP3    H265028   3.241   0.730  13.287  0.4072  0.4273 -0.3887
14513TIP3   OH265029   3.102   4.598   1.650 -0.2193  0.5992  0.0774
14513TIP3    H165030   3.152   4.521   1.624 -0.9079  0.2252 -0.1371
14513TIP3    H265031   3.018   4.589   1.604 -0.3493  1.4070  0.1487
14514TIP3   OH265032   6.522   4.813   2.739 -0.5437 -0.1025 -0.1805
14514TIP3    H165033   6.431   4.803   2.712 -0.7051  0.7240  0.0406
14514TIP3    H265034   6.520   4.884   2.804  0.2169 -0.2524  0.0095
14515TIP3   OH265035   3.583   1.581   1.155 -0.0318  0.1236  0.1559
14515TIP3    H165036   3.511   1.598   1.094  0.8965  0.4864 -0.8615
14515TIP3    H265037   3.621   1.668   1.171 -0.4114  0.0594  1.4436
14516TIP3   OH265038   2.646   5.731   2.155  0.5126  0.1954 -0.2163
14516TIP3    H165039   2.617   5.746   2.065  0.1590 -0.5221 -0.2198
14516TIP3    H265040   2.630   5.638   2.171  1.9346 -0.0173  0.0876
14517TIP3   OH265041   1.486   4.801  15.335  0.0096  0.1613  0.1564
14517TIP3    H165042   1.562   4.752  15.366  0.1605  1.2000  1.4790
14517TIP3    H265043   1.490   4.793  15.239  1.5446 -0.1511  0.2272
14518TIP3   OH265044   5.212   2.731   2.905 -0.4817  0.1602 -0.2381
14518TIP3    H165045   5.264   2.692   2.975 -1.0515 -0.1094  0.0354
14518TIP3    H265046   5.148   2.664   2.882 -0.2468  0.2167 -1.0771
14519TIP3   OH265047   2.708   5.726  15.404 -0.5841  0.3144 -0.5084
14519TIP3    H165048   2.722   5.814  15.438 -0.3961  0.2566 -0.4336
14519TIP3    H265049   2.666   5.739  15.319  1.5572  0.5510 -1.5727
14520TIP3   OH265050   6.569   0.431  16.370 -0.1452 -0.0731 -0.4315
14520TIP3    H165051   6.477   0.437  16.395  0.0105 -1.8129  0.6769
14520TIP3    H265052   6.616   0.417  16.452  0.9097 -1.0205 -1.1729
14521TIP3   OH265053   0.534   2.906   4.493 -0.0807 -0.5631 -0.1652
14521TIP3    H165054   0.525   2.994   4.457  0.6374 -0.0435  0.9185
14521TIP3    H265055   0.492   2.849   4.428 -2.1175  0.7527 -0.0360
14522TIP3   OH265056   6.817   5.366   5.229 -0.8373  0.2035 -0.2593
14522TIP3    H165057   6.812   5.292   5.168  1.0905 -0.7444  0.6754
14522TIP3    H265058   6.868   5.333   5.303  1.9420  3.0724 -0.7698
14523TIP3   OH265059   6.777   3.510  11.325 -0.2211 -0.1957  0.4608
14523TIP3    H165060   6.776   3.416  11.344  1.4194 -0.3119  0.0268
14523TIP3    H265061   6.703   3.545  11.374 -0.7530 -1.6915  0.7548
14524TIP3   OH265062   2.359   3.087   1.539  0.1928 -0.3216  0.1635
14524TIP3    H165063   2.265   3.078   1.528  0.1885 -0.5819  0.4112
14524TIP3    H265064   2.377   3.047   1.625  0.3464  0.8848  0.7009
14525TIP3   OH265065   5.881   1.218   5.133  0.1576  0.3690 -0.0260
14525TIP3    H165066   5.888   1.196   5.226  2.5808  0.5948 -0.1452
14525TIP3    H265067   5.894   1.313   5.130 -4.0204  1.0559 -0.2032
14526TIP3   OH265068   3.271   3.512   6.094  0.5263 -0.2782  0.2190
14526TIP3    H165069   3.205   3.532   6.161  1.8227  1.9359  0.9014
14526TIP3    H265070   3.325   3.591   6.091  2.0780 -1.3965 -1.5793
14527TIP3   OH265071   5.725   4.156   4.388 -0.1671  0.2140 -0.4372
14527TIP3    H165072   5.690   4.180   4.474 -1.0689 -1.2133 -0.3890
14527TIP3    H265073   5.712   4.234   4.334 -1.4246  0.4506  0.1871
14528TIP3   OH265074   3.866   0.386  12.814  0.0274 -0.1410 -0.1148
14528TIP3    H165075   3.956   0.373  12.845 -0.5825 -1.2179  1.2618
14528TIP3    H265076   3.832   0.456  12.869 -0.3031 -0.4409  0.0625
14529TIP3   OH265077   3.995   1.481  15.319  0.6378 -0.2796  0.1621
14529TIP3    H165078   4.021   1.489  15.411  1.5178 -1.7512  0.0604
14529TIP3    H265079   3.981   1.571  15.290  2.6873  0.3743  1.0857
14530TIP3   OH265080   2.579   1.496  15.261 -0.1554 -0.6099  0.0998
14530TIP3    H165081   2.507   1.475  15.320 -0.3691  1.0092  0.4330
14530TIP3    H265082   2.565   1.587  15.237  1.1312 -0.6207 -0.7733
14531TIP3   OH265083   5.134   6.677  15.449 -0.3833  0.1254  0.7173
14531TIP3    H165084   5.163   6.600  15.497  1.1756  0.4177  0.2771
14531TIP3    H265085   5.213   6.711  15.407 -1.6849 -0.1455 -2.1124
14532TIP3   OH265086   3.693   5.237  13.800  0.1411  0.2905 -0.4859
14532TIP3    H165087   3.637   5.161  13.819  0.8162  0.0060  0.4212
14532TIP3    H265088   3.693   5.287  13.882  1.3706  0.1747 -0.4057
14533TIP3   OH265089   0.673   1.688   4.679  0.0400 -0.7204 -0.3860
14533TIP3    H165090   0.742   1.730   4.628 -0.6593  0.2579 -0.5445
14533TIP3    H265091   0.677   1.731   4.765  0.9251 -2.0489  0.2507
14534TIP3   OH265092   5.903   6.388   2.695 -0.4651 -0.4191  0.5141
14534TIP3    H165093   5.934   6.478   2.682  2.3682 -1.3775  0.3984
14534TIP3    H265094   5.965   6.350   2.756 -2.4311 -1.9391  1.6265
14535TIP3   OH265095   2.314   1.499  15.932 -0.8917 -0.6289 -0.3611
14535TIP3    H165096   2.377   1.570  15.920 -1.1421 -0.2883  0.3014
14535TIP3    H265097   2.303   1.493  16.027  0.0569 -2.3729 -0.3341
14536TIP3   OH265098   5.424   4.565  15.473  0.0707  0.1502 -0.7962
14536TIP3    H165099   5.509   4.605  15.488  0.5605 -1.1985  0.1317
14536TIP3    H265100   5.412   4.568  15.378  1.0383  0.5605 -0.9069
14537TIP3   OH265101   3.342   1.075  16.644  0.1104 -0.3967  0.1846
14537TIP3    H165102   3.376   1.162  16.623  1.0709 -1.3205 -2.3370
14537TIP3    H265103   3.289   1.051  16.568 -0.1709 -1.9899  0.8615
14538TIP3   OH265104   3.525   5.633   1.461  0.1939  0.4890  0.6636
14538TIP3    H165105   3.564   5.589   1.536  1.2518 -1.7508 -1.1534
14538TIP3    H265106   3.598   5.644   1.400 -1.0962  0.4036 -0.9038
14539TIP3   OH265107   5.061   5.801  10.434  0.2265 -0.6432  0.3331
14539TIP3    H165108   5.072   5.879  10.488  1.2015 -0.5900  0.0660
14539TIP3    H265109   5.148   5.785  10.397  0.1530 -2.1118  0.7549
14540TIP3   OH265110   4.415   0.038  13.184 -0.0849  0.0800  0.3174
14540TIP3    H165111   4.442   0.127  13.209 -0.3162 -0.0780  1.1372
14540TIP3    H265112   4.493  -0.000  13.144  0.0019  0.6700 -0.0924
14541TIP3   OH265113   6.535   3.062  10.349  0.3246 -0.0871 -0.0968
14541TIP3    H165114   6.548   3.143  10.397 -1.7037  0.0705  0.2040
14541TIP3    H265115   6.582   3.075  10.267 -0.1236  1.4587 -0.1242
14542TIP3   OH265116   1.969   5.192  16.418  0.3200 -0.0411 -0.7078
14542TIP3    H165117   2.021   5.234  16.487 -0.7229 -1.0360  0.7340
14542TIP3    H265118   1.930   5.265  16.370  1.3558  0.6744 -0.4824
14543TIP3   OH265119   2.274   0.256  14.626 -0.0118  0.1577  0.2882
14543TIP3    H165120   2.245   0.196  14.557 -2.0610  1.7549 -0.3143
14543TIP3    H265121   2.293   0.337  14.580  0.7303  0.5841  1.3440
14544TIP3   OH265122   5.956   0.317   1.185 -0.3561 -0.0967  0.0836
14544TIP3    H165123   6.040   0.285   1.217 -0.8114  0.5645  2.0129
14544TIP3    H265124   5.920   0.244   1.135  0.7658 -0.8604  0.3784
14545TIP3   OH265125   0.678   1.872  11.158 -0.2068 -0.0627 -0.3052
14545TIP3    H165126   0.596   1.874  11.207 -1.1240  0.1688 -1.8082
14545TIP3    H265127   0.663   1.807  11.089  0.1279  1.4476 -1.8408
14546TIP3   OH265128   2.382   3.601   6.001 -0.2155  0.0176 -0.2688
14546TIP3    H165129   2.310   3.573   5.944 -2.1533  1.6757  1.2616
14546TIP3    H265130   2.363   3.562   6.086 -0.9024  2.7314  0.8928
14547TIP3   OH265131   0.054   5.172   1.516 -0.5720 -0.5067 -0.1961
14547TIP3    H165132   0.126   5.111   1.498 -1.7033 -2.1496  0.7382
14547TIP3    H265133  -0.024   5.116   1.521 -1.6760  1.0634  0.3718
14548TIP3   OH265134   0.403   2.303  14.480 -0.3991 -0.2682 -0.9275
14548TIP3    H165135   0.446   2.346  14.554  1.7600 -0.7808 -1.8695
14548TIP3    H265136   0.472   2.254  14.437 -1.8786 -0.8944 -2.6415
14549TIP3   OH265137   6.180   3.701  12.454  0.1533 -0.6184 -0.3272
14549TIP3    H165138   6.091   3.729  12.479 -0.2175 -0.1107 -2.1705
14549TIP3    H265139   6.237   3.769  12.489 -0.0871 -1.3358  1.5410
14550TIP3   OH265140   2.395   6.181  10.917  0.1572  0.2536  0.3363
14550TIP3    H165141   2.326   6.114  10.914  0.8718 -0.4555 -1.0204
14550TIP3    H265142   2.353   6.260  10.882 -0.3119  0.1655  0.6958
14551TIP3   OH265143   3.147   5.888   2.246  0.5667 -0.5207  0.3235
14551TIP3    H165144   3.084   5.870   2.177  1.0142 -4.0212  0.6913
14551TIP3    H265145   3.105   5.856   2.326  1.7442 -0.5034  0.9712
14552TIP3   OH265146   2.244   1.949   5.638  0.0685 -0.3505 -0.2221
14552TIP3    H165147   2.336   1.927   5.629  0.5572  1.2618  0.5209
14552TIP3    H265148   2.239   2.041   5.609 -1.2873 -0.4122 -0.2182
14553TIP3   OH265149   0.149   4.032  15.419  0.0211 -0.0546 -0.0696
14553TIP3    H165150   0.091   4.106  15.436 -1.0021 -0.9315  0.3235
14553TIP3    H265151   0.106   3.958  15.462  1.8946 -0.5453  1.0308
14554TIP3   OH265152   5.744   1.573   4.357  0.0922  0.4518 -0.3709
14554TIP3    H165153   5.810   1.561   4.288 -0.4233 -0.0344 -0.7848
14554TIP3    H265154   5.675   1.510   4.335  0.8946 -1.2495  1.7752
14555TIP3   OH265155   3.520   2.561  16.479  0.1878 -0.9164 -0.7886
14555TIP3    H165156   3.497   2.478  16.521 -0.9915  0.1258  0.6337
14555TIP3    H265157   3.497   2.549  16.387  0.7432 -2.4295 -0.7441
14556TIP3   OH265158   3.926   5.893  17.054 -0.4407  0.2917 -0.3703
14556TIP3    H165159   3.938   5.985  17.031 -0.3178  0.8164  1.7490
14556TIP3    H265160   3.962   5.845  16.979  1.0134  1.9566 -0.7588
14557TIP3   OH265161   5.894   1.562   3.010  0.9118 -0.0698 -0.0041
14557TIP3    H165162   5.956   1.561   3.083  0.6706  2.0657  0.2593
14557TIP3    H265163   5.949   1.548   2.933  1.7887  2.0782  0.2072
14558TIP3   OH265164   6.705   4.864  13.455  0.2266  0.1577  0.2911
14558TIP3    H165165   6.648   4.794  13.488 -2.4376  1.9105 -0.4359
14558TIP3    H265166   6.716   4.845  13.362 -0.3597  0.6139  0.1282
14559TIP3   OH265167   5.345   3.275  13.078 -0.4960 -0.2406 -0.0582
14559TIP3    H165168   5.303   3.271  13.164  0.0568 -0.4149  0.2071
14559TIP3    H265169   5.432   3.237  13.092 -1.0482 -1.9435 -1.0879
14560TIP3   OH265170   6.710   2.733   5.186 -0.2215 -0.5569 -0.4556
14560TIP3    H165171   6.620   2.748   5.215 -0.0725 -1.6578  0.6215
14560TIP3    H265172   6.720   2.638   5.187  0.9732 -0.4363 -0.5145
14561TIP3   OH265173   6.711   6.249  12.796 -0.5111  0.5333 -0.7218
14561TIP3    H165174   6.746   6.254  12.707  0.2209  0.0238 -0.4642
14561TIP3    H265175   6.776   6.199  12.845 -0.1303  2.1619  0.4861
14562TIP3   OH265176   6.373   5.421  14.152  0.1394  0.3331  0.1045
14562TIP3    H165177   6.298   5.480  14.147  0.3613  0.5192 -1.1875
14562TIP3    H265178   6.431   5.462  14.217 -1.0450 -0.0262  1.4034
14563TIP3   OH265179   1.721   2.084  13.737  0.4633  0.6009  0.1295
14563TIP3    H165180   1.786   2.109  13.802 -0.5359  1.4538  0.8087
14563TIP3    H265181   1.749   1.997  13.706  0.5871 -0.0820  2.1319
14564TIP3   OH265182   2.449   5.741   5.338  0.3321  0.7329  0.0600
14564TIP3    H165183   2.438   5.757   5.244 -0.0715  0.1477  0.0013
14564TIP3    H265184   2.362   5.713   5.367  0.1346  2.1362  0.8640
14565TIP3   OH265185   3.751   6.524   3.987  0.6806  0.2483 -0.0744
14565TIP3    H165186   3.739   6.579   3.910  0.8839  0.4056  0.0078
14565TIP3    H265187   3.719   6.577   4.060 -1.0818 -0.5229 -0.2554
14566TIP3   OH265188   0.434   0.674   4.315 -0.2289  0.5300  0.7228
14566TIP3    H165189   0.417   0.679   4.221  0.8330  0.8921  0.5480
14566TIP3    H265190   0.527   0.654   4.322 -0.3319  0.3572  1.6999
14567TIP3   OH265191   0.425   5.358   2.945  0.4349 -0.4534  0.7802
14567TIP3    H165192   0.485   5.294   2.984  2.1168  1.2687  1.1159
14567TIP3    H265193   0.469   5.442   2.959 -1.3120  0.6740 -0.4438
14568TIP3   OH265194   4.767   4.524   5.603 -0.4541 -0.2861  0.6834
14568TIP3    H165195   4.736   4.465   5.672 -3.7245  3.1702  2.3136
14568TIP3    H265196   4.689   4.541   5.549  1.0853  0.3544 -1.3901
14569TIP3   OH265197   3.694   4.191   2.555  0.3455  0.1899  0.1876
14569TIP3    H165198   3.724   4.259   2.616 -0.7972  0.4458  0.4798
14569TIP3    H265199   3.754   4.196   2.481  0.9838  0.7233  0.7413
14570TIP3   OH265200   0.240   2.157  11.331 -0.0646 -0.0617  0.0480
14570TIP3    H165201   0.218   2.248  11.348 -0.1733 -0.1016  0.1237
14570TIP3    H265202   0.275   2.125  11.415  0.2947  0.0048 -0.0752
14571TIP3   OH265203   3.088   0.746   2.850 -0.4377  0.1150  0.2676
14571TIP3    H165204   3.081   0.823   2.793  0.1129  0.0267  0.0808
14571TIP3    H265205   3.172   0.706   2.827 -0.0711  0.2349  1.3272
14572TIP3   OH265206   6.229   5.827   3.368 -1.1616  0.1733  0.2777
14572TIP3    H165207   6.209   5.897   3.430 -0.5913  0.9854 -0.4427
14572TIP3    H265208   6.299   5.863   3.313 -0.7118 -1.0426  0.0398
14573TIP3   OH265209   5.761   1.085  13.840 -0.2016 -0.3799 -0.2362
14573TIP3    H165210   5.794   1.027  13.908  1.8644 -0.2137 -1.0555
14573TIP3    H265211   5.829   1.152  13.830 -1.7284  1.1536 -0.5527
14574TIP3   OH265212   1.043   3.185  13.982 -0.2105 -0.0139  0.3048
14574TIP3    H165213   1.068   3.245  13.912  1.7939 -0.2734  0.7837
14574TIP3    H265214   0.989   3.237  14.041 -0.0082  0.8140 -0.2399
14575TIP3   OH265215   2.012   2.869  16.434  0.2528 -0.3307 -0.0996
14575TIP3    H165216   2.052   2.817  16.503 -1.0459 -0.6970  0.3760
14575TIP3    H265217   1.980   2.948  16.479 -0.3564 -0.4476 -0.3238
14576TIP3   OH265218   1.375   1.854  11.467  0.0056  0.3905  0.0271
14576TIP3    H165219   1.414   1.927  11.515 -0.5723 -0.0012  1.0879
14576TIP3    H265220   1.443   1.787  11.466 -0.4068 -0.0496  1.3218
14577TIP3   OH265221   3.431   1.324  13.695 -0.5484 -0.7263 -0.5769
14577TIP3    H165222   3.340   1.305  13.673 -0.9738 -1.0925  1.4394
14577TIP3    H265223   3.434   1.321  13.790  1.1655  1.1729 -0.5420
14578TIP3   OH265224   6.750   3.402  11.976  0.2820 -0.3854  0.2783
14578TIP3    H165225   6.838   3.410  11.939 -0.0515 -1.4937 -0.7848
14578TIP3    H265226   6.756   3.330  12.039 -0.3933 -2.0065 -1.4744
14579TIP3   OH265227   3.650   2.907  16.786  0.8771  0.9191 -0.4840
14579TIP3    H165228   3.595   2.845  16.739  1.2559 -0.3594  0.7254
14579TIP3    H265229   3.617   2.907  16.876  1.8739  1.2653 -0.0998
14580TIP3   OH265230   5.562   1.497  16.636 -0.1190  0.2541 -0.2313
14580TIP3    H165231   5.494   1.549  16.677 -1.1714 -0.9071 -0.4967
14580TIP3    H265232   5.638   1.506  16.694 -0.8088  0.7009  0.6067
14581TIP3   OH265233   2.412   6.086   3.986 -0.2180 -0.4931 -0.2847
14581TIP3    H165234   2.494   6.074   3.940 -0.2226  2.4651 -1.1663
14581TIP3    H265235   2.389   5.999   4.019  1.6453 -1.9383 -2.7031
14582TIP3   OH265236   6.412   3.095   1.572  0.1469  0.1870 -0.3191
14582TIP3    H165237   6.317   3.098   1.561  0.0167  0.0861  0.7277
14582TIP3    H265238   6.439   3.016   1.526  0.0205  1.4692 -2.6403
14583TIP3   OH265239   0.327   5.958   0.644  0.3441  0.1548 -0.0250
14583TIP3    H165240   0.304   5.939   0.553 -0.8154 -0.0147  0.2919
14583TIP3    H265241   0.268   5.903   0.696  1.4519 -0.2581  0.8253
14584TIP3   OH265242   5.263   1.392  13.250  0.3128 -0.2274  0.3844
14584TIP3    H165243   5.310   1.328  13.196 -0.5604 -0.6575  0.1229
14584TIP3    H265244   5.281   1.476  13.208  0.8831 -0.3836  0.3125
14585TIP3   OH265245   3.115   2.275   0.246  0.2592  0.1239  0.3585
14585TIP3    H165246   3.047   2.232   0.193 -1.8124  1.0207  2.2091
14585TIP3    H265247   3.188   2.214   0.243 -1.4738 -2.0368  0.2707
14586TIP3   OH265248   4.446   4.297   4.439  0.0905 -0.2507 -0.1119
14586TIP3    H165249   4.532   4.298   4.396  0.2019 -0.5789  0.0994
14586TIP3    H265250   4.393   4.357   4.387  0.3989 -0.1780 -0.3487
14587TIP3   OH265251   2.443   5.341  16.006 -0.4946 -0.1707 -0.2993
14587TIP3    H165252   2.398   5.352  15.922  0.9582  0.3590 -1.0252
14587TIP3    H265253   2.384   5.287  16.058 -0.1454 -2.9801 -2.6872
14588TIP3   OH265254   6.802   0.787   5.286  0.0806  0.9166 -0.2341
14588TIP3    H165255   6.848   0.771   5.203  0.1078  1.8163 -0.3988
14588TIP3    H265256   6.869   0.827   5.342  0.3895 -0.7672  0.6235
14589TIP3   OH265257   3.923   0.069   0.962 -0.3867  0.1046  0.1476
14589TIP3    H165258   4.013   0.087   0.986  0.0126 -0.1156 -1.1634
14589TIP3    H265259   3.913  -0.026   0.971 -0.6514  0.1826  0.7831
14590TIP3   OH265260   5.737   0.848   1.081 -0.1224  0.4268 -0.2721
14590TIP3    H165261   5.821   0.895   1.081  0.6953 -0.9955  0.2708
14590TIP3    H265262   5.734   0.806   1.167 -0.5014 -1.0826 -1.0114
14591TIP3   OH265263   4.187   2.973  17.154 -0.2032  0.4853 -0.3318
14591TIP3    H165264   4.228   3.009  17.076 -1.3105  1.3975 -0.4847
14591TIP3    H265265   4.093   2.977  17.137 -0.3725 -2.1402 -0.2156
14592TIP3   OH265266   3.976   4.077   3.884 -0.2999 -0.7277 -0.6930
14592TIP3    H165267   3.889   4.114   3.868 -0.6444 -1.2442 -0.0369
14592TIP3    H265268   4.009   4.054   3.797 -1.0139 -0.9699 -0.9026
14593TIP3   OH265269   4.511   6.334  11.751 -0.6719  0.7828  0.5748
14593TIP3    H165270   4.454   6.405  11.724 -0.5145  1.1714  1.2504
14593TIP3    H265271   4.452   6.269  11.789 -0.6783  1.1362  1.1738
14594TIP3   OH265272   0.010   3.424  14.454  0.3392 -0.2177 -0.0487
14594TIP3    H165273   0.004   3.331  14.475  1.5352 -0.2347  0.2299
14594TIP3    H265274   0.098   3.450  14.482  0.1757  0.8942 -0.5320
14595TIP3   OH265275   1.420   3.809   0.748 -0.1721  0.2672 -0.0929
14595TIP3    H165276   1.364   3.838   0.820 -1.5122  0.9226 -1.3621
14595TIP3    H265277   1.497   3.866   0.752  0.0460 -0.1085  1.1815
14596TIP3   OH265278   2.610   1.102  13.758  0.7556  0.1333 -0.1505
14596TIP3    H165279   2.554   1.061  13.692  0.5830 -2.0967  1.3065
14596TIP3    H265280   2.699   1.087  13.725  0.6546 -0.5214 -0.1388
14597TIP3   OH265281   5.261   6.618  14.020  0.0128  0.4493 -0.4395
14597TIP3    H165282   5.188   6.666  14.060 -0.7695 -1.0095 -0.0810
14597TIP3    H265283   5.339   6.660  14.056 -0.6763  0.0831  1.5481
14598TIP3   OH265284   2.388   5.466  12.713 -0.5205  0.1396  0.0238
14598TIP3    H165285   2.399   5.379  12.751 -1.8219  0.1491  0.4478
14598TIP3    H265286   2.298   5.467  12.682 -0.2560  1.0492 -0.7262
14599TIP3   OH265287   5.637   1.198   2.449  0.5462  0.5712 -0.5678
14599TIP3    H165288   5.663   1.107   2.465 -1.8063  0.0104  0.2445
14599TIP3    H265289   5.720   1.247   2.451  1.7447 -1.4064 -0.0334
14600TIP3   OH265290   4.236   0.757  13.552 -0.2658  0.1217 -0.0644
14600TIP3    H165291   4.296   0.718  13.489 -1.8281 -0.9544 -0.9403
14600TIP3    H265292   4.158   0.701  13.548 -0.3648 -0.0433  2.9020
14601TIP3   OH265293   0.767   5.763   5.428 -0.4672 -0.2113  0.1125
14601TIP3    H165294   0.738   5.817   5.502 -2.4025 -0.2041 -0.6293
14601TIP3    H265295   0.749   5.673   5.455 -0.3490 -0.2654  0.0104
14602TIP3   OH265296   1.823   4.950   2.196  0.1962 -0.0488  0.8706
14602TIP3    H165297   1.852   4.860   2.178 -2.1152 -0.7509  0.5468
14602TIP3    H265298   1.795   4.948   2.287  0.7777  0.5227  1.0624
14603TIP3   OH265299   2.027   3.650   3.989 -0.5743 -0.3555 -0.1099
14603TIP3    H165300   1.980   3.686   3.913 -0.2062  0.6658  0.1378
14603TIP3    H265301   2.027   3.555   3.974  0.0736 -0.1260 -1.7374
14604TIP3   OH265302   0.784   1.400  13.103 -0.4409  0.2211  0.5989
14604TIP3    H165303   0.755   1.490  13.088 -1.7897 -0.6551 -2.6608
14604TIP3    H265304   0.726   1.368  13.172 -2.8205  0.5959 -1.1594
14605TIP3   OH265305   2.544   4.100   4.081 -0.0858 -0.4571  0.5729
14605TIP3    H165306   2.548   4.156   4.158 -0.7625 -0.0561  0.3211
14605TIP3    H265307   2.459   4.120   4.041  0.3580 -0.4960 -0.4029
14606TIP3   OH265308   3.166   6.035  12.732  0.0488 -0.4495 -0.4712
14606TIP3    H165309   3.225   6.099  12.693 -1.4613 -1.1997 -4.1225
14606TIP3    H265310   3.096   6.087  12.771  0.4061  0.2106 -0.7110
14607TIP3   OH265311   6.690   2.433   6.750 -0.5692  0.0396  0.0897
14607TIP3    H165312   6.699   2.354   6.697 -2.0175  0.5710 -0.9979
14607TIP3    H265313   6.767   2.486   6.727 -0.8205 -0.0381 -0.9724
14608TIP3   OH265314   3.094   4.803   6.181  0.5746  0.5239 -0.6152
14608TIP3    H165315   3.181   4.820   6.144  0.3056 -1.3855 -2.2157
14608TIP3    H265316   3.033   4.842   6.118  0.2295  0.6876 -0.1808
14609TIP3   OH265317   6.023   6.623  13.641 -0.8641  0.7268 -0.2630
14609TIP3    H165318   6.103   6.637  13.591 -1.3989 -1.0518 -1.6578
14609TIP3    H265319   6.053   6.580  13.721 -0.5728 -1.3539 -1.4646
14610TIP3   OH265320   5.570   6.523  15.735 -0.1837  0.1073  0.0429
14610TIP3    H165321   5.616   6.572  15.803 -0.3027  0.1825  0.0699
14610TIP3    H265322   5.576   6.432  15.763  0.4426  0.0544 -0.2441
14611TIP3   OH265323   5.042   3.843   1.359 -0.0312 -0.2635 -0.4287
14611TIP3    H165324   5.051   3.888   1.443  0.8351 -4.7630  2.0868
14611TIP3    H265325   5.123   3.865   1.312  0.5824  0.4478  0.9103
14612TIP3   OH265326   0.767   6.549   3.762 -0.3623  0.7955 -0.1726
14612TIP3    H165327   0.695   6.494   3.731  0.5365  0.6597 -2.0955
14612TIP3    H265328   0.785   6.518   3.850 -1.5709 -0.2679 -0.2909
14613TIP3   OH265329   6.493   6.067  16.851  0.0248 -0.0662  0.1327
14613TIP3    H165330   6.406   6.086  16.816  0.0385  2.5653  1.3940
14613TIP3    H265331   6.547   6.140  16.821  0.7355  0.6642  3.0669
14614TIP3   OH265332   2.831   0.713  14.807 -0.3880  0.3729 -0.8090
14614TIP3    H165333   2.875   0.649  14.751  0.2586  0.6532 -0.6251
14614TIP3    H265334   2.757   0.665  14.844  1.0592 -0.7890  0.6658
14615TIP3   OH265335   1.711   0.630   4.213  0.1639 -0.2223  0.1228
14615TIP3    H165336   1.680   0.586   4.292  0.0869 -1.2415 -0.4541
14615TIP3    H265337   1.637   0.684   4.185 -0.0998 -0.4889  0.2959
14616TIP3   OH265338   1.559   0.329   3.336 -0.6638  0.4740 -0.5239
14616TIP3    H165339   1.631   0.325   3.399 -3.3612  1.9529  2.8409
14616TIP3    H265340   1.587   0.393   3.271  0.2617  2.5388  1.8477
14617TIP3   OH265341   5.847   1.245  15.629  0.0105 -0.2985 -0.0185
14617TIP3    H165342   5.829   1.231  15.722  0.9507 -0.4409  0.1555
14617TIP3    H265343   5.874   1.158  15.598  1.2162  0.0783 -0.0553
14618TIP3   OH265344   4.950   4.856  13.244 -0.1726 -0.1515  0.6092
14618TIP3    H165345   4.868   4.897  13.213 -0.3942 -0.7117  0.4589
14618TIP3    H265346   5.000   4.841  13.164 -0.6337 -1.3593  0.5411
14619TIP3   OH265347   4.340   1.940   1.583  0.4616 -0.4519  0.0746
14619TIP3    H165348   4.289   2.019   1.600  0.1992 -0.9148  1.4956
14619TIP3    H265349   4.308   1.908   1.499 -1.1550 -0.3856  0.6455
14620TIP3   OH265350   6.513   4.544   3.224 -0.1849 -0.3138 -0.0867
14620TIP3    H165351   6.417   4.548   3.218 -0.4048 -3.6346  0.0365
14620TIP3    H265352   6.544   4.581   3.141 -1.6093  0.3725 -0.3255
14621TIP3   OH265353   3.492   5.210  13.492  0.0866 -0.0505  0.0113
14621TIP3    H165354   3.582   5.194  13.465  0.2804  1.5279 -0.3154
14621TIP3    H265355   3.473   5.140  13.554  2.5866  1.3258  2.4552
14622TIP3   OH265356   1.596   2.114  16.100  1.0464 -0.3139 -0.4269
14622TIP3    H165357   1.645   2.032  16.093  2.9701  0.7248  0.6247
14622TIP3    H265358   1.653   2.172  16.150 -1.2093  0.9836  0.6955
14623TIP3   OH265359   0.350   2.041   6.088 -0.3580  0.5778  0.3742
14623TIP3    H165360   0.261   2.021   6.115 -0.4400  0.1920 -0.1673
14623TIP3    H265361   0.395   2.067   6.168 -0.6856 -0.2087  0.8084
14624TIP3   OH265362   6.721   3.107  15.584  0.2652 -0.6758  0.6656
14624TIP3    H165363   6.699   3.086  15.675 -0.4626  1.1505  0.9364
14624TIP3    H265364   6.675   3.189  15.567 -0.0905 -1.3037 -1.5521
14625TIP3   OH265365   0.656   1.044  14.714  0.0898 -0.1013  0.3401
14625TIP3    H165366   0.582   1.087  14.671 -0.3437 -0.7204  0.4666
14625TIP3    H265367   0.728   1.107  14.706 -0.7893  1.0553  1.3519
14626TIP3   OH265368   3.293   1.201   3.538 -0.3136  0.0210 -0.5927
14626TIP3    H165369   3.353   1.223   3.467 -0.4664 -0.1757 -0.7810
14626TIP3    H265370   3.300   1.275   3.599  1.4066 -0.7846  0.2199
14627TIP3   OH265371   5.539   2.604  14.750 -0.3902 -0.4410 -0.2742
14627TIP3    H165372   5.573   2.534  14.806 -0.9579 -1.1120 -0.7501
14627TIP3    H265373   5.483   2.655  14.807  1.2621  0.5766  0.4784
14628TIP3   OH265374   0.399   1.717  16.315  0.1976  0.1017  0.0412
14628TIP3    H165375   0.346   1.638  16.325  1.3441 -0.5353  1.1506
14628TIP3    H265376   0.353   1.782  16.369  0.9225 -0.6460  1.5863
14629TIP3   OH265377   3.537   6.691   5.680  0.0264  0.3310 -0.2376
14629TIP3    H165378   3.550   6.782   5.655  0.4956  0.6462  1.1496
14629TIP3    H265379   3.536   6.644   5.597 -0.7990  1.6647 -1.0018
14630TIP3   OH265380   1.457   2.914   4.239 -0.4897 -0.2024  0.2516
14630TIP3    H165381   1.391   2.887   4.302 -0.8404  2.5548  1.1647
14630TIP3    H265382   1.538   2.922   4.290 -0.5958  1.2523  0.2185
14631TIP3   OH265383   3.783   2.645   0.986  0.1459  0.2870  0.2732
14631TIP3    H165384   3.852   2.708   1.006  0.3408  0.2434 -0.2709
14631TIP3    H265385   3.725   2.649   1.062  2.3889 -1.9622  2.1566
14632TIP3   OH265386   6.771   5.601  14.565  0.1164  0.4611  1.0354
14632TIP3    H165387   6.732   5.516  14.586  1.5753 -0.8120 -1.1534
14632TIP3    H265388   6.840   5.612  14.630 -0.8549  0.5640  2.0708
14633TIP3   OH265389   4.434   5.978  12.159  0.3275  0.5042  0.2105
14633TIP3    H165390   4.439   5.889  12.124 -0.4682  0.8864 -0.9098
14633TIP3    H265391   4.359   5.976  12.218 -0.0942  0.5931 -0.3166
14634TIP3   OH265392   1.915   1.158   4.686 -0.1554 -0.4937  0.0655
14634TIP3    H165393   1.903   1.104   4.608 -0.7864  1.3322 -1.1317
14634TIP3    H265394   1.907   1.096   4.759  2.9286 -2.6539 -1.3449
14635TIP3   OH265395   5.351   3.212   1.080 -0.7981  0.2173 -0.5854
14635TIP3    H165396   5.260   3.182   1.081 -0.1226 -1.8810  1.1887
14635TIP3    H265397   5.403   3.131   1.077  1.0230  1.4096 -3.5840
14636TIP3   OH265398   5.369   1.302  12.863 -0.3272  0.7869  0.0834
14636TIP3    H165399   5.296   1.242  12.880  0.0849  0.5697  1.1657
14636TIP3    H265400   5.339   1.385  12.901 -0.8947  1.2702 -1.4043
14637TIP3   OH265401   5.102   4.509  11.644 -0.2266 -0.3184 -0.2607
14637TIP3    H165402   5.097   4.433  11.702  1.0468  0.9912  1.6281
14637TIP3    H265403   5.160   4.481  11.573 -1.3672 -1.7704 -0.6319
14638TIP3   OH265404   4.069   5.201  16.174  0.7164  0.1945  0.0127
14638TIP3    H165405   4.112   5.159  16.249  1.2511  0.4830 -0.1344
14638TIP3    H265406   3.998   5.252  16.213  0.0419 -0.8467  0.1926
14639TIP3   OH265407   0.331   5.434  11.393  0.4497  0.3443 -0.9403
14639TIP3    H165408   0.281   5.376  11.334 -0.8609 -0.1737  0.6468
14639TIP3    H265409   0.268   5.500  11.421  1.0342  0.5265 -0.0293
14640TIP3   OH265410   0.275   0.490  16.741  0.4560 -0.1152  0.2895
14640TIP3    H165411   0.298   0.402  16.771 -0.1178 -0.1668  0.5719
14640TIP3    H265412   0.182   0.486  16.722  0.7419  0.0138 -1.1794
14641TIP3   OH265413   2.004   1.056   6.359 -0.0632  0.0002  0.1135
14641TIP3    H165414   2.025   1.136   6.407 -2.4446  0.3941  0.5593
14641TIP3    H265415   1.918   1.072   6.322 -0.8640 -2.5965  0.7494
14642TIP3   OH265416   1.522   4.285  17.286 -0.1854 -0.2596  0.2632
14642TIP3    H165417   1.449   4.270  17.346 -0.1369  1.3504  0.7481
14642TIP3    H265418   1.522   4.380  17.272 -0.3103 -0.6206 -2.4168
14643TIP3   OH265419   0.993   5.483  12.696  0.5349  0.8015  0.1730
14643TIP3    H165420   1.048   5.406  12.679 -0.2192 -0.1491  1.8446
14643TIP3    H265421   0.918   5.473  12.638  0.5702  0.4260  0.1931
14644TIP3   OH265422   4.245   2.450  16.163 -0.2546 -0.0411  0.1857
14644TIP3    H165423   4.273   2.472  16.252 -1.4722 -0.7462  0.7467
14644TIP3    H265424   4.324   2.459  16.110  0.3897  0.7724  1.2665
14645TIP3   OH265425   1.721   2.594  12.476  0.2475  0.2646 -0.4888
14645TIP3    H165426   1.760   2.612  12.562 -1.2346  0.3853  0.1795
14645TIP3    H265427   1.681   2.508  12.485 -0.6467  0.6424 -0.7880
14646TIP3   OH265428   1.780   0.106  15.188  0.1881 -0.1479 -0.2071
14646TIP3    H165429   1.783   0.107  15.093  0.1576 -0.6232 -0.2133
14646TIP3    H265430   1.696   0.148  15.210  0.5116  0.5832 -0.3692
14647TIP3   OH265431   2.824   0.007   0.319  0.0643  0.0936  0.0542
14647TIP3    H165432   2.800   0.020   0.411 -4.1354 -2.2571 -0.6131
14647TIP3    H265433   2.862  -0.081   0.317 -0.3304 -0.0610 -0.5709
14648TIP3   OH265434   2.255   2.216   1.195 -0.3042  0.4891 -0.0977
14648TIP3    H165435   2.299   2.131   1.196 -1.0734  0.0683 -0.8370
14648TIP3    H265436   2.231   2.231   1.287  1.1906  0.6401  0.2803
14649TIP3   OH265437   6.711   1.559   0.884  0.3456  0.8502  0.8692
14649TIP3    H165438   6.805   1.548   0.899  0.3687  2.0625  1.6667
14649TIP3    H265439   6.686   1.634   0.939 -1.4165 -0.4769  1.9252
14650TIP3   OH265440   4.093   3.635   1.780  0.0564  0.1850  0.1137
14650TIP3    H165441   4.007   3.602   1.754  0.4294  1.3825 -2.8409
14650TIP3    H265442   4.155   3.591   1.722  0.9638  2.7254 -0.9185
14651TIP3   OH265443   3.918   2.438  12.040  0.5074  0.0465 -0.2810
14651TIP3    H165444   3.930   2.501  12.111 -2.0453  1.0353 -0.6630
14651TIP3    H265445   3.890   2.491  11.965  0.0710 -1.3329 -1.1110
14652TIP3   OH265446   5.973   5.354   6.089 -0.4109 -0.7466 -0.4028
14652TIP3    H165447   5.936   5.389   6.170 -2.6171 -1.1995 -1.1804
14652TIP3    H265448   6.068   5.364   6.100 -0.7730  1.4564  1.2028
14653TIP3   OH265449   0.455   0.065  15.295  0.1874 -0.0048 -0.2282
14653TIP3    H165450   0.519  -0.006  15.292 -0.7356 -0.7808 -2.7227
14653TIP3    H265451   0.372   0.024  15.272 -0.4409  1.7961 -1.3314
14654TIP3   OH265452   2.077   1.630  15.384 -0.5574  0.1690  1.0157
14654TIP3    H165453   2.129   1.658  15.309  0.1145 -1.4924  0.8407
14654TIP3    H265454   2.127   1.658  15.461  0.2864 -0.8732  0.8472
14655TIP3   OH265455   0.564   3.576   2.447  0.2998  0.1993  0.5443
14655TIP3    H165456   0.513   3.618   2.516  0.9734  0.7463  0.7087
14655TIP3    H265457   0.516   3.596   2.367 -0.0662  0.2095  0.7657
14656TIP3   OH265458   6.284   4.352   0.790 -0.4210  0.3019  0.4761
14656TIP3    H165459   6.264   4.441   0.762 -3.9110 -1.1982 -2.1440
14656TIP3    H265460   6.235   4.341   0.872 -3.0419 -0.3281 -1.1111
14657TIP3   OH265461   2.968   1.434   2.174 -0.4820 -0.3220 -0.0927
14657TIP3    H165462   2.905   1.389   2.118  0.3666 -1.7305  0.0756
14657TIP3    H265463   2.921   1.511   2.206 -1.0200  0.4540 -2.6581
14658TIP3   OH265464   5.467   6.601  14.315  0.5362  0.2963  0.0965
14658TIP3    H165465   5.476   6.664  14.244 -0.5987 -0.6305 -0.9046
14658TIP3    H265466   5.384   6.556  14.297  1.0117 -1.0482  1.1202
14659TIP3   OH265467   0.085   1.810  13.235 -0.3198 -0.4597 -0.0412
14659TIP3    H165468   0.143   1.887  13.233 -0.1119 -0.5611  1.3976
14659TIP3    H265469   0.131   1.744  13.184 -0.4493  0.3406 -1.2043
14660TIP3   OH265470   1.177   2.843  10.688  0.4448 -0.5080 -0.2440
14660TIP3    H165471   1.235   2.842  10.764 -0.8255  1.6614  0.7982
14660TIP3    H265472   1.102   2.790  10.714  0.8418 -1.2763 -0.6678
14661TIP3   OH265473   1.258   6.278   5.529  0.1120  0.0850 -0.0955
14661TIP3    H165474   1.208   6.227   5.593  0.2932 -0.4736 -0.3941
14661TIP3    H265475   1.222   6.367   5.535 -1.1725 -0.3920 -0.5742
14662TIP3   OH265476   6.596   2.330  11.680 -0.1136 -0.4868 -0.2796
14662TIP3    H165477   6.521   2.386  11.700  0.1211 -0.6362  1.0763
14662TIP3    H265478   6.668   2.368  11.729  0.9740  0.2916 -2.4347
14663TIP3   OH265479   3.730   4.022  13.588  0.2237  0.1345  0.1888
14663TIP3    H165480   3.722   3.956  13.657  0.0290 -1.3983 -1.2811
14663TIP3    H265481   3.659   4.084  13.607  0.5426  0.0704  1.7026
14664TIP3   OH265482   0.612   6.123  16.502 -0.5502  0.0654  0.3179
14664TIP3    H165483   0.575   6.087  16.422 -0.5198 -1.8930  1.1539
14664TIP3    H265484   0.707   6.116  16.490 -0.5020  1.3267 -0.1474
14665TIP3   OH265485   4.308   0.087  16.599 -0.4117  0.4450  0.0454
14665TIP3    H165486   4.332   0.001  16.564  0.2991  1.6259 -2.4881
14665TIP3    H265487   4.372   0.103  16.669 -0.8255 -1.2478  0.8586
14666TIP3   OH265488   3.535   1.800  17.152 -0.0727  0.4757  0.0605
14666TIP3    H165489   3.588   1.825  17.076  2.0274 -0.4634  1.1913
14666TIP3    H265490   3.475   1.733  17.118  0.9446 -0.0316 -0.7480
14667TIP3   OH265491   5.386   5.355  15.345  0.5350  0.4184  0.0689
14667TIP3    H165492   5.455   5.383  15.284 -0.5365  0.9404 -0.9264
14667TIP3    H265493   5.321   5.424  15.340  0.9270  1.0096  2.6774
14668TIP3   OH265494   0.422   1.675   1.882 -0.6035  0.3766  0.1183
14668TIP3    H165495   0.407   1.591   1.924 -1.0453  0.9254  1.0602
14668TIP3    H265496   0.478   1.723   1.942  1.4251 -0.0275 -1.3922
14669TIP3   OH265497   0.180   3.452  17.188 -0.4960 -0.4030 -0.0731
14669TIP3    H165498   0.100   3.485  17.147 -0.1169  0.8568  0.1789
14669TIP3    H265499   0.215   3.390  17.124 -0.8486  0.2175 -0.8853
14670TIP3   OH265500   4.908   4.373  10.725 -0.0780 -0.0953  0.1343
14670TIP3    H165501   4.880   4.299  10.672  2.4503 -0.9370 -0.1077
14670TIP3    H265502   4.881   4.450  10.675 -0.5489 -0.8608 -0.8085
14671TIP3   OH265503   1.353   5.866  12.853 -0.4206  0.0494  0.6182
14671TIP3    H165504   1.283   5.812  12.816  1.1919 -0.7077 -1.4718
14671TIP3    H265505   1.362   5.938  12.790  0.2089  0.5075  1.2327
14672TIP3   OH265506   5.794   2.990   1.470 -0.1253 -0.8946  0.9111
14672TIP3    H165507   5.817   2.941   1.391 -1.9618 -1.2764  0.5996
14672TIP3    H265508   5.860   3.058   1.475 -0.7774 -0.0000 -1.7467
14673TIP3   OH265509   5.281   0.243   5.762  0.4180 -0.1972  0.3707
14673TIP3    H165510   5.275   0.148   5.754  1.9554 -0.3402  0.8031
14673TIP3    H265511   5.281   0.275   5.671 -0.8108 -0.5541  0.2445
14674TIP3   OH265512   6.347   0.383   6.445 -0.0787  0.2916 -0.0801
14674TIP3    H165513   6.285   0.327   6.491  1.5165  0.5763  2.4879
14674TIP3    H265514   6.342   0.467   6.490  2.6686  0.1019  0.6666
14675TIP3   OH265515   0.530   0.572  13.505 -0.0052  0.0353 -0.1201
14675TIP3    H165516   0.606   0.549  13.557 -0.2981 -0.6746 -0.0013
14675TIP3    H265517   0.556   0.651  13.458  0.9486 -0.4510 -0.4076
14676TIP3   OH265518   4.163   0.170   5.241  0.2583  0.1584  0.1134
14676TIP3    H165519   4.155   0.201   5.331  0.3291  1.1621 -0.2219
14676TIP3    H265520   4.132   0.243   5.188 -0.5884 -0.7407 -0.6424
14677TIP3   OH265521   0.855   6.605  11.464  0.1600 -0.0680 -0.3116
14677TIP3    H165522   0.860   6.533  11.526  0.0323  1.0069  0.9712
14677TIP3    H265523   0.763   6.609  11.438  0.3048 -0.8276 -0.9498
14678TIP3   OH265524   3.608   1.924   1.827 -0.7724 -0.1411 -0.6050
14678TIP3    H165525   3.514   1.907   1.820 -0.3815 -2.3508 -0.8980
14678TIP3    H265526   3.644   1.841   1.858  0.8360  1.3006  1.4733
14679TIP3   OH265527   0.368   3.164  14.652 -0.1995 -0.7110 -0.5101
14679TIP3    H165528   0.451   3.209  14.639  0.4116 -1.6524  0.0749
14679TIP3    H265529   0.368   3.138  14.744 -1.3184 -0.3907 -0.4009
14680TIP3   OH265530   3.475   3.726  10.242  0.4767  0.3477 -0.3892
14680TIP3    H165531   3.442   3.815  10.253 -0.0240  0.0670  0.4079
14680TIP3    H265532   3.527   3.709  10.320 -2.4128 -1.3501  1.2514
14681TIP3   OH265533   6.026   0.334   5.621 -0.1372 -0.6366 -0.3020
14681TIP3    H165534   6.088   0.351   5.550  0.1466  0.1699  0.1174
14681TIP3    H265535   6.082   0.317   5.697 -0.4371 -2.3311 -0.4502
14682TIP3   OH265536   3.696   2.290  12.521 -0.3755 -0.2606 -0.1981
14682TIP3    H165537   3.691   2.384  12.538  0.4713 -0.0842 -0.8531
14682TIP3    H265538   3.775   2.280  12.467 -1.0996 -1.2012 -1.0939
14683TIP3   OH265539   0.432   0.226   4.539  0.2221 -0.5132 -0.2364
14683TIP3    H165540   0.369   0.211   4.609  1.6097 -0.6173  1.0209
14683TIP3    H265541   0.440   0.141   4.496  0.2603 -0.7503  0.2377
14684TIP3   OH265542   0.366   5.148  11.399 -0.4233  0.1219  0.3960
14684TIP3    H165543   0.450   5.114  11.367  0.1389  1.6268  0.2755
14684TIP3    H265544   0.337   5.082  11.463  1.0216 -0.2151  0.7239
14685TIP3   OH265545   0.595   1.176  12.372 -0.5180 -0.2168 -0.3226
14685TIP3    H165546   0.577   1.191  12.279 -1.5502  0.6311  0.0002
14685TIP3    H265547   0.688   1.195  12.382 -0.4042 -0.2909 -1.1757
14686TIP3   OH265548   3.399   0.949   1.494  0.0895  0.1665  0.7306
14686TIP3    H165549   3.324   0.994   1.533 -0.3995  0.3522 -0.3955
14686TIP3    H265550   3.447   0.913   1.568 -0.4675  1.0569  1.5411
14687TIP3   OH265551   5.542   2.961   0.860  0.6136 -0.1615  0.2068
14687TIP3    H165552   5.588   3.041   0.834  1.2556 -0.9259 -1.0533
14687TIP3    H265553   5.589   2.931   0.938  1.5566 -0.3151 -0.4046
14688TIP3   OH265554   3.397   6.157   4.044  0.4437 -0.0900  0.4723
14688TIP3    H165555   3.475   6.112   4.077  0.8259  0.7257  0.6928
14688TIP3    H265556   3.427   6.246   4.026 -0.4681  0.2573  0.6685
14689TIP3   OH265557   3.610   0.218  13.259 -0.5092  0.1291  0.4924
14689TIP3    H165558   3.570   0.193  13.176 -2.5058  1.0090  1.1440
14689TIP3    H265559   3.655   0.300  13.240  1.0682 -0.8989 -0.2640
14690TIP3   OH265560   4.872   4.941   0.257  0.3060  0.1212 -0.4294
14690TIP3    H165561   4.927   4.912   0.184  0.2521 -1.0698 -0.0113
14690TIP3    H265562   4.912   4.901   0.334 -1.9067 -1.8616 -0.2704
14691TIP3   OH265563   6.224   4.740   5.594  0.0937 -0.3829 -0.2710
14691TIP3    H165564   6.204   4.647   5.609 -2.2439  0.1647  0.0884
14691TIP3    H265565   6.319   4.741   5.582  0.4643 -2.5162  2.0177
14692TIP3   OH265566   1.354   1.227   4.664 -0.2143 -0.1491 -0.2887
14692TIP3    H165567   1.377   1.183   4.746  0.4667 -0.1829 -0.4955
14692TIP3    H265568   1.325   1.157   4.606 -0.2884 -0.1796 -0.2136
14693TIP3   OH265569   2.426   0.537   4.232 -0.3768 -0.7944  0.1800
14693TIP3    H165570   2.426   0.475   4.160  0.3963 -1.8785  1.1026
14693TIP3    H265571   2.440   0.622   4.191 -1.4130 -1.2174 -1.0885
14694TIP3   OH265572   4.272   1.730  14.566 -0.1612  0.0631  0.4997
14694TIP3    H165573   4.314   1.646  14.583  0.1225  0.3189  1.0892
14694TIP3    H265574   4.281   1.778  14.649 -3.2098 -0.5359  1.2372
14695TIP3   OH265575   0.029   5.968   2.978 -0.0370 -0.3320  0.3048
14695TIP3    H165576   0.122   5.981   2.961 -0.3120  1.2861 -0.0463
14695TIP3    H265577   0.014   5.875   2.964  1.9757 -1.0279  2.5279
14696TIP3   OH265578   1.218   1.449   2.248 -0.7041 -0.2224  0.5471
14696TIP3    H165579   1.185   1.394   2.177  0.1001  1.0627 -0.8567
14696TIP3    H265580   1.314   1.444   2.239 -0.6104  0.7180  0.9257
14697TIP3   OH265581   4.023   0.645   4.420  0.2331  0.0243  0.5167
14697TIP3    H165582   3.961   0.700   4.373 -0.4184 -0.7376  0.4854
14697TIP3    H265583   4.079   0.608   4.352 -0.1057 -0.3213  0.4248
14698TIP3   OH265584   6.459   3.828  13.080 -0.0472  0.6846 -0.1790
14698TIP3    H165585   6.515   3.902  13.054  0.1977  0.1072 -1.3413
14698TIP3    H265586   6.385   3.832  13.019 -0.7356  0.7892  0.6539
14699TIP3   OH265587   2.780   1.907   3.332 -0.7766  0.8465  0.1741
14699TIP3    H165588   2.814   1.996   3.344 -1.6609  1.5324 -2.1677
14699TIP3    H265589   2.688   1.920   3.306 -0.6788 -0.7115 -1.0169
14700TIP3   OH265590   4.947   0.712  14.917 -0.0480  0.4988 -0.0261
14700TIP3    H165591   4.864   0.665  14.927 -0.4796  1.1691 -0.3932
14700TIP3    H265592   4.922   0.797  14.880  1.2365 -0.9579 -4.6164
14701TIP3   OH265593   2.182   0.120   4.218 -0.2174  0.0970 -0.0672
14701TIP3    H165594   2.266   0.131   4.175 -0.8033 -0.2872 -1.3403
14701TIP3    H265595   2.195   0.154   4.306  1.3081 -0.1069 -0.2042
14702TIP3   OH265596   2.768   0.952   0.797  0.7822  0.5854  0.0018
14702TIP3    H165597   2.681   0.985   0.773  0.3629  0.6537  1.5688
14702TIP3    H265598   2.764   0.859   0.775 -0.7065 -0.0446  2.6767
14703TIP3   OH265599   4.605   4.160  12.442 -0.3192 -0.2628 -0.0635
14703TIP3    H165600   4.668   4.088  12.449  0.8404  0.5242 -1.8053
14703TIP3    H265601   4.616   4.210  12.523  0.1047 -1.0676  0.3827
14704TIP3   OH265602   6.026   1.842  13.114 -0.0196  0.0511  0.1649
14704TIP3    H165603   6.028   1.921  13.060 -0.3975  0.3884  0.6281
14704TIP3    H265604   6.045   1.874  13.203 -0.5257 -0.3230  0.4109
14705TIP3   OH265605   2.798   0.111   6.433  0.7198  0.1589  0.0903
14705TIP3    H165606   2.766   0.173   6.499 -0.7193  1.7136 -1.9780
14705TIP3    H265607   2.881   0.149   6.403  0.2423  0.6955 -0.5894
14706TIP3   OH265608   3.773   2.652   5.269 -0.3112 -0.2736 -0.3385
14706TIP3    H165609   3.780   2.566   5.309  1.2966 -0.7261 -1.5578
14706TIP3    H265610   3.797   2.713   5.338 -0.8983 -0.8382  0.3629
14707TIP3   OH265611   2.133   2.413  12.752 -0.0971  0.4408 -0.2217
14707TIP3    H165612   2.062   2.367  12.708 -0.8009  0.4659  0.8625
14707TIP3    H265613   2.175   2.346  12.807  0.7603  0.4130 -0.8909
14708TIP3   OH265614   2.632   5.416   1.974  0.2791  0.1371  0.2488
14708TIP3    H165615   2.571   5.444   2.043  0.0103 -2.3757  1.0590
14708TIP3    H265616   2.575   5.388   1.903  0.4742 -1.5256  0.7315
14709TIP3   OH265617   5.290   1.348  12.033  0.6775  0.4147  0.4060
14709TIP3    H165618   5.197   1.364  12.013  0.9428 -0.4755 -1.5751
14709TIP3    H265619   5.337   1.414  11.983  1.1705  0.4206  0.8713
14710TIP3   OH265620   6.004   0.413   2.903 -0.0783  0.1318  0.2117
14710TIP3    H165621   5.954   0.341   2.865 -1.7732  0.7621  1.1829
14710TIP3    H265622   5.965   0.426   2.990 -0.0995  2.4761 -0.1065
14711TIP3   OH265623   4.072   4.447   5.004 -0.8135 -0.3976 -0.1381
14711TIP3    H165624   4.114   4.475   5.086 -1.0841  4.0366 -1.3790
14711TIP3    H265625   4.143   4.408   4.953 -0.0602 -0.6978  1.1141
14712TIP3   OH265626   3.670   1.292   6.328  0.0885  0.0408  0.7280
14712TIP3    H165627   3.643   1.363   6.387 -0.5238  2.3738 -2.2418
14712TIP3    H265628   3.588   1.261   6.290  0.5073 -1.2473  0.8769
14713TIP3   OH265629   0.683   4.935  16.528  0.3349 -0.3238 -0.2277
14713TIP3    H165630   0.771   4.956  16.560  0.4935 -2.8698  1.1438
14713TIP3    H265631   0.625   4.988  16.583  1.0080  2.1924 -1.8521
14714TIP3   OH265632   2.974   0.415   1.798  0.0272  0.3037  0.2364
14714TIP3    H165633   2.945   0.484   1.858 -1.6177  1.2741 -1.6166
14714TIP3    H265634   2.896   0.362   1.782  0.5310 -0.1497 -0.7497
14715TIP3   OH265635   4.873   5.513  17.228  0.3408 -0.3016 -0.4501
14715TIP3    H165636   4.896   5.586  17.170 -1.0666 -1.1480 -2.1256
14715TIP3    H265637   4.845   5.443  17.168 -1.4125 -1.1039  1.2604
14716TIP3   OH265638   0.299   1.380   5.573  0.0537 -0.6879 -0.0943
14716TIP3    H165639   0.358   1.329   5.628  1.8180 -1.3425 -2.5046
14716TIP3    H265640   0.287   1.327   5.495 -1.3681  0.7860 -0.9140
14717TIP3   OH265641   2.362   3.652  16.531 -0.1101  0.3874  0.0930
14717TIP3    H165642   2.344   3.570  16.486 -0.9852 -0.5888  2.1436
14717TIP3    H265643   2.437   3.632  16.587  1.3665  1.7536 -1.3649
14718TIP3   OH265644   4.720   0.339  11.762 -0.2406  0.1680  0.1442
14718TIP3    H165645   4.685   0.272  11.821 -2.7093  1.2355 -0.0151
14718TIP3    H265646   4.654   0.408  11.763  0.7863  1.2480 -2.0627
14719TIP3   OH265647   0.994   1.245  16.638  0.2120  0.3920  0.0017
14719TIP3    H165648   0.971   1.168  16.690 -0.1045 -0.0436 -0.7818
14719TIP3    H265649   0.987   1.318  16.700  0.9043 -0.2446  0.8495
14720TIP3   OH265650   3.186   6.384  11.723  0.0461 -0.3474 -0.3422
14720TIP3    H165651   3.124   6.455  11.705  0.8561  0.0012 -1.8364
14720TIP3    H265652   3.255   6.425  11.775 -1.2380 -0.8745  1.8646
14721TIP3   OH265653   0.816   2.814  14.522  0.1686 -0.0393 -0.1238
14721TIP3    H165654   0.820   2.795  14.428  2.3704  0.1021 -0.0809
14721TIP3    H265655   0.735   2.774  14.551 -0.8460  0.4328 -2.2130
14722TIP3   OH265656   2.066   0.248   1.189  0.0302  0.0689  0.5334
14722TIP3    H165657   1.972   0.250   1.207  0.1541  1.7168  1.0552
14722TIP3    H265658   2.095   0.338   1.199  1.4976 -0.2430 -0.6436
14723TIP3   OH265659   0.137   0.729  11.025 -0.4056 -0.2630  0.1509
14723TIP3    H165660   0.055   0.735  10.976  0.1595 -1.3450 -0.9378
14723TIP3    H265661   0.177   0.647  10.996  0.8991  0.0704  0.9466
14724TIP3   OH265662   2.104   4.039  12.958 -0.0252  0.0968 -0.2108
14724TIP3    H165663   2.183   4.003  12.917 -0.8115 -1.4424 -0.4137
14724TIP3    H265664   2.109   4.133  12.942  1.8925  0.0422  0.0023
14725TIP3   OH265665   4.524   1.512  13.253  0.4595 -0.6391  0.0406
14725TIP3    H165666   4.469   1.591  13.246  1.1393 -0.3370 -2.1759
14725TIP3    H265667   4.474   1.453  13.310  0.3260  1.6894  2.4575
14726TIP3   OH265668   1.202   2.248   3.985 -0.3083 -0.3200 -0.4741
14726TIP3    H165669   1.220   2.159   3.955  2.0660  0.0346 -0.1854
14726TIP3    H265670   1.287   2.281   4.016 -1.2383  1.8781 -0.1628
14727TIP3   OH265671   4.447   3.006   1.969  0.0896  0.1847 -0.1839
14727TIP3    H165672   4.424   3.041   1.883  0.6070 -0.4327 -0.5808
14727TIP3    H265673   4.374   3.032   2.026 -0.2393  0.6236 -0.8021
14728TIP3   OH265674   3.257   4.862   3.564 -0.1505  0.3847 -0.5772
14728TIP3    H165675   3.191   4.796   3.587 -1.7477  2.4164  0.8464
14728TIP3    H265676   3.213   4.945   3.577  3.4778  1.9076  2.9554
14729TIP3   OH265677   0.824   1.080  11.021 -0.0242  0.4233  0.2900
14729TIP3    H165678   0.859   0.994  10.996  0.4442  0.8544 -0.5475
14729TIP3    H265679   0.825   1.131  10.940 -1.5256  0.8097  0.4896
14730TIP3   OH265680   4.743   1.201   1.555  0.1711 -0.3362 -0.4022
14730TIP3    H165681   4.680   1.243   1.497  0.5066  1.2435  0.3403
14730TIP3    H265682   4.809   1.162   1.497 -2.6035 -3.9632 -1.2975
14731TIP3   OH265683   3.527   5.656   3.030 -0.4224  0.5773  0.4162
14731TIP3    H165684   3.450   5.701   2.995 -0.7237 -2.0145 -2.4593
14731TIP3    H265685   3.601   5.710   3.003 -0.9294  0.6653 -0.8451
14732TIP3   OH265686   1.934   5.454   2.195 -0.2410 -0.1067  0.3696
14732TIP3    H165687   1.885   5.393   2.141  0.4599 -1.1296  0.8726
14732TIP3    H265688   1.893   5.539   2.179 -2.0828 -0.9167  0.6892
14733TIP3   OH265689   0.584   0.190   3.069 -0.4848  0.4186  0.1658
14733TIP3    H165690   0.629   0.121   3.118  1.0338  0.8574 -0.6036
14733TIP3    H265691   0.569   0.258   3.134 -1.4396 -0.3590  0.7853
14734TIP3   OH265692   4.053   3.499  11.981 -0.2843  0.5132 -0.0293
14734TIP3    H165693   4.130   3.445  12.001 -1.4857 -1.1278  0.2037
14734TIP3    H265694   4.034   3.545  12.063 -0.0847  0.2661  0.1569
14735TIP3   OH265695   2.442   6.458  15.125 -0.1758 -0.0489  0.1734
14735TIP3    H165696   2.355   6.445  15.162 -0.8233  1.3844 -0.8049
14735TIP3    H265697   2.456   6.380  15.071 -0.6087 -0.5465  0.7663
14736TIP3   OH265698   5.034   6.770   5.199  0.2213 -0.7184 -0.4935
14736TIP3    H165699   4.989   6.769   5.283  0.7099 -0.2230 -0.2220
14736TIP3    H265700   5.078   6.685   5.193 -0.0542 -0.8664 -0.3790
14737TIP3   OH265701   2.124   2.393   4.288 -0.3535 -0.2475  0.3268
14737TIP3    H165702   2.180   2.463   4.319 -0.8212  0.3808 -0.2399
14737TIP3    H265703   2.183   2.319   4.275  0.0206 -0.1708  1.6002
14738TIP3   OH265704   1.962   2.992   3.021 -0.0398  0.3009  0.2746
14738TIP3    H165705   1.925   3.026   2.940 -0.2530 -2.1839 -0.7146
14738TIP3    H265706   1.895   3.009   3.087 -1.0426 -0.1214 -0.6222
14739TIP3   OH265707   6.591   3.628   2.970 -0.1072  0.4674 -0.4456
14739TIP3    H165708   6.530   3.675   2.912 -0.6766 -0.4290 -0.5854
14739TIP3    H265709   6.542   3.617   3.052  0.3625  0.9253 -0.1025
14740TIP3   OH265710   6.158   1.651  11.919 -0.3113 -0.7219 -0.4392
14740TIP3    H165711   6.223   1.588  11.889 -0.2231 -1.1637  0.6541
14740TIP3    H265712   6.195   1.737  11.896  0.5640 -0.9779 -0.0190
14741TIP3   OH265713   0.113   1.195  11.867  0.6126 -0.0705  0.5226
14741TIP3    H165714   0.040   1.257  11.876 -0.0770 -0.7602 -0.2247
14741TIP3    H265715   0.071   1.110  11.856  1.4795 -0.2977 -1.2849
14742TIP3   OH265716   5.276   3.680  15.088 -0.5327  0.5324 -0.2889
14742TIP3    H165717   5.364   3.704  15.060  0.2745 -0.4050  1.4298
14742TIP3    H265718   5.249   3.752  15.145 -1.4837  1.5478 -1.9569
14743TIP3   OH265719   2.817   4.104   4.084  0.1262  0.4285  0.5723
14743TIP3    H165720   2.723   4.095   4.066 -0.2443  1.8572  1.6244
14743TIP3    H265721   2.858   4.031   4.038 -1.4524  0.0789 -0.3172
14744TIP3   OH265722   5.551   1.472  15.026 -0.0616  0.6111 -0.4117
14744TIP3    H165723   5.643   1.460  15.046  0.0133 -0.2070 -1.2027
14744TIP3    H265724   5.512   1.386  15.038 -0.5148  0.7115 -1.1302
14745TIP3   OH265725   4.246   2.652  14.004 -0.5998 -0.0371 -0.4458
14745TIP3    H165726   4.203   2.728  13.965  0.4493  0.3692 -0.8142
14745TIP3    H265727   4.291   2.686  14.081 -3.0687 -0.9181  1.4921
14746TIP3   OH265728   2.181   6.014  10.890 -0.6254  0.2651  0.0778
14746TIP3    H165729   2.207   5.939  10.836 -0.8420  1.1285 -1.2720
14746TIP3    H265730   2.097   5.990  10.927 -1.2815  0.3178 -1.3408
14747TIP3   OH265731   4.779   6.776  14.100  0.3315  0.3258  0.3779
14747TIP3    H165732   4.711   6.714  14.074 -0.2886  1.0266  0.3106
14747TIP3    H265733   4.835   6.785  14.023 -1.1405  1.9149 -0.5502
14748TIP3   OH265734   0.627   5.988   4.958  0.1781 -0.2048  0.3135
14748TIP3    H165735   0.635   6.002   4.864  3.8931 -0.9340  0.4420
14748TIP3    H265736   0.614   6.076   4.994  0.1296  0.2338 -0.7496
14749TIP3   OH265737   5.059   5.283   0.341  0.2304 -0.4126 -0.7229
14749TIP3    H165738   4.973   5.265   0.379  0.2377  0.9370 -0.0232
14749TIP3    H265739   5.057   5.241   0.255 -0.8966 -0.9274 -0.4578
14750TIP3   OH265740   2.074   2.854   6.363  0.2467  0.0202  0.1734
14750TIP3    H165741   1.981   2.869   6.345 -0.3306 -1.9235  1.2908
14750TIP3    H265742   2.077   2.764   6.396  2.5333  0.0628  0.1512
14751TIP3   OH265743   5.942   0.655   2.778  0.0211  0.0309 -0.4372
14751TIP3    H165744   6.022   0.668   2.727 -1.0472 -0.5064 -2.2971
14751TIP3    H265745   5.958   0.575   2.828  1.3450  0.9380  0.6612
14752TIP3   OH265746   1.725   2.230   3.164 -0.3664  0.1934 -0.6756
14752TIP3    H165747   1.785   2.250   3.092  0.4402  1.3537  0.2971
14752TIP3    H265748   1.680   2.312   3.181  1.7503  0.8313  2.2431
14753TIP3   OH265749   6.083   3.770   1.107  0.3179  0.3360 -0.2175
14753TIP3    H165750   6.021   3.769   1.035 -0.9412  0.3534  0.8558
14753TIP3    H265751   6.029   3.781   1.185  1.6871  0.5962  0.7054
14754TIP3   OH265752   6.724   0.824  14.518  0.2557  0.3517 -0.3646
14754TIP3    H165753   6.788   0.894  14.503  1.8108 -1.2431 -1.2823
14754TIP3    H265754   6.664   0.831  14.445  1.1614 -0.0810 -1.1609
14755TIP3   OH265755   0.333   3.421  15.380  0.3773 -0.1976  0.3517
14755TIP3    H165756   0.337   3.511  15.349  1.0681 -0.5170 -0.5047
14755TIP3    H265757   0.264   3.421  15.447 -0.5964  0.6666 -0.6414
14756TIP3   OH265758   1.489   3.060   6.517 -0.0911 -0.0479 -0.0603
14756TIP3    H165759   1.482   3.082   6.610  0.5846  0.0878 -0.0372
14756TIP3    H265760   1.580   3.031   6.507 -0.0979  0.1684 -0.7321
14757TIP3   OH265761   4.508   3.275   1.037 -0.4944 -0.2154  0.5879
14757TIP3    H165762   4.534   3.355   0.991 -1.6280  0.0221  0.3391
14757TIP3    H265763   4.590   3.229   1.053  0.0147  0.1734 -0.7947
14758TIP3   OH265764   1.488   0.854  15.966 -0.1588  0.3835  0.3211
14758TIP3    H165765   1.507   0.771  15.922  2.5545  1.3322 -0.4136
14758TIP3    H265766   1.561   0.866  16.026 -0.7728  1.9982  0.7687
14759TIP3   OH265767   6.243   5.893   5.619 -0.3060  0.2781 -0.2131
14759TIP3    H165768   6.230   5.858   5.531  0.2435  0.3849 -0.3398
14759TIP3    H265769   6.159   5.881   5.663 -0.0533 -1.4872 -0.1628
14760TIP3   OH265770   2.556   4.461  13.966  0.2009  0.3816  0.1160
14760TIP3    H165771   2.530   4.416  13.886  2.2834 -2.1228  0.7882
14760TIP3    H265772   2.637   4.505  13.944  1.8198 -1.9094  1.3235
14761TIP3   OH265773   2.786   5.692  15.041 -0.0188 -0.0636  0.0764
14761TIP3    H165774   2.708   5.645  15.072 -0.8116  1.1087 -0.0789
14761TIP3    H265775   2.860   5.643  15.076 -0.8387 -1.0842  0.3930
14762TIP3   OH265776   0.148   4.316   2.971 -0.3261  0.7253  0.1360
14762TIP3    H165777   0.150   4.363   3.054  0.6079 -0.6264  0.8974
14762TIP3    H265778   0.240   4.310   2.944 -0.6938  1.9117 -1.4423
14763TIP3   OH265779   5.818   4.054   1.534 -0.1790 -0.0217 -0.3104
14763TIP3    H165780   5.896   4.012   1.500  0.4932  0.9968 -0.0586
14763TIP3    H265781   5.835   4.148   1.525 -0.8397  0.2312  0.9119
14764TIP3   OH265782   3.464   0.042  13.397  0.3479  0.2232  0.7993
14764TIP3    H165783   3.418  -0.015  13.335 -2.6623  1.3261  1.8979
14764TIP3    H265784   3.534   0.082  13.346 -0.1790 -1.2081 -1.0914
14765TIP3   OH265785   2.324   4.901  12.893  0.1889 -0.2181 -0.1030
14765TIP3    H165786   2.277   4.873  12.815  0.2016 -1.2330  0.2486
14765TIP3    H265787   2.278   4.980  12.922  1.3306  1.2861 -2.1988
14766TIP3   OH265788   4.114   5.343  10.227 -0.2724  0.5478 -0.6297
14766TIP3    H165789   4.135   5.250  10.221 -0.3439  0.3650  1.6739
14766TIP3    H265790   4.023   5.345  10.257  0.6452  1.3308  2.2231
14767TIP3   OH265791   1.340   4.937  10.773  0.0277 -0.6210 -0.5150
14767TIP3    H165792   1.292   4.866  10.814 -1.0165  0.0447 -0.5785
14767TIP3    H265793   1.283   4.968  10.703  0.7838 -0.1960 -0.9476
14768TIP3   OH265794   6.585   0.573  13.192  0.1693  0.0367  0.1213
14768TIP3    H165795   6.556   0.583  13.101 -0.2977 -0.2301  0.2418
14768TIP3    H265796   6.651   0.504  13.188  2.6379  2.3346 -0.5502
14769TIP3   OH265797   5.438   3.104  11.129 -0.4911 -0.9513  0.5639
14769TIP3    H165798   5.362   3.075  11.079  0.3411 -2.2079  0.0164
14769TIP3    H265799   5.497   3.140  11.063 -0.1897 -0.8679  0.8790
14770TIP3   OH265800   1.596   4.955  11.625 -0.6138 -0.3122  0.0136
14770TIP3    H165801   1.690   4.952  11.609 -0.6171  1.2316 -0.3848
14770TIP3    H265802   1.559   4.887  11.569  0.1872 -0.3612 -0.4568
14771TIP3   OH265803   0.817   4.582   4.497 -0.2770 -0.3203 -0.0273
14771TIP3    H165804   0.873   4.530   4.554  2.3735 -2.1431 -4.0657
14771TIP3    H265805   0.750   4.521   4.466 -0.3904  0.0710 -0.5621
14772TIP3   OH265806   1.900   5.789  11.614 -0.4427  0.3855  0.1704
14772TIP3    H165807   1.917   5.813  11.522  2.4139 -1.7416  0.0636
14772TIP3    H265808   1.843   5.713  11.609 -0.2909  0.2728  0.1665
14773TIP3   OH265809   4.053   4.356  12.222  0.2988  0.5182  0.1982
14773TIP3    H165810   4.090   4.431  12.269  0.4199 -0.6145  1.9400
14773TIP3    H265811   4.114   4.284  12.239 -0.6451 -0.3784 -0.1440
14774TIP3   OH265812   1.732   5.702   4.576 -0.1481  0.5131  0.1184
14774TIP3    H165813   1.690   5.739   4.498 -0.7911 -1.6523 -0.5993
14774TIP3    H265814   1.764   5.778   4.624 -0.3595  1.9233 -1.9044
14775TIP3   OH265815   4.343   1.278   2.774  0.2720 -0.1807 -0.2791
14775TIP3    H165816   4.388   1.249   2.853  0.0712  0.4858  0.0773
14775TIP3    H265817   4.414   1.299   2.712  0.4278 -0.4255 -0.1858
14776TIP3   OH265818   3.626   0.268   4.427  0.2103  0.0951  0.2206
14776TIP3    H165819   3.607   0.268   4.334  0.2488 -1.4688  0.1968
14776TIP3    H265820   3.658   0.357   4.445  2.9080 -0.3840 -1.8243
14777TIP3   OH265821   1.042   4.868  16.092  0.2455 -0.3596  0.3000
14777TIP3    H165822   1.066   4.778  16.070 -0.9998 -0.5020 -0.5181
14777TIP3    H265823   1.026   4.866  16.186  1.3184 -0.7267  0.4911
14778TIP3   OH265824   0.153   2.954  10.365 -0.5180  0.7961  0.1259
14778TIP3    H165825   0.178   2.910  10.447 -0.7111 -2.2158 -1.3721
14778TIP3    H265826   0.227   2.938  10.306 -2.6015 -1.5620 -1.9188
14779TIP3   OH265827   2.833   0.210   1.450  0.3993 -0.3144 -0.3773
14779TIP3    H165828   2.755   0.234   1.401 -0.9103 -1.0307  1.3034
14779TIP3    H265829   2.862   0.128   1.411 -1.5145 -1.6741  0.9754
14780TIP3   OH265830   5.964   5.202  16.309 -0.1006  0.1555  0.1857
14780TIP3    H165831   5.971   5.162  16.395 -0.2382  0.9222  0.5577
14780TIP3    H265832   5.879   5.248  16.310  0.7463  1.7642  0.3357
14781TIP3   OH265833   0.338   2.121   3.731  0.2554  0.0750  0.1240
14781TIP3    H165834   0.325   2.067   3.809  1.1958  0.0769  0.2920
14781TIP3    H265835   0.275   2.088   3.667  0.2789 -0.6962  0.4966
14782TIP3   OH265836   2.501   2.933   3.259  0.0297 -0.2045  0.3072
14782TIP3    H165837   2.519   3.025   3.281 -0.1770 -0.0728 -0.0746
14782TIP3    H265838   2.464   2.897   3.340 -1.3222  0.4442 -0.0070
14783TIP3   OH265839   4.126   2.931  13.292  0.9357  0.5129  0.1365
14783TIP3    H165840   4.160   2.854  13.339 -0.8971  0.0886  0.8130
14783TIP3    H265841   4.177   2.933  13.211  2.7066  0.0259  1.1970
14784TIP3   OH265842   2.415   4.115  15.601 -0.4052  0.3797  0.0547
14784TIP3    H165843   2.376   4.195  15.566 -0.0046  1.0662  1.1453
14784TIP3    H265844   2.391   4.115  15.694  1.2262  0.2417  0.5019
14785TIP3   OH265845   3.948   6.120  15.556  0.4015 -0.2834  0.4734
14785TIP3    H165846   3.934   6.087  15.644 -1.0998  1.3293  0.8635
14785TIP3    H265847   3.925   6.213  15.561 -0.2388 -0.2890 -1.7449
14786TIP3   OH265848   4.713   3.238  12.747  0.3720  0.5249  0.0265
14786TIP3    H165849   4.744   3.152  12.774 -0.7858  0.0030 -0.3130
14786TIP3    H265850   4.777   3.299  12.785  0.7198 -0.4216  0.9796
14787TIP3   OH265851   0.310   5.952   6.614 -0.5408  0.3332 -0.1692
14787TIP3    H165852   0.361   6.031   6.635 -1.4179  0.8644  0.0286
14787TIP3    H265853   0.339   5.887   6.678  0.5211  0.3575 -0.6296
14788TIP3   OH265854   1.423   2.878  13.807  0.7772 -0.0574  0.3246
14788TIP3    H165855   1.499   2.855  13.861 -1.4511 -1.9841  2.8270
14788TIP3    H265856   1.383   2.952  13.853  1.2569  1.1593 -1.1605
14789TIP3   OH265857   3.888   1.396   4.229 -0.4380 -0.0035 -0.3117
14789TIP3    H165858   3.857   1.362   4.314 -2.1885  0.3150 -0.7975
14789TIP3    H265859   3.856   1.332   4.165  2.3240 -1.1418 -0.6038
14790TIP3   OH265860   3.394   0.799  17.103  0.8163 -0.0658  0.7300
14790TIP3    H165861   3.317   0.756  17.068  0.7559 -1.4337  2.4371
14790TIP3    H265862   3.432   0.845  17.029 -0.8840 -0.4866 -0.4323
14791TIP3   OH265863   4.366   0.248  14.339 -0.1437 -0.1662 -0.9247
14791TIP3    H165864   4.426   0.173  14.339  0.6544  0.4572  0.3497
14791TIP3    H265865   4.419   0.320  14.305 -0.0992  0.4434  0.4413
14792TIP3   OH265866   0.640   2.039   1.663  0.5579 -0.3331  0.2004
14792TIP3    H165867   0.629   2.118   1.610  0.4195 -0.3156  0.2553
14792TIP3    H265868   0.732   2.014   1.649  0.5302 -0.3144 -0.0261
14793TIP3   OH265869   6.696   5.322   4.157 -0.0821 -0.5703 -0.2193
14793TIP3    H165870   6.761   5.320   4.087 -0.0052 -0.3608 -0.1535
14793TIP3    H265871   6.622   5.371   4.120 -0.3924 -1.2018 -0.4557
14794TIP3   OH265872   4.518   0.943   2.262  0.4142  0.2006 -0.1167
14794TIP3    H165873   4.547   0.932   2.172  1.6705 -1.5132  0.4713
14794TIP3    H265874   4.433   0.899   2.266 -0.3486  1.5521 -0.7887
14795TIP3   OH265875   6.680   5.797  14.110  0.0320  0.2679  0.3190
14795TIP3    H165876   6.730   5.729  14.155  0.4174 -0.4707 -1.1634
14795TIP3    H265877   6.634   5.749  14.041  2.0179  1.7901 -2.1387
14796TIP3   OH265878   2.999   1.628  15.066  0.0108 -0.3025 -0.1511
14796TIP3    H165879   3.041   1.701  15.111  1.8427 -1.4293  0.0311
14796TIP3    H265880   2.976   1.566  15.135  0.8491 -1.0554 -0.5265
14797TIP3   OH265881   1.677   1.637  16.838 -0.0886  0.4420  0.0711
14797TIP3    H165882   1.686   1.656  16.932 -1.3914  2.4625 -0.1836
14797TIP3    H265883   1.754   1.677  16.798 -1.4230  2.8935 -0.1323
14798TIP3   OH265884   1.438   3.258   5.170 -0.1610 -1.0575  0.2901
14798TIP3    H165885   1.460   3.169   5.142 -2.1141 -1.3400 -0.4653
14798TIP3    H265886   1.415   3.249   5.262 -2.3766 -1.7558 -0.2885
14799TIP3   OH265887   3.966   5.030   5.371 -0.1585 -0.5062 -0.5180
14799TIP3    H165888   3.966   4.976   5.449 -0.1900 -1.1752 -0.9826
14799TIP3    H265889   3.901   5.098   5.389 -1.1718 -1.4691 -0.5337
14800TIP3   OH265890   1.912   0.698  10.898 -0.7220 -0.0739  0.2151
14800TIP3    H165891   1.899   0.663  10.810 -1.9380 -0.8792  0.7097
14800TIP3    H265892   1.831   0.746  10.917  0.1014  1.3030  0.3497
14801TIP3   OH265893   3.522   2.228   3.358 -0.0157  0.2679 -0.6038
14801TIP3    H165894   3.527   2.319   3.332 -1.7758  1.0611  1.6689
14801TIP3    H265895   3.432   2.216   3.388  0.9252 -1.4570  1.6899
14802TIP3   OH265896   3.398   3.166   2.849 -0.5061  0.1871 -0.4060
14802TIP3    H165897   3.394   3.210   2.764 -0.6092  0.5749 -0.2010
14802TIP3    H265898   3.393   3.236   2.913 -0.4466 -0.1061 -0.0754
14803TIP3   OH265899   1.596   4.004   5.592  0.2320  0.2664 -0.1154
14803TIP3    H165900   1.511   3.961   5.604  0.3705 -0.3023 -1.1187
14803TIP3    H265901   1.660   3.935   5.611  0.4547  0.0755 -1.4826
14804TIP3   OH265902   0.746   2.642   5.041  0.3945 -0.1452 -0.1957
14804TIP3    H165903   0.836   2.674   5.033  0.4323 -0.3140 -0.4337
14804TIP3    H265904   0.693   2.705   4.992  0.3817 -0.0502 -0.0627
14805TIP3   OH265905   0.458   5.461   4.186 -0.0899  0.1979  0.0527
14805TIP3    H165906   0.384   5.402   4.198  0.7616 -0.7185  0.9215
14805TIP3    H265907   0.460   5.479   4.092  0.7288 -2.6426 -0.5218
14806TIP3   OH265908   1.867   0.833  11.512  0.4870 -0.4898  0.7969
14806TIP3    H165909   1.818   0.798  11.438  0.4335  0.3877  0.4071
14806TIP3    H265910   1.902   0.756  11.557  0.7367 -1.0154 -0.2908
14807TIP3   OH265911   2.916   6.718  15.703 -0.0518  0.7219 -0.1380
14807TIP3    H165912   2.868   6.660  15.762  0.3465  1.2404  0.6973
14807TIP3    H265913   2.883   6.696  15.616  0.6164 -1.2859  0.0865
14808TIP3   OH265914   6.164   4.891   5.117 -0.3679 -0.6859  0.3862
14808TIP3    H165915   6.203   4.839   5.047 -0.0623 -1.1920  0.9256
14808TIP3    H265916   6.178   4.839   5.197 -1.2877 -0.4253  0.7312
14809TIP3   OH265917   6.470   1.665   2.220  0.2809  0.3316  0.3753
14809TIP3    H165918   6.525   1.638   2.146  0.2325  0.5476  0.2589
14809TIP3    H265919   6.381   1.663   2.185  0.1231 -0.8602  0.8093
14810TIP3   OH265920   4.844   4.027   3.582 -0.3989 -0.5130 -0.0085
14810TIP3    H165921   4.847   4.029   3.486 -0.8429  2.6759  0.0124
14810TIP3    H265922   4.923   4.074   3.610 -0.6995 -0.7108  1.1897
14811TIP3   OH265923   0.687   6.069   1.622 -0.2831  0.1417 -0.5902
14811TIP3    H165924   0.618   6.091   1.684 -0.0155  0.7314 -0.5001
14811TIP3    H265925   0.768   6.077   1.672 -0.0992  0.1593 -0.8875
14812TIP3   OH265926   3.832   2.580   2.904  0.0749  0.3897 -0.3447
14812TIP3    H165927   3.921   2.554   2.879  0.0864 -0.0929  0.1884
14812TIP3    H265928   3.844   2.649   2.969  0.0431  1.9656 -1.9614
14813TIP3   OH265929   4.979   5.194   5.531  0.4815  0.0468 -0.3820
14813TIP3    H165930   4.974   5.271   5.588 -0.2215 -0.4753  0.2876
14813TIP3    H265931   4.923   5.215   5.457 -2.1346 -0.9592  1.2232
14814TIP3   OH265932   4.911   4.804  12.168 -0.6068 -0.7122 -0.4777
14814TIP3    H165933   4.941   4.777  12.255  1.4634  0.3281 -0.8521
14814TIP3    H265934   4.964   4.753  12.107 -2.0777 -1.4664 -1.1566
14815TIP3   OH265935   3.707   3.577   1.246  0.5233 -0.0648 -0.1648
14815TIP3    H165936   3.665   3.583   1.161  1.0256 -1.1700 -0.4987
14815TIP3    H265937   3.800   3.563   1.226  1.0587  2.2082  0.5538
14816TIP3   OH265938   6.170   2.602  14.428 -0.5190 -0.3127  0.0180
14816TIP3    H165939   6.210   2.688  14.436 -1.5408  0.2225 -0.6636
14816TIP3    H265940   6.076   2.619  14.420 -0.4465 -1.2909 -3.6666
14817TIP3   OH265941   4.342   5.124   1.283 -0.1893 -0.1838  0.0314
14817TIP3    H165942   4.320   5.076   1.363 -0.6793 -1.0477 -0.6109
14817TIP3    H265943   4.424   5.086   1.253  0.4390  0.7344  0.5980
14818TIP3   OH265944   0.638   6.312  14.014  0.2751  0.3582 -0.2027
14818TIP3    H165945   0.560   6.310  14.068  0.5027  3.5928  0.3137
14818TIP3    H265946   0.611   6.357  13.933  0.9104 -0.9674 -1.1772
14819TIP3   OH265947   4.347   4.234  11.044  0.3579  0.3209 -0.3702
14819TIP3    H165948   4.367   4.263  10.955  1.2825  0.4125 -0.1328
14819TIP3    H265949   4.365   4.140  11.043  1.1250  0.4597 -0.0703
14820TIP3   OH265950   2.714   2.124   1.126 -0.7654 -0.0791 -0.2546
14820TIP3    H165951   2.671   2.170   1.198  2.0018 -0.8948  1.9779
14820TIP3    H265952   2.668   2.040   1.122  0.6333 -1.0152  2.2252
14821TIP3   OH265953   2.541   6.072   3.176 -0.1649  0.1670  0.6306
14821TIP3    H165954   2.492   6.009   3.229  0.0711 -0.9700 -0.4574
14821TIP3    H265955   2.482   6.093   3.104 -0.1738  1.0592  0.8993
14822TIP3   OH265956   3.662   2.263   5.590  0.2959 -0.0915  0.1381
14822TIP3    H165957   3.604   2.192   5.616  1.1033 -0.7581  0.1222
14822TIP3    H265958   3.669   2.318   5.669  0.6110 -0.6683  0.5133
14823TIP3   OH265959   3.213   0.417  16.741  0.8492  0.5037 -0.2376
14823TIP3    H165960   3.120   0.439  16.750  1.0436  1.5101 -0.6106
14823TIP3    H265961   3.213   0.325  16.715  0.0421 -0.3533  2.6207
14824TIP3   OH265962   6.344   0.271   0.047 -0.5186 -0.1160 -0.0494
14824TIP3    H165963   6.436   0.244   0.047 -0.7287 -0.8430 -0.4669
14824TIP3    H265964   6.323   0.284   0.139 -0.8200 -2.7986  0.2922
14825TIP3   OH265965   1.626   6.535   4.081  0.0001 -0.2914  1.4324
14825TIP3    H165966   1.684   6.581   4.021 -0.1072 -0.2571  1.3534
14825TIP3    H265967   1.566   6.602   4.113 -2.2223 -0.9333 -1.1495
14826TIP3   OH265968   1.094   3.811   2.354 -0.5423  0.3986 -0.3367
14826TIP3    H165969   1.165   3.783   2.412 -1.0226  0.6698  0.3904
14826TIP3    H265970   1.108   3.905   2.343 -0.4138  0.3349 -0.7107
14827TIP3   OH265971   5.674   2.056   0.484  0.6296  0.2290  0.9893
14827TIP3    H165972   5.599   2.094   0.530 -0.1399 -0.2459  0.1275
14827TIP3    H265973   5.747   2.115   0.504  0.3186  0.0052  2.8627
14828TIP3   OH265974   3.951   5.224   4.835  0.2704  0.5599 -0.0750
14828TIP3    H165975   3.870   5.260   4.872  1.0577  1.8882  0.3932
14828TIP3    H265976   3.960   5.267   4.750  0.5107  0.4399 -0.1102
14829TIP3   OH265977   0.290   1.771   0.705  0.1840  0.3717 -0.3406
14829TIP3    H165978   0.205   1.765   0.663  0.0143  2.0260 -0.2810
14829TIP3    H265979   0.286   1.852   0.756  1.5103  0.0567  0.3054
14830TIP3   OH265980   1.313   3.774   5.318  0.4903 -0.2996  0.7820
14830TIP3    H165981   1.382   3.710   5.335  0.0598 -0.6914  1.0604
14830TIP3    H265982   1.247   3.726   5.268  0.1741 -0.0724  0.9758
14831TIP3   OH265983   4.904   1.596   1.209  0.1891 -0.1514 -1.1599
14831TIP3    H165984   4.854   1.675   1.185  0.6168 -0.0830 -1.8584
14831TIP3    H265985   4.934   1.613   1.298 -0.2304  0.2216 -1.0844
14832TIP3   OH265986   1.496   3.583   6.731 -0.2469  0.0322  0.2559
14832TIP3    H165987   1.405   3.599   6.757 -1.0288 -0.4512 -2.1145
14832TIP3    H265988   1.518   3.656   6.673  0.7012 -0.1695  0.3569
14833TIP3   OH265989   0.161   2.090   0.002  0.0860 -0.2314  0.2683
14833TIP3    H165990   0.242   2.058   0.043  0.2519  2.3831  2.0900
14833TIP3    H265991   0.180   2.090  -0.092  1.2410 -2.1925  0.4823
14834TIP3   OH265992   6.307   1.371  16.960 -0.1766 -0.3312 -0.2518
14834TIP3    H165993   6.343   1.447  16.915 -1.0844 -0.5924 -1.4334
14834TIP3    H265994   6.374   1.348  17.024 -0.4948  2.2899  1.0782
14835TIP3   OH265995   3.062   0.663   4.161  0.2155 -0.1578 -0.0676
14835TIP3    H165996   3.023   0.735   4.111  1.0477  2.1980  2.5840
14835TIP3    H265997   3.136   0.634   4.108  1.1971  2.4205 -0.1893
14836TIP3   OH265998   4.592   3.908  16.143  0.4862  0.4809 -0.2382
14836TIP3    H165999   4.535   3.977  16.108 -0.3295  0.7635  1.6263
14836TIP3    H266000   4.680   3.936  16.119  0.2464  2.6728  1.2937
14837TIP3   OH266001   1.618   0.418  11.950 -0.0040  0.1871  0.4148
14837TIP3    H166002   1.673   0.339  11.950  0.3475  0.4276  0.3139
14837TIP3    H266003   1.635   0.458  11.864 -0.1731  0.3749  0.4695
14838TIP3   OH266004   4.589   3.705  15.183  0.0938 -0.2489  0.1413
14838TIP3    H166005   4.500   3.709  15.217 -0.3581 -2.7236 -0.6538
14838TIP3    H266006   4.588   3.762  15.105 -0.9470 -0.7592 -0.2144
14839TIP3   OH266007   0.582   4.986  14.629  0.4190 -0.4934 -0.0854
14839TIP3    H166008   0.488   4.997  14.615  0.5776  1.3287  0.0913
14839TIP3    H266009   0.620   5.000  14.542  0.6300  0.3604  0.1371
14840TIP3   OH266010   4.577   0.560   2.215 -0.4621 -0.2608  0.0891
14840TIP3    H166011   4.652   0.522   2.260  1.1002  1.4044 -1.0510
14840TIP3    H266012   4.607   0.647   2.186 -3.0699  0.7553  0.2931
14841TIP3   OH266013   0.254   2.356  11.541 -0.3451 -0.3618  0.0513
14841TIP3    H166014   0.249   2.407  11.622  0.0105 -0.7059  0.2916
14841TIP3    H266015   0.167   2.364  11.503 -1.0958 -1.6953  1.3919
14842TIP3   OH266016   1.734   1.136   6.120  0.1467 -0.1377 -0.8205
14842TIP3    H166017   1.649   1.113   6.083 -0.2389  1.5123 -1.0301
14842TIP3    H266018   1.721   1.133   6.215 -0.2602  0.4718 -0.8541
14843TIP3   OH266019   4.476   0.692   5.166 -0.5575  0.3237 -0.1158
14843TIP3    H166020   4.487   0.610   5.214 -0.4653  0.8801  0.8047
14843TIP3    H266021   4.381   0.702   5.158 -0.5698  0.1361 -0.2256
14844TIP3   OH266022   5.152   1.121   5.251 -0.1338  0.1398 -0.1110
14844TIP3    H166023   5.173   1.048   5.193 -0.1595  0.5005 -0.5760
14844TIP3    H266024   5.103   1.081   5.323  0.2893 -0.3767 -0.1073
14845TIP3   OH266025   0.155   0.533  11.271 -0.4092 -0.0796  0.5989
14845TIP3    H166026   0.166   0.621  11.307 -2.1001  0.9493 -1.3153
14845TIP3    H266027   0.174   0.542  11.178  0.9928 -2.0949  0.6588
14846TIP3   OH266028   5.197   1.444  13.775 -0.0284  0.5551  0.0362
14846TIP3    H166029   5.217   1.518  13.719  1.3556 -0.3232 -0.6592
14846TIP3    H266030   5.266   1.444  13.841 -0.5531  0.4346  0.5968
14847TIP3   OH266031   5.443   4.878  15.785  0.8137  0.0770 -0.2993
14847TIP3    H166032   5.393   4.851  15.708 -0.5586  0.6664  0.3699
14847TIP3    H266033   5.464   4.970  15.768 -1.3594  0.8495  0.9640
14848TIP3   OH266034   5.456   3.120   4.579 -0.4450  0.1109 -0.1519
14848TIP3    H166035   5.374   3.110   4.530 -0.1925 -0.1914 -0.5165
14848TIP3    H266036   5.517   3.061   4.535  0.0832  0.6436 -0.1361
14849TIP3   OH266037   4.880   5.602   5.359  0.2631  0.0574  0.4519
14849TIP3    H166038   4.957   5.562   5.397  0.2744  2.2805  2.9040
14849TIP3    H266039   4.912   5.681   5.315 -0.2187 -0.7068 -1.3581
14850TIP3   OH266040   3.970   5.542  16.090 -0.2415  0.3231  0.1910
14850TIP3    H166041   4.057   5.547  16.049 -0.2239  0.6835  0.2794
14850TIP3    H266042   3.988   5.517  16.180 -0.2078  0.7315  0.2987
14851TIP3   OH266043   4.429   5.381  14.725 -0.1456  0.5761 -0.1299
14851TIP3    H166044   4.491   5.453  14.721  0.9310 -0.2440  1.3308
14851TIP3    H266045   4.478   5.310  14.767 -1.7480 -0.4112  0.1018
14852TIP3   OH266046   6.528   2.997  13.518  0.6297  0.3374  0.9892
14852TIP3    H166047   6.541   3.086  13.485  1.5946  0.2485  1.0935
14852TIP3    H266048   6.459   2.961  13.462 -0.3908  1.4285  1.5191
14853TIP3   OH266049   3.054   3.243  12.522 -0.5422 -0.3711  0.1797
14853TIP3    H166050   2.969   3.202  12.533  0.2098 -1.9597  0.1678
14853TIP3    H266051   3.052   3.278  12.433 -1.2440 -0.2382  0.2426
14854TIP3   OH266052   2.407   1.463  12.638 -1.1494 -0.0442 -0.0439
14854TIP3    H166053   2.398   1.537  12.578  1.2059  1.2087  1.0999
14854TIP3    H266054   2.448   1.394  12.585  2.2818  1.5459  0.4093
14855TIP3   OH266055   1.012   5.475  12.969  0.2462 -0.0151 -0.3279
14855TIP3    H166056   1.032   5.382  12.981  0.4003 -0.0247 -0.6513
14855TIP3    H266057   0.990   5.483  12.876  2.1976  0.6454 -0.7434
14856TIP3   OH266058   2.472   6.533   4.202 -0.0122 -0.5904  0.1994
14856TIP3    H166059   2.514   6.475   4.266  2.7773  2.1629  0.9623
14856TIP3    H266060   2.436   6.604   4.255  3.6691  2.5346 -1.3074
14857TIP3   OH266061   3.266   5.498   0.616  0.0854  0.4266  0.2459
14857TIP3    H166062   3.360   5.499   0.602 -0.0239 -0.3594 -0.6165
14857TIP3    H266063   3.255   5.476   0.708  0.7171 -1.3090 -0.0891
14858TIP3   OH266064   6.070   0.368  11.775 -0.2848  0.0251  0.0810
14858TIP3    H166065   6.017   0.444  11.751  0.0464  0.2951  0.2003
14858TIP3    H266066   6.006   0.297  11.785 -0.5582  0.2068 -0.3544
14859TIP3   OH266067   2.385   2.509   3.164  0.1572  0.2325  0.5571
14859TIP3    H166068   2.355   2.466   3.084 -1.5685  1.9379  0.2484
14859TIP3    H266069   2.454   2.569   3.135  0.2008  0.1537  0.4961
14860TIP3   OH266070   5.006   1.290   5.617  0.0205  0.4197  0.6560
14860TIP3    H166071   5.088   1.284   5.567 -0.4379  0.2388 -0.0880
14860TIP3    H266072   4.941   1.320   5.553 -0.4028  1.0033  1.3499
14861TIP3   OH266073   3.644   2.223   2.158  0.3564 -0.1090  0.0263
14861TIP3    H166074   3.570   2.169   2.186 -0.9292  0.7586 -1.5824
14861TIP3    H266075   3.636   2.228   2.063  2.7591 -0.3479 -0.2281
14862TIP3   OH266076   3.530   2.723   5.677 -0.1279  0.0486 -0.0419
14862TIP3    H166077   3.470   2.771   5.734  0.7559 -0.2589  1.1619
14862TIP3    H266078   3.493   2.634   5.674 -1.7025  0.7599 -2.1842
14863TIP3   OH266079   6.636   4.494   2.180 -0.3801  0.0738  0.1634
14863TIP3    H166080   6.677   4.440   2.112  1.5003  1.2817  0.2824
14863TIP3    H266081   6.664   4.453   2.262 -0.4003  0.2214  0.2425
14864TIP3   OH266082   3.151   6.638  16.077  0.3447  0.3839  0.0965
14864TIP3    H166083   3.069   6.617  16.033  0.4229  0.6607 -0.1855
14864TIP3    H266084   3.158   6.573  16.147 -0.2663  0.5588  0.3166
14865TIP3   OH266085   2.044   0.252   4.852 -0.2468  0.4203  0.5939
14865TIP3    H166086   2.029   0.327   4.909  0.6209  0.0859  1.2810
14865TIP3    H266087   1.958   0.210   4.844 -1.1887  2.6788 -1.5303
14866TIP3   OH266088   2.871   0.224   5.195 -0.0219  0.6348 -0.0094
14866TIP3    H166089   2.905   0.170   5.124  0.3864 -0.3167  0.9037
14866TIP3    H266090   2.856   0.310   5.155 -0.9440 -0.2173 -1.5453
14867TIP3   OH266091   0.099   6.700   1.775  0.7331 -0.2369 -0.3282
14867TIP3    H166092   0.172   6.734   1.827  2.0734 -3.7693  0.3114
14867TIP3    H266093   0.130   6.705   1.685  0.5270  1.0607 -0.3352
14868TIP3   OH266094   5.782   3.697   2.559  0.5237  0.3425  0.3508
14868TIP3    H166095   5.801   3.653   2.642  0.2110 -0.0934  0.1934
14868TIP3    H266096   5.868   3.728   2.529  1.0982 -1.9966 -0.5751
14869TIP3   OH266097   3.650   3.276  10.988 -0.1173 -0.1267  0.1545
14869TIP3    H166098   3.684   3.365  10.978  0.6151 -0.6567 -2.4629
14869TIP3    H266099   3.558   3.288  11.011  0.0468  1.3242  0.1045
14870TIP3   OH266100   3.472   3.320   3.511  0.6089 -0.6697  0.0710
14870TIP3    H166101   3.517   3.336   3.428  0.3099 -1.6288 -0.2821
14870TIP3    H266102   3.451   3.407   3.544  0.5655 -0.2885 -0.9456
14871TIP3   OH266103   2.712   1.211   3.563 -0.1001 -0.3446  0.1036
14871TIP3    H166104   2.709   1.159   3.483  0.0487 -0.1459 -0.0325
14871TIP3    H266105   2.780   1.170   3.616 -1.4197 -1.5602  0.8897
14872TIP3   OH266106   3.402   5.591  11.579  0.0206  0.2603  0.2092
14872TIP3    H166107   3.325   5.631  11.619  0.4192  2.0953 -0.8079
14872TIP3    H266108   3.368   5.538  11.507 -0.2688  1.6707 -0.7182
14873TIP3   OH266109   4.192   1.287  12.927 -0.2118 -0.0961 -0.2454
14873TIP3    H166110   4.225   1.365  12.881 -0.1916 -0.4085 -0.7739
14873TIP3    H266111   4.176   1.317  13.016 -2.6828  1.2068 -1.0740
14874TIP3   OH266112   6.475   0.636   2.395  0.4661 -0.1421  0.4643
14874TIP3    H166113   6.529   0.693   2.341  0.2536  0.2273  0.6400
14874TIP3    H266114   6.385   0.655   2.368  0.5104 -2.2823 -1.3351
14875TIP3   OH266115   4.158   0.318  16.527  0.5602  0.5306 -0.2258
14875TIP3    H166116   4.076   0.311  16.478 -0.1387  2.0875  0.7033
14875TIP3    H266117   4.190   0.227  16.534  0.0693  0.1489 -2.4920
14876TIP3   OH266118   1.881   0.984  13.187  0.6242  0.8363  0.3803
14876TIP3    H166119   1.958   0.937  13.156  0.0986 -1.3480  2.1890
14876TIP3    H266120   1.901   1.003  13.279  0.6000  3.7552 -0.1866
14877TIP3   OH266121   0.716   6.289   1.848  0.3821 -0.6954  0.0778
14877TIP3    H166122   0.770   6.250   1.916  0.9711  2.5086  1.5141
14877TIP3    H266123   0.629   6.251   1.862  0.8251 -1.1318  1.6922
14878TIP3   OH266124   3.440   0.076   2.641 -0.1775 -0.1104 -0.0492
14878TIP3    H166125   3.524   0.081   2.687 -0.1590 -0.3043 -0.0609
14878TIP3    H266126   3.449   0.137   2.568 -0.0550 -0.1135 -0.0364
14879TIP3   OH266127   3.775   4.918   4.750 -0.4873  0.5451  0.0987
14879TIP3    H166128   3.823   4.894   4.829 -0.4789 -1.0399 -0.3650
14879TIP3    H266129   3.714   4.845   4.736 -0.6826  0.9444 -1.2025
14880TIP3   OH266130   4.465   6.032   5.035 -0.4218  0.0666  0.6064
14880TIP3    H166131   4.385   6.005   4.990  1.3120 -0.9527 -1.9883
14880TIP3    H266132   4.497   5.953   5.077  1.7666 -0.7398 -2.4465
14881TIP3   OH266133   4.909   5.701  14.272  0.2605 -0.4408  0.5966
14881TIP3    H166134   4.965   5.638  14.227  1.6663 -0.8236  2.8096
14881TIP3    H266135   4.965   5.776  14.290 -1.1713  1.1132 -1.2150
14882TIP3   OH266136   5.655   6.557   6.254  0.6891 -0.4866  0.7080
14882TIP3    H166137   5.572   6.510   6.251 -0.8521  2.1996 -0.1558
14882TIP3    H266138   5.677   6.562   6.347 -1.1574  0.5036  1.1036
14883TIP3   OH266139   3.067   0.916  12.722 -0.3422  0.1235  0.1491
14883TIP3    H166140   2.989   0.886  12.677 -0.0931  0.9374 -0.8501
14883TIP3    H266141   3.095   0.842  12.776 -1.8337 -0.1382  0.5621
14884TIP3   OH266142   0.429   3.749  16.825 -0.0184 -0.3461 -0.4120
14884TIP3    H166143   0.427   3.664  16.869  0.3715  0.1857  0.6317
14884TIP3    H266144   0.475   3.807  16.885 -1.9075  1.0724 -0.2753
14885TIP3   OH266145   3.105   0.449  14.430  0.3853  0.0289 -0.6432
14885TIP3    H166146   3.086   0.357  14.449 -0.1690 -0.1878 -2.1655
14885TIP3    H266147   3.114   0.452  14.335 -0.9213  1.7837 -0.7300
14886TIP3   OH266148   6.099   5.349  13.791  0.4968  0.4339 -0.5716
14886TIP3    H166149   6.077   5.325  13.701 -2.2219  1.7230 -0.2834
14886TIP3    H266150   6.038   5.299  13.845  1.3162  0.5779  0.5178
14887TIP3   OH266151   1.075   4.881  15.101  0.0942 -0.2160  0.0798
14887TIP3    H166152   1.115   4.962  15.070  0.5314 -0.3241  0.3537
14887TIP3    H266153   1.117   4.812  15.050 -0.8374 -0.2195 -0.7110
14888TIP3   OH266154   1.824   3.517   1.446  0.2882  0.1305  0.3408
14888TIP3    H166155   1.763   3.542   1.516  1.5744  2.2360  0.7805
14888TIP3    H266156   1.775   3.531   1.366 -0.7767 -1.0449  0.7752
14889TIP3   OH266157   3.632   0.877  11.275 -0.5654 -0.3415  0.1439
14889TIP3    H166158   3.643   0.827  11.194 -0.7752  1.1327 -0.8068
14889TIP3    H266159   3.568   0.944  11.253  2.6296  2.8818  0.2152
14890TIP3   OH266160   1.092   6.363   4.839 -0.3740  0.5889 -0.3166
14890TIP3    H166161   1.164   6.324   4.789 -0.0695  0.7961 -0.0431
14890TIP3    H266162   1.029   6.292   4.849  0.6316 -0.1425  1.0578
14891TIP3   OH266163   2.318   2.985  12.109 -0.1311  0.0699  0.8116
14891TIP3    H166164   2.225   3.009  12.111 -0.2765 -0.4521  0.2357
14891TIP3    H266165   2.333   2.943  12.194 -0.9470 -1.7896  0.0713
14892TIP3   OH266166   1.531   5.785  16.219 -0.0736  0.2764  0.5971
14892TIP3    H166167   1.627   5.790  16.214 -0.0483  0.7595  1.4668
14892TIP3    H266168   1.502   5.783  16.128  0.8014 -0.5936  0.3288
14893TIP3   OH266169   0.077   0.339   0.378 -0.1900  0.1680  0.2527
14893TIP3    H166170   0.017   0.324   0.451 -0.1367 -0.6090  0.1410
14893TIP3    H266171   0.101   0.431   0.386 -2.1457  0.7520 -0.2750
14894TIP3   OH266172   5.414   4.739   5.328  0.0812 -0.2836 -0.5694
14894TIP3    H166173   5.378   4.663   5.374  0.7420 -1.0490 -1.2799
14894TIP3    H266174   5.502   4.711   5.303  0.2936  0.6911 -0.9176
14895TIP3   OH266175   4.180   4.455  11.409  0.5272 -0.0032  0.1721
14895TIP3    H166176   4.155   4.544  11.435  1.7094  0.4150 -0.0943
14895TIP3    H266177   4.150   4.448  11.319  0.3246  0.0936  0.2321
14896TIP3   OH266178   1.557   6.016   5.472 -0.0498 -0.6912 -0.1117
14896TIP3    H166179   1.523   6.082   5.412 -2.3617 -1.0643  0.7334
14896TIP3    H266180   1.576   6.064   5.553 -2.1032 -1.0639  0.6353
14897TIP3   OH266181   0.910   0.438  16.171  0.6951 -0.0844  0.6427
14897TIP3    H166182   0.847   0.369  16.192 -0.9863  1.2867  0.1743
14897TIP3    H266183   0.921   0.486  16.253 -1.0634  1.3941  0.0645
14898TIP3   OH266184   6.762   3.792   2.430  0.5235 -0.2013  0.2563
14898TIP3    H166185   6.808   3.875   2.441 -3.7513  2.7270 -2.3529
14898TIP3    H266186   6.778   3.767   2.339 -2.1414  0.4089 -0.4343
14899TIP3   OH266187   4.466   5.225   4.495  0.0016  0.0848 -0.1088
14899TIP3    H166188   4.551   5.180   4.490  0.7387  1.5717 -1.3113
14899TIP3    H266189   4.488   5.315   4.517 -1.3610  0.2228  0.7351
14900TIP3   OH266190   5.333   1.037   4.347 -0.3454 -0.5522 -0.5855
14900TIP3    H166191   5.303   1.071   4.431 -1.1714  0.2932 -1.2112
14900TIP3    H266192   5.420   1.075   4.335 -0.6743  0.1961 -0.6136
14901TIP3   OH266193   3.942   5.787   0.777  0.1641 -0.5745 -0.8241
14901TIP3    H166194   4.021   5.839   0.768 -1.1574  1.5046 -0.5991
14901TIP3    H266195   3.970   5.698   0.755  2.6252  0.0565 -0.3734
14902TIP3   OH266196   0.421   6.532  16.690  0.2205 -0.0385 -0.4634
14902TIP3    H166197   0.337   6.531  16.645 -0.7202  1.8127  1.1532
14902TIP3    H266198   0.410   6.474  16.764  1.0505 -1.3649 -1.3511
14903TIP3   OH266199   1.828   6.019  16.920  0.3940 -0.3337 -0.1992
14903TIP3    H166200   1.885   5.945  16.940  0.1244 -0.5616 -0.2645
14903TIP3    H266201   1.808   6.010  16.827 -0.6554 -0.8927  0.0782
14904TIP3   OH266202   6.145   3.787   0.221 -0.4626  0.4890 -0.3582
14904TIP3    H166203   6.214   3.819   0.278 -0.8436 -0.1165  0.4482
14904TIP3    H266204   6.182   3.792   0.133  0.2341  1.1373 -0.0266
14905TIP3   OH266205   0.276   4.411   0.259  0.2504 -0.3790  0.0259
14905TIP3    H166206   0.209   4.346   0.281  1.3304 -1.4184  0.2683
14905TIP3    H266207   0.280   4.467   0.337 -0.9146  0.2100 -0.3115
14906TIP3   OH266208   3.530   3.521  15.841  0.0088 -0.2321 -0.2108
14906TIP3    H166209   3.540   3.615  15.855 -0.0976 -0.3930  0.9850
14906TIP3    H266210   3.616   3.484  15.859 -0.1905 -0.4729  0.2516
14907TIP3   OH266211   3.384   4.932  11.662 -0.5961  0.1971  0.0032
14907TIP3    H166212   3.429   5.012  11.634 -1.6473  1.3764  1.6032
14907TIP3    H266213   3.374   4.881  11.582 -0.8632  2.1429 -1.2405
14908TIP3   OH266214   3.456   2.244  16.191 -0.7284 -0.0544 -0.5795
14908TIP3    H166215   3.448   2.203  16.277 -2.8643 -0.5983 -1.0041
14908TIP3    H266216   3.445   2.337  16.208  0.0466 -0.0486 -0.1064
14909TIP3   OH266217   0.876   2.796   6.820 -0.4168 -0.8575  0.0756
14909TIP3    H166218   0.851   2.800   6.913 -0.8126 -1.4081 -0.0062
14909TIP3    H266219   0.795   2.777   6.774 -0.5159  0.9803 -0.5451
14910TIP3   OH266220   3.428   6.816   0.326  0.7230  0.2921  0.6136
14910TIP3    H166221   3.363   6.853   0.385 -0.1880 -0.9797  0.4317
14910TIP3    H266222   3.504   6.874   0.333 -0.6024  2.0628  0.4516
14911TIP3   OH266223   2.856   2.602  16.745 -0.1813  0.2235  0.0181
14911TIP3    H166224   2.820   2.531  16.798  1.0926  0.6999  1.5392
14911TIP3    H266225   2.811   2.680  16.776  0.2207  0.4324  0.0774
14912TIP3   OH266226   1.814   6.564  16.711  0.1353  0.3028 -0.2144
14912TIP3    H166227   1.900   6.602  16.697  0.1244  0.4356  0.0806
14912TIP3    H266228   1.816   6.532  16.801 -0.0723  0.1755 -0.2509
14913TIP3   OH266229   5.755   3.186   2.168 -0.6256  0.8126  0.1922
14913TIP3    H166230   5.771   3.095   2.194 -0.9912 -0.3216 -3.2815
14913TIP3    H266231   5.838   3.231   2.183  0.4565 -0.7990 -0.8640
14914TIP3   OH266232   4.076   0.005   4.065  0.3456 -0.3763 -0.5795
14914TIP3    H166233   4.091   0.047   3.980  1.4052 -1.4609 -0.9358
14914TIP3    H266234   4.111  -0.083   4.055 -0.2026 -0.7580  0.7529
14915TIP3   OH266235   6.357   0.205   0.929 -0.6341  0.8256  0.1276
14915TIP3    H166236   6.363   0.202   1.024  1.4514 -0.2521 -0.0169
14915TIP3    H266237   6.285   0.146   0.908 -2.4096  2.5655  1.1113
14916TIP3   OH266238   5.438   4.119  16.775 -0.6980 -0.3543 -0.2608
14916TIP3    H166239   5.441   4.160  16.688  0.4611  1.2285  0.4912
14916TIP3    H266240   5.362   4.061  16.771 -0.1223 -1.0219 -2.6310
14917TIP3   OH266241   0.140   1.404   1.345 -0.2346  0.0967 -0.4783
14917TIP3    H166242   0.161   1.439   1.431 -0.9389  0.9033 -0.6244
14917TIP3    H266243   0.191   1.456   1.284 -0.7889  0.4524 -0.6467
14918TIP3   OH266244   1.908   1.494   3.522  0.2211  0.3901  0.5241
14918TIP3    H166245   1.897   1.483   3.617 -0.1503 -0.0878  0.4277
14918TIP3    H266246   1.981   1.437   3.500 -0.3624 -0.3003  0.3583
14919TIP3   OH266247   2.921   6.806  10.783  0.4065 -0.4933  0.0508
14919TIP3    H166248   2.917   6.859  10.703 -1.4074  1.4635  1.3739
14919TIP3    H266249   2.867   6.854  10.846  1.2601 -2.3493  2.2579
14920TIP3   OH266250   3.935   5.101   2.910 -0.2214  0.4317 -0.5986
14920TIP3    H166251   3.965   5.058   2.991 -2.2107  1.3836  0.6811
14920TIP3    H266252   3.974   5.189   2.914 -0.9263  0.7349 -0.2888
14921TIP3   OH266253   2.869   0.387   4.570 -0.5135 -0.1439 -0.1561
14921TIP3    H166254   2.847   0.474   4.601 -0.1725  0.0361 -0.4127
14921TIP3    H266255   2.840   0.385   4.479  0.2912  0.0123 -0.4210
14922TIP3   OH266256   4.064   3.773  14.348  0.0757 -0.4723 -0.0547
14922TIP3    H166257   3.981   3.802  14.384 -0.5827  0.1956 -2.0540
14922TIP3    H266258   4.122   3.849  14.356 -0.0700 -0.3236 -0.4258
14923TIP3   OH266259   6.806   4.794   3.247  0.1743  0.0362 -0.0547
14923TIP3    H166260   6.799   4.873   3.193 -1.5589  0.0534  0.1474
14923TIP3    H266261   6.791   4.722   3.186 -0.6113 -0.0005  0.1658
14924TIP3   OH266262   2.448   4.564  11.234 -0.0720 -0.0337 -0.1144
14924TIP3    H166263   2.431   4.634  11.170  2.1474 -0.5385 -1.3232
14924TIP3    H266264   2.430   4.483  11.186  1.3631 -0.4118 -0.0325
14925TIP3   OH266265   4.755   6.166   4.181 -0.0306  0.1142 -0.1377
14925TIP3    H166266   4.815   6.158   4.107 -0.8113 -0.4476 -0.7148
14925TIP3    H266267   4.793   6.110   4.249  0.4100  0.2244 -0.2897
14926TIP3   OH266268   0.227   3.269   1.791  0.4193 -0.2371  0.0333
14926TIP3    H166269   0.215   3.241   1.700 -0.2402 -0.9346  0.3255
14926TIP3    H266270   0.276   3.350   1.785 -0.5550  0.2944 -1.0192
14927TIP3   OH266271   4.961   4.823  12.954 -0.4218 -0.4890  0.2127
14927TIP3    H166272   4.902   4.898  12.968 -0.5128 -0.4811 -0.2195
14927TIP3    H266273   4.990   4.831  12.864 -0.2914 -0.8792  0.2188
14928TIP3   OH266274   2.736   0.587  11.675  0.2287 -0.1885  0.2569
14928TIP3    H166275   2.660   0.639  11.703  1.3354  2.0641 -0.7628
14928TIP3    H266276   2.712   0.497  11.695 -1.9175  0.6659  1.7696
14929TIP3   OH266277   1.930   2.659   6.006  0.0284 -0.5768 -0.3218
14929TIP3    H166278   1.909   2.603   5.932 -1.3729 -1.1145  0.4770
14929TIP3    H266279   1.914   2.605   6.083  1.9614 -0.1868  0.3904
14930TIP3   OH266280   4.806   3.957  12.831 -0.0695  0.2152  0.4016
14930TIP3    H166281   4.832   4.049  12.841  1.5438 -0.1793  0.0625
14930TIP3    H266282   4.832   3.916  12.913 -0.3668 -0.0380  0.3699
14931TIP3   OH266283   4.855   0.405  15.000 -0.1320 -0.1935 -0.2204
14931TIP3    H166284   4.951   0.403  15.005 -0.1364 -2.2322 -0.6320
14931TIP3    H266285   4.829   0.314  15.013 -2.0218  0.3440 -0.1928
14932TIP3   OH266286   1.156   4.792  16.695 -0.6147 -0.1216 -0.2711
14932TIP3    H166287   1.072   4.750  16.675 -1.2305  0.7930  0.3749
14932TIP3    H266288   1.207   4.783  16.615 -0.8000 -1.9500 -0.2056
14933TIP3   OH266289   0.607   0.642  13.125  0.3754  0.0908 -0.3781
14933TIP3    H166290   0.564   0.727  13.126  0.3980  0.0878  1.6374
14933TIP3    H266291   0.622   0.624  13.032 -0.2376  1.9648 -0.8545
14934TIP3   OH266292   6.733   5.238  15.693  0.4513  0.1364 -0.0825
14934TIP3    H166293   6.696   5.240  15.605  0.8348 -1.1696 -0.2800
14934TIP3    H266294   6.826   5.259  15.680  1.2686 -3.3574 -0.4301
14935TIP3   OH266295   5.541   6.698   5.972 -0.2468 -0.1225  0.1666
14935TIP3    H166296   5.574   6.631   6.032  0.7302  0.3413  0.1614
14935TIP3    H266297   5.471   6.742   6.021 -1.1154 -1.3519  0.0437
14936TIP3   OH266298   6.518   2.757   1.270  0.3262 -0.1634 -0.0860
14936TIP3    H166299   6.455   2.754   1.199  0.2769 -3.1190  0.0192
14936TIP3    H266300   6.590   2.700   1.241  1.1332  0.0643  1.4192
14937TIP3   OH266301   0.979   4.277   3.787 -0.2966  0.3922  0.2754
14937TIP3    H166302   1.046   4.336   3.752  0.0007 -0.5075 -0.6953
14937TIP3    H266303   1.002   4.267   3.879 -0.1677  1.5396  0.3822
14938TIP3   OH266304   5.326   6.735   2.890 -0.3480  0.3459 -0.0457
14938TIP3    H166305   5.320   6.641   2.873 -1.7960  0.1975  1.1602
14938TIP3    H266306   5.343   6.741   2.984 -2.4947  1.3065  0.3151
14939TIP3   OH266307   3.713   4.047  16.555  0.2254  0.1222 -0.4360
14939TIP3    H166308   3.620   4.026  16.568 -0.2197  2.8236  1.0831
14939TIP3    H266309   3.760   3.972  16.592 -1.3251 -0.5892  0.1465
14940TIP3   OH266310   0.988   4.261  12.763  0.1823 -0.0419 -0.1316
14940TIP3    H166311   0.963   4.334  12.707 -1.8417 -0.6105  0.0197
14940TIP3    H266312   0.916   4.252  12.825  0.9801 -1.3802  0.6214
14941TIP3   OH266313   2.383   3.406   2.645  0.1480  0.9319 -0.1329
14941TIP3    H166314   2.318   3.368   2.705  0.5751 -0.9291 -0.8108
14941TIP3    H266315   2.356   3.375   2.559  0.4828  2.2525 -0.7096
14942TIP3   OH266316   6.501   2.681  15.727 -0.1564 -0.2461  0.2156
14942TIP3    H166317   6.543   2.743  15.786 -2.3329  0.9397  0.5545
14942TIP3    H266318   6.456   2.735  15.662  1.7420 -1.5195 -2.2881
14943TIP3   OH266319   0.635   0.088   1.400 -0.6934 -0.2193  0.1998
14943TIP3    H166320   0.585   0.141   1.338  0.1230  0.6616  0.2902
14943TIP3    H266321   0.572   0.024   1.433 -1.9691  1.3440  0.8589
14944TIP3   OH266322   6.531   4.264   1.687 -0.3609 -0.0440  0.1374
14944TIP3    H166323   6.559   4.347   1.725 -0.9310 -0.8981  2.5489
14944TIP3    H266324   6.592   4.200   1.721 -3.0250 -1.3868  2.6535
14945TIP3   OH266325   2.230   1.750   1.374 -0.2011  0.4516 -0.0222
14945TIP3    H166326   2.292   1.748   1.301 -1.2447  0.1570 -0.9112
14945TIP3    H266327   2.189   1.663   1.373 -1.7708  1.1915 -0.4359
14946TIP3   OH266328   6.682   3.165   1.215 -0.4023  0.2230 -0.3567
14946TIP3    H166329   6.656   3.127   1.299 -0.6395 -0.6415 -0.8192
14946TIP3    H266330   6.680   3.260   1.230 -0.7522  0.0804  0.5215
14947TIP3   OH266331   4.359   5.731  15.569  0.3074 -0.4842  0.1727
14947TIP3    H166332   4.286   5.743  15.509  1.4809  0.1434 -1.1511
14947TIP3    H266333   4.404   5.815  15.570  0.5547 -0.6227  1.5970
14948TIP3   OH266334   1.201   3.675   4.147  0.6142  0.3683  1.0789
14948TIP3    H166335   1.227   3.760   4.112 -0.9940  1.1433  1.6824
14948TIP3    H266336   1.133   3.696   4.211 -0.0057 -1.3967  1.0214
14949TIP3   OH266337   4.678   3.995   5.520 -0.3377 -0.0470 -0.2316
14949TIP3    H166338   4.584   4.011   5.519 -0.5248 -0.9301  0.8888
14949TIP3    H266339   4.685   3.899   5.523  0.5035  0.0474  3.0939
14950TIP3   OH266340   0.854   1.101   4.001 -0.5982  0.2514 -0.0006
14950TIP3    H166341   0.906   1.181   3.990 -0.3811  0.1544  0.2987
14950TIP3    H266342   0.885   1.063   4.084 -1.2566  0.2723  0.2612
14951TIP3   OH266343   0.364   2.049  12.550  0.4688  0.0284  0.7147
14951TIP3    H166344   0.281   2.096  12.548  1.9086  2.6693  0.1536
14951TIP3    H266345   0.355   1.981  12.484  0.2218  2.9889 -2.4647
14952TIP3   OH266346   6.729   6.439   4.393 -0.1994  0.1371 -0.1188
14952TIP3    H166347   6.637   6.467   4.392 -0.3214 -0.2673 -2.6928
14952TIP3    H266348   6.771   6.492   4.326  1.0551 -0.9377 -0.2000
14953TIP3   OH266349   3.397   1.990   6.137  0.6195 -0.0945 -0.2502
14953TIP3    H166350   3.323   1.930   6.149  0.2593  0.3059 -0.4709
14953TIP3    H266351   3.360   2.065   6.090  0.5546  1.3359  2.0002
14954TIP3   OH266352   3.150   0.492  12.759  0.0240 -0.0669 -0.4766
14954TIP3    H166353   3.232   0.540  12.749  0.0018  0.2313  0.7480
14954TIP3    H266354   3.082   0.558  12.750 -0.1026 -0.3351 -1.6221
14955TIP3   OH266355   2.552   3.591   3.828  1.0997  0.3445  0.4443
14955TIP3    H166356   2.576   3.620   3.916 -2.7307  1.0161  1.3567
14955TIP3    H266357   2.541   3.672   3.778 -1.0431  0.2159  0.6243
14956TIP3   OH266358   0.539   5.783   4.282  0.1637  0.4757 -0.1766
14956TIP3    H166359   0.587   5.729   4.219 -0.9525  1.5054 -1.9423
14956TIP3    H266360   0.566   5.749   4.367 -0.2634 -2.7194 -1.2163
14957TIP3   OH266361   0.263   5.791   1.126 -0.1558 -0.3337  0.4443
14957TIP3    H166362   0.259   5.834   1.041 -1.0766 -0.0854  0.6092
14957TIP3    H266363   0.192   5.829   1.176 -0.7961 -1.8106  0.6977
14958TIP3   OH266364   0.567   3.304   2.367 -0.5172 -0.4413 -0.1931
14958TIP3    H166365   0.547   3.394   2.390  0.1731 -0.6593  1.3384
14958TIP3    H266366   0.583   3.306   2.273 -0.8597  0.9562 -0.2310
14959TIP3   OH266367   4.405   6.503  13.195 -0.0332  0.8865  0.1099
14959TIP3    H166368   4.384   6.538  13.282 -1.1531  1.1393 -0.2468
14959TIP3    H266369   4.479   6.556  13.165  0.5386  0.6101  1.0227
14960TIP3   OH266370   0.488   1.067  16.759  0.2462  0.4188  0.5363
14960TIP3    H166371   0.485   1.091  16.851 -0.5450  2.4734 -0.0089
14960TIP3    H266372   0.397   1.071  16.729  0.6003  0.6929 -0.5529
14961TIP3   OH266373   1.741   3.675   0.773  0.1681 -0.0650 -0.6965
14961TIP3    H166374   1.819   3.665   0.720 -0.0327 -1.0921 -0.8014
14961TIP3    H266375   1.734   3.769   0.788  2.0174 -0.0517  0.2185
14962TIP3   OH266376   6.073   0.825  13.754  0.6073 -0.0630 -0.4955
14962TIP3    H166377   6.133   0.898  13.768  0.8449 -0.5586  1.1355
14962TIP3    H266378   6.129   0.747  13.757  0.0494 -0.4531 -0.0840
14963TIP3   OH266379   3.889   2.559  10.548 -0.6082  0.2417 -0.6280
14963TIP3    H166380   3.900   2.483  10.605 -0.4965  1.3375  0.8226
14963TIP3    H266381   3.936   2.535  10.468  2.2655  0.0972  1.0504
14964TIP3   OH266382   3.593   1.394  14.756  0.2961 -0.2635  0.7354
14964TIP3    H166383   3.563   1.406  14.846 -0.2445  0.0030  0.5237
14964TIP3    H266384   3.630   1.479  14.731  0.6578 -0.4058  0.7843
14965TIP3   OH266385   1.630   6.169  13.912  0.3571  1.0344 -0.0341
14965TIP3    H166386   1.603   6.258  13.895 -0.8409  0.3683 -1.7079
14965TIP3    H266387   1.549   6.119  13.918  1.0580 -0.5720 -2.8219
14966TIP3   OH266388   6.399   0.948  11.269  0.0477 -0.4101  0.2032
14966TIP3    H166389   6.393   0.852  11.265  0.2297 -0.3840 -0.8769
14966TIP3    H266390   6.387   0.977  11.178  0.9077  0.5320  0.3796
14967TIP3   OH266391   0.670   3.471  12.095  0.0756  0.3657  0.1929
14967TIP3    H166392   0.699   3.380  12.096 -1.2733 -0.0701 -0.0232
14967TIP3    H266393   0.734   3.515  12.038 -1.0702 -1.0690 -2.2805
14968TIP3   OH266394   5.425   0.675   4.517  0.0857 -0.3052 -0.3492
14968TIP3    H166395   5.347   0.707   4.473 -0.7279 -0.0925  1.2113
14968TIP3    H266396   5.465   0.614   4.455 -1.2748 -0.3565 -1.1839
14969TIP3   OH266397   3.647   3.553  10.954  0.1704 -0.0446 -0.4587
14969TIP3    H166398   3.637   3.647  10.973 -1.0008 -0.6640  2.2474
14969TIP3    H266399   3.588   3.536  10.881 -1.0395  0.9698  0.2699
14970TIP3   OH266400   4.161   6.384  10.270 -0.5678  0.0426 -0.2105
14970TIP3    H166401   4.070   6.381  10.240 -0.4534 -2.2056 -0.3997
14970TIP3    H266402   4.175   6.299  10.311  1.2389  0.6699  0.5014
14971TIP3   OH266403   2.593   0.941  16.995  0.3738 -0.2729 -0.3850
14971TIP3    H166404   2.655   0.918  16.926  1.1879  2.1860 -0.5359
14971TIP3    H266405   2.570   1.032  16.977 -0.9256 -0.2065  1.4576
14972TIP3   OH266406   0.212   0.485   4.111  0.3486  0.0580  0.5138
14972TIP3    H166407   0.127   0.484   4.156  0.2062  0.2751  0.2467
14972TIP3    H266408   0.270   0.436   4.169  0.3398  0.9473  1.2805
14973TIP3   OH266409   5.880   6.442   4.012 -0.1426 -0.0155  0.1688
14973TIP3    H166410   5.862   6.438   4.106 -0.3000 -1.1995  0.0969
14973TIP3    H266411   5.847   6.358   3.978 -1.1148  0.8651 -1.1169
14974TIP3   OH266412   0.328   1.601  14.472  0.1716  0.5902 -0.0668
14974TIP3    H166413   0.390   1.669  14.499  0.8466 -0.1185  0.1793
14974TIP3    H266414   0.242   1.642  14.480  0.4853  0.9751  1.4137
14975TIP3   OH266415   5.559   6.633  11.495 -0.2973  0.3162  0.2357
14975TIP3    H166416   5.624   6.635  11.565  1.6825 -2.0783 -1.4585
14975TIP3    H266417   5.495   6.568  11.524 -0.7169  0.9981  0.8529
14976TIP3   OH266418   1.087   0.997   3.480 -0.2940  0.1662  0.7108
14976TIP3    H166419   1.095   0.971   3.388  4.6228 -0.2646  1.1285
14976TIP3    H266420   1.075   0.914   3.527  2.3170 -0.1682  0.8568
14977TIP3   OH266421   1.080   6.200   0.698  0.3035  0.2226 -0.4727
14977TIP3    H166422   1.066   6.265   0.767  4.3762  1.6308 -0.8611
14977TIP3    H266423   1.029   6.124   0.726 -1.9030  2.3975  1.6460
14978TIP3   OH266424   5.720   1.886  13.742 -0.5087 -0.2167 -0.1171
14978TIP3    H166425   5.664   1.827  13.691 -0.4872 -0.3277 -0.0138
14978TIP3    H266426   5.711   1.970  13.698  1.0869 -0.7477 -1.5321
14979TIP3   OH266427   4.085   4.869  10.501  0.0641 -0.2177  0.8340
14979TIP3    H166428   4.091   4.784  10.455  0.1068 -0.7473  1.8077
14979TIP3    H266429   4.160   4.868  10.561 -0.6998 -0.0517  1.7867
14980TIP3   OH266430   3.817   0.134   3.927 -0.0427  0.1485  0.0083
14980TIP3    H166431   3.831   0.115   3.834  0.3245 -1.5753  0.3991
14980TIP3    H266432   3.849   0.056   3.973  0.5063  1.2893  1.6330
14981TIP3   OH266433   3.926   5.210  15.198  0.5245 -0.5971 -0.2812
14981TIP3    H166434   3.993   5.273  15.226  1.7836 -1.3848 -1.5183
14981TIP3    H266435   3.888   5.249  15.119 -0.0541 -0.4606  0.0590
14982TIP3   OH266436   5.944   4.091   3.773 -0.0818 -0.1713  0.2285
14982TIP3    H166437   5.930   4.011   3.822 -0.6070  0.3961  1.0188
14982TIP3    H266438   5.933   4.066   3.682 -0.7606 -0.8838  0.5015
14983TIP3   OH266439   4.916   3.003   6.697 -0.1462  0.0291  0.1141
14983TIP3    H166440   4.898   2.947   6.622  0.4477 -0.2507  0.1774
14983TIP3    H266441   4.892   3.091   6.667 -0.0800 -0.1050 -0.3419
14984TIP3   OH266442   2.450   0.362   1.731 -0.0917 -0.2328  0.2733
14984TIP3    H166443   2.439   0.307   1.809 -0.7683  0.0173  0.3585
14984TIP3    H266444   2.458   0.300   1.659  1.1564 -0.4811  0.6056
14985TIP3   OH266445   2.480   2.675   5.804 -0.1795  0.2597 -0.0119
14985TIP3    H166446   2.460   2.769   5.806  0.2028  0.3800 -1.4717
14985TIP3    H266447   2.575   2.672   5.816 -0.4080 -0.0475  1.8570
14986TIP3   OH266448   1.518   2.932  12.778  0.1159  0.2517 -0.3099
14986TIP3    H166449   1.474   2.904  12.859  0.9061 -0.9720 -0.2907
14986TIP3    H266450   1.500   3.025  12.772 -0.0288  0.3319  1.2386
14987TIP3   OH266451   6.662   3.778   0.694  0.5732  0.2524  0.5346
14987TIP3    H166452   6.640   3.686   0.680 -1.4828  0.5812  1.3948
14987TIP3    H266453   6.746   3.776   0.739 -0.3629 -1.2779  2.2662
14988TIP3   OH266454   0.315   4.110  16.494 -0.2885  0.2761  0.3608
14988TIP3    H166455   0.336   4.052  16.422 -1.5305 -1.3774  1.2735
14988TIP3    H266456   0.379   4.090  16.562 -0.5444  0.1772  0.5739
14989TIP3   OH266457   4.212   0.187   4.201 -0.0003 -0.3745  0.1321
14989TIP3    H166458   4.199   0.116   4.139 -0.2325  1.2049 -1.6895
14989TIP3    H266459   4.124   0.213   4.228  0.1043 -1.1507  1.2560
14990TIP3   OH266460   5.244   3.491   2.888  0.3815  0.0705  0.3264
14990TIP3    H166461   5.234   3.520   2.979 -0.4335 -0.6117  0.4591
14990TIP3    H266462   5.176   3.539   2.841  0.2818 -0.1870  0.2111
14991TIP3   OH266463   5.573   4.548   5.491  0.3000  0.0859 -0.2776
14991TIP3    H166464   5.549   4.634   5.523  2.1724  0.3794  0.3713
14991TIP3    H266465   5.526   4.487   5.547  0.7791  0.6514  0.7371
14992TIP3   OH266466   3.508   4.866  15.077  0.2432 -0.3387 -0.2689
14992TIP3    H166467   3.485   4.938  15.136  0.0973 -1.8307  1.5531
14992TIP3    H266468   3.504   4.905  14.990 -0.6179  1.6530  0.6096
14993TIP3   OH266469   4.899   5.707   3.005  0.1917 -0.0071 -0.6816
14993TIP3    H166470   4.910   5.701   2.910  0.2921  1.2883 -0.7631
14993TIP3    H266471   4.989   5.713   3.039  0.1641 -0.6993 -0.4892
14994TIP3   OH266472   2.537   2.784   5.444 -0.3529  0.4160  1.1057
14994TIP3    H166473   2.611   2.728   5.423 -0.7694  0.4562 -0.5718
14994TIP3    H266474   2.492   2.797   5.360 -2.0101  0.7370  2.0080
14995TIP3   OH266475   4.628   2.887   0.688  0.0651 -0.2120  0.5017
14995TIP3    H166476   4.547   2.932   0.713  0.4185  0.8408 -0.1850
14995TIP3    H266477   4.695   2.955   0.696  0.7639 -0.8933  0.3813
14996TIP3   OH266478   5.627   5.984  15.347  0.1567 -0.1236  0.3040
14996TIP3    H166479   5.559   5.993  15.413  0.2093  0.3464  0.2997
14996TIP3    H266480   5.597   5.913  15.290 -0.3101  0.0530  0.3286
14997TIP3   OH266481   6.226   5.236  16.796 -0.5331  0.1037 -0.4616
14997TIP3    H166482   6.302   5.231  16.739 -0.1829 -0.8316  0.0842
14997TIP3    H266483   6.151   5.220  16.737 -0.1497 -1.2369 -0.5949
14998TIP3   OH266484   1.816   4.364  12.199  0.2643 -0.5319  0.0456
14998TIP3    H166485   1.843   4.356  12.107  0.3574  0.5190 -0.0266
14998TIP3    H266486   1.748   4.431  12.198  1.1018  0.3452  0.9134
14999TIP3   OH266487   2.260   3.043   3.060 -0.5131 -0.0285 -0.1927
14999TIP3    H166488   2.229   3.071   3.146 -1.0816 -0.5497 -0.2191
14999TIP3    H266489   2.212   2.962   3.043  2.0058 -1.6748  0.4093
15000TIP3   OH266490   0.107   2.330  16.708 -0.0094 -0.4321  0.2625
15000TIP3    H166491   0.084   2.353  16.798  1.8718 -0.8592  0.8827
15000TIP3    H266492   0.162   2.403  16.678 -0.6616 -0.2725 -0.5502
15001TIP3   OH266493   5.800   2.464  14.937  0.4212  0.3572 -0.1359
15001TIP3    H166494   5.876   2.507  14.897  0.2636  0.6397 -0.1357
15001TIP3    H266495   5.827   2.373  14.948  0.7098  0.4256 -0.2656
15002TIP3   OH266496   4.211   3.728   4.082  0.3979  0.3538  0.1288
15002TIP3    H166497   4.253   3.814   4.088  1.1213 -0.1151  2.3283
15002TIP3    H266498   4.131   3.743   4.032  0.7738  2.2046  0.0583
15003TIP3   OH266499   6.247   3.300  10.889 -0.1067  0.2856  0.1870
15003TIP3    H166500   6.210   3.388  10.883  1.6665  1.0762  0.3787
15003TIP3    H266501   6.206   3.251  10.817 -0.0283  1.6783 -0.8163
15004TIP3   OH266502   6.656   4.405  13.573  0.0384  0.2590  0.6034
15004TIP3    H166503   6.602   4.464  13.520  0.9258 -2.1830 -3.1710
15004TIP3    H266504   6.739   4.451  13.583  0.0598  0.5036 -0.6280
15005TIP3   OH266505   6.463   6.298  11.407 -0.0147  0.4160 -0.2001
15005TIP3    H166506   6.489   6.209  11.384 -0.5727  0.6918 -2.0375
15005TIP3    H266507   6.543   6.349  11.399  0.7658 -0.2432  2.8818
15006TIP3   OH266508   3.311   0.483   5.129 -0.8153 -0.2723 -0.3490
15006TIP3    H166509   3.280   0.518   5.212 -1.5726  0.1323 -0.7988
15006TIP3    H266510   3.406   0.493   5.132 -0.6967 -1.7045  1.1263
15007TIP3   OH266511   0.912   1.271   6.738 -0.2038 -0.0388  0.1831
15007TIP3    H166512   0.957   1.227   6.810  1.8697  0.6703 -0.6401
15007TIP3    H266513   0.899   1.203   6.673 -0.2851 -0.2483  0.4178
15008TIP3   OH266514   5.747   3.030  14.082  0.9934 -0.1173  0.1480
15008TIP3    H166515   5.828   3.003  14.125  0.2545 -2.8800 -0.0996
15008TIP3    H266516   5.679   3.012  14.147  0.1926 -1.3755 -1.0347
15009TIP3   OH266517   2.014   3.689  11.973  0.2702 -0.2712 -0.5621
15009TIP3    H166518   1.954   3.703  11.900  1.1034 -0.1061 -1.2305
15009TIP3    H266519   2.056   3.774  11.988  1.5804 -0.7745 -1.2446
15010TIP3   OH266520   6.772   0.194   0.112  0.2329  0.1484 -0.3768
15010TIP3    H166521   6.856   0.189   0.158 -1.0840  0.7938  2.2094
15010TIP3    H266522   6.795   0.202   0.020  3.0441  1.6602  0.4076
15011TIP3   OH266523   2.555   6.760   6.534  0.2108 -0.1770  0.3028
15011TIP3    H166524   2.500   6.822   6.581 -1.1039 -0.4750 -0.8111
15011TIP3    H266525   2.597   6.813   6.466 -0.8970 -0.4857 -0.6365
15012TIP3   OH266526   5.188   6.412  14.576 -0.0918 -0.2839 -0.1120
15012TIP3    H166527   5.241   6.435  14.651 -0.3999 -0.2675  0.1020
15012TIP3    H266528   5.236   6.341  14.532  0.2440 -0.0761 -0.0810
15013TIP3   OH266529   4.638   1.907   3.090 -0.4032 -0.4630  0.4211
15013TIP3    H166530   4.713   1.873   3.139 -0.9968 -1.3310  0.7524
15013TIP3    H266531   4.566   1.905   3.153 -1.0794 -1.2174 -0.3669
15014TIP3   OH266532   2.207   0.246  12.294  0.4474  0.4087  0.2893
15014TIP3    H166533   2.246   0.235  12.380 -0.6627 -3.0041  0.4221
15014TIP3    H266534   2.269   0.205  12.234 -0.3979 -0.2425 -0.1422
15015TIP3   OH266535   4.865   3.610   2.184 -0.3418  0.9543  0.0095
15015TIP3    H166536   4.908   3.559   2.253 -1.0846 -0.6919 -0.7057
15015TIP3    H266537   4.936   3.629   2.121 -0.1979  0.1691 -0.0739
15016TIP3   OH266538   2.054   5.026   1.492 -0.9844 -0.3602  0.1747
15016TIP3    H166539   2.024   4.947   1.449 -0.4142 -0.9085  0.7673
15016TIP3    H266540   2.055   5.093   1.423 -0.6714 -1.0711 -0.5153
15017TIP3   OH266541   0.749   2.365   4.070 -0.4864 -0.0861  0.2846
15017TIP3    H166542   0.760   2.460   4.072  0.8076 -0.2462  1.4139
15017TIP3    H266543   0.831   2.331   4.106 -1.0177 -1.6204  0.0553
15018TIP3   OH266544   4.899   4.131  11.467  0.4582  0.1064 -0.3010
15018TIP3    H166545   4.815   4.134  11.421  0.6426  1.1675 -0.5711
15018TIP3    H266546   4.897   4.204  11.528  1.5648  0.7163 -0.9733
15019TIP3   OH266547   4.671   0.801   6.024  1.1427 -0.0667 -0.1174
15019TIP3    H166548   4.586   0.794   5.979  0.3293 -1.0978  1.5122
15019TIP3    H266549   4.703   0.888   6.002  0.3496 -0.2143 -1.9538
15020TIP3   OH266550   0.575   3.979  17.001 -0.2789  0.2731 -0.3896
15020TIP3    H166551   0.626   4.030  17.064  0.0235  0.9960 -1.2076
15020TIP3    H266552   0.522   3.920  17.055  1.9116 -0.9719  0.4671
15021TIP3   OH266553   2.531   0.625   0.392  0.0953  0.2531 -0.5616
15021TIP3    H166554   2.542   0.531   0.380 -0.3075 -0.0750  1.4701
15021TIP3    H266555   2.619   0.660   0.392  0.3697 -0.4042  0.7042
15022TIP3   OH266556   3.680   0.133   5.709  0.4579 -0.3299 -0.0133
15022TIP3    H166557   3.773   0.116   5.697  1.0665  2.4285  0.6162
15022TIP3    H266558   3.663   0.110   5.801  0.3706 -1.3741 -0.2818
15023TIP3   OH266559   5.495   1.912   4.740  0.5604  0.4227 -0.0710
15023TIP3    H166560   5.535   1.851   4.679  0.2613 -0.5404  0.6831
15023TIP3    H266561   5.407   1.878   4.754  0.9924  0.0046  1.7481
15024TIP3   OH266562   2.123   3.625  16.258 -0.0005 -0.3222  0.3908
15024TIP3    H166563   2.161   3.548  16.301 -2.1444 -0.7151  1.6453
15024TIP3    H266564   2.119   3.602  16.165  1.4770 -0.8216  0.4425
15025TIP3   OH266565   3.837   1.625   2.968 -0.1299 -0.0987 -0.3705
15025TIP3    H166566   3.784   1.647   3.044  2.6753  0.2923  1.5386
15025TIP3    H266567   3.822   1.532   2.954  1.2222 -0.7635  2.2585
15026TIP3   OH266568   2.826   0.136  15.794  0.0388  0.5192 -0.7413
15026TIP3    H166569   2.749   0.154  15.740  0.2141  0.0251 -1.1604
15026TIP3    H266570   2.861   0.054  15.759 -0.5923 -0.5091  0.9238
15027TIP3   OH266571   6.070   2.102  15.887  0.0881 -0.8227  0.3470
15027TIP3    H166572   6.087   2.061  15.802  0.7001 -2.1871  1.1027
15027TIP3    H266573   6.156   2.110  15.927 -0.1748  0.0388  0.7454
15028TIP3   OH266574   5.410   3.612  14.272  0.1338 -0.0519  0.2227
15028TIP3    H166575   5.476   3.626  14.205 -2.0555  1.6724 -1.6475
15028TIP3    H266576   5.346   3.553  14.232 -0.8319  0.4197  1.0355
15029TIP3   OH266577   0.104   2.072   5.149  0.4046 -0.3459  0.7620
15029TIP3    H166578   0.062   2.132   5.212 -1.8264 -0.3484 -0.6694
15029TIP3    H266579   0.046   1.996   5.146 -0.2110  0.2091 -2.2433
15030TIP3   OH266580   1.301   6.549   0.398  0.0370  0.2823  0.2100
15030TIP3    H166581   1.313   6.521   0.488  1.4451  0.5050  0.1094
15030TIP3    H266582   1.259   6.475   0.355  1.9227 -0.9467  0.3960
15031TIP3   OH266583   4.460   0.911   4.580 -0.0790  0.2607  0.4208
15031TIP3    H166584   4.397   0.979   4.556  0.5190  0.7737  0.3095
15031TIP3    H266585   4.410   0.850   4.634 -1.4612 -0.9204 -2.0729
15032TIP3   OH266586   2.777   4.514  10.837 -0.4618 -0.2840  0.1007
15032TIP3    H166587   2.731   4.431  10.824 -0.1657 -0.4968  0.4066
15032TIP3    H266588   2.845   4.515  10.770  0.0831 -0.6815  0.6458
15033TIP3   OH266589   4.928   4.822   6.487  0.1201 -0.4059 -0.3956
15033TIP3    H166590   4.991   4.823   6.415 -1.0702 -2.3621 -1.5247
15033TIP3    H266591   4.951   4.744   6.537  1.4011  1.3279  1.8419
15034TIP3   OH266592   6.762   2.100   4.630 -0.3554  0.6131  0.3089
15034TIP3    H166593   6.825   2.155   4.677  0.3556  0.3671 -0.3428
15034TIP3    H266594   6.693   2.084   4.694  1.7178 -1.6378  2.1007
15035TIP3   OH266595   4.086   1.336   3.976 -0.2420 -0.4406 -0.2570
15035TIP3    H166596   4.156   1.399   3.994  0.5007 -1.2137 -0.3772
15035TIP3    H266597   4.020   1.385   3.927 -0.8292  0.8872  1.8196
15036TIP3   OH266598   4.808   0.825  15.889 -0.0777 -0.2361 -0.6584
15036TIP3    H166599   4.795   0.826  15.984  0.1704  0.1147 -0.6246
15036TIP3    H266600   4.867   0.899  15.873  0.9054 -1.0716 -0.9410
15037TIP3   OH266601   2.192   0.130  14.399 -0.1769  0.0485 -0.5311
15037TIP3    H166602   2.149   0.210  14.371 -1.1530 -0.6542 -1.1044
15037TIP3    H266603   2.121   0.065  14.404  0.6402 -0.8511 -0.3971
15038TIP3   OH266604   1.001   1.538   3.541  0.1098 -0.0695 -0.0654
15038TIP3    H166605   1.031   1.465   3.486 -0.4336  1.2646 -2.1950
15038TIP3    H266606   1.046   1.615   3.505  0.0121  0.7861  1.6005
15039TIP3   OH266607   1.660   1.198   5.701 -0.0785 -0.3284 -0.0548
15039TIP3    H166608   1.587   1.144   5.732 -0.0010  0.7242  2.0540
15039TIP3    H266609   1.736   1.167   5.750  0.1575  0.9944  0.4625
15040TIP3   OH266610   4.265   3.844  15.541 -0.3871 -0.4635  0.1408
15040TIP3    H166611   4.241   3.753  15.526 -0.3166 -0.1527 -2.0481
15040TIP3    H266612   4.357   3.841  15.566  0.5530 -0.8036 -3.1192
15041TIP3   OH266613   5.728   6.002   2.217  0.3226  0.2210  0.2449
15041TIP3    H166614   5.822   5.999   2.204  0.3870 -0.1873  0.7896
15041TIP3    H266615   5.710   6.094   2.238  0.4602  0.5053 -0.8535
15042TIP3   OH266616   3.591   4.254  12.697 -0.1178  0.4411 -0.4078
15042TIP3    H166617   3.513   4.242  12.750 -0.8191  1.4123 -1.1950
15042TIP3    H266618   3.575   4.200  12.619 -0.4036  1.3134 -0.9647
15043TIP3   OH266619   3.608   0.773   3.471  0.5374  0.4377 -0.5615
15043TIP3    H166620   3.541   0.840   3.453  0.7385  0.6771 -0.4245
15043TIP3    H266621   3.597   0.752   3.563  0.3057  0.0943 -0.6684
15044TIP3   OH266622   4.259   1.529  12.475 -0.2409  0.0073 -0.2074
15044TIP3    H166623   4.177   1.483  12.491 -0.7503  1.7078  2.3099
15044TIP3    H266624   4.325   1.459  12.469 -1.6778 -1.2884 -1.0829
15045TIP3   OH266625   3.123   2.126  17.044  0.2500 -0.2551  0.1629
15045TIP3    H166626   3.109   2.033  17.063  1.2668 -0.2811  0.8313
15045TIP3    H266627   3.183   2.155  17.112 -0.7285  1.1084  0.4616
15046TIP3   OH266628   3.168   5.100   5.953 -0.0867  0.2272 -0.5631
15046TIP3    H166629   3.082   5.070   5.983  1.1813 -1.1809  1.8437
15046TIP3    H266630   3.230   5.035   5.988  1.9073  0.7311 -2.9454
15047TIP3   OH266631   6.587   6.276   2.352  0.7964  0.0777  0.1971
15047TIP3    H166632   6.651   6.224   2.304  0.5552  0.8383 -0.9889
15047TIP3    H266633   6.604   6.366   2.324  0.7862  0.5605  1.7154
15048TIP3   OH266634   6.518   0.375  16.104  0.2125 -0.0184 -0.7040
15048TIP3    H166635   6.532   0.392  16.197 -2.2123 -1.4279 -0.0339
15048TIP3    H266636   6.606   0.361  16.068  1.2026  1.1491  1.2430
15049TIP3   OH266637   2.387   6.318  13.608  0.2169 -0.1545  0.0226
15049TIP3    H166638   2.376   6.237  13.659 -0.8665 -1.0331 -1.5662
15049TIP3    H266639   2.319   6.313  13.541  3.2246 -0.2851 -3.1396
15050TIP3   OH266640   2.770   4.515  11.156 -0.2192  0.1528  0.4008
15050TIP3    H166641   2.836   4.469  11.208  0.2125  0.6254  0.2738
15050TIP3    H266642   2.691   4.462  11.165  0.2229 -0.5084  0.4164
15051TIP3   OH266643   2.149   0.162  12.604 -0.2641 -0.4536 -0.4094
15051TIP3    H166644   2.168   0.170  12.697 -1.2850  0.7021 -0.2717
15051TIP3    H266645   2.055   0.144  12.600 -0.5018  0.8497 -1.2423
15052TIP3   OH266646   2.101   4.278   1.282 -0.1836  0.6659 -0.1159
15052TIP3    H166647   2.048   4.333   1.225  0.0430  0.4818 -0.5027
15052TIP3    H266648   2.105   4.326   1.365  0.7750  1.6653 -0.7348
15053TIP3   OH266649   3.354   3.828  12.822 -0.5309 -0.0167  0.5593
15053TIP3    H166650   3.320   3.824  12.732  1.0455 -0.0611 -0.0503
15053TIP3    H266651   3.321   3.748  12.863 -1.8280  0.3372  0.2254
15054TIP3   OH266652   1.069   5.706  16.429  0.4621 -0.3112  0.0743
15054TIP3    H166653   1.060   5.614  16.406  0.6942 -0.4558  0.5453
15054TIP3    H266654   1.043   5.710  16.521  2.2938 -0.2505  0.6090
15055TIP3   OH266655   5.056   1.186   2.413  0.4974  0.0506 -0.0128
15055TIP3    H166656   5.091   1.234   2.338  0.2509 -0.4084 -0.4208
15055TIP3    H266657   5.133   1.152   2.458  0.6075 -0.4101 -0.5448
15056TIP3   OH266658   1.778   1.366   0.951  0.2265 -0.2112 -0.1586
15056TIP3    H166659   1.776   1.437   1.016 -0.4121 -0.0337 -0.3594
15056TIP3    H266660   1.740   1.406   0.872  0.6196 -0.5438 -0.5121
15057TIP3   OH266661   4.200   2.085  13.840 -0.1539 -0.7612  0.1239
15057TIP3    H166662   4.208   2.015  13.775 -0.8376 -3.5390  2.9688
15057TIP3    H266663   4.289   2.101  13.870 -0.0350 -0.5751 -0.3172
15058TIP3   OH266664   6.122   0.401  15.071 -0.4019 -0.2948 -0.6711
15058TIP3    H166665   6.136   0.311  15.043 -1.8148 -0.5666 -0.5361
15058TIP3    H266666   6.122   0.452  14.990 -0.6609 -0.5614 -0.8375
15059TIP3   OH266667   1.946   6.719   3.732 -0.1521  0.2235  0.1828
15059TIP3    H166668   1.938   6.671   3.814  0.9320  0.7482  0.6102
15059TIP3    H266669   2.031   6.764   3.739  1.0295 -1.5544 -2.1834
15060TIP3   OH266670   3.459   2.534  11.969 -0.1596 -0.3724 -0.0843
15060TIP3    H166671   3.543   2.491  11.955  1.2029  1.8651  0.8407
15060TIP3    H266672   3.467   2.574  12.056 -1.7169  0.8914 -0.4964
15061TIP3   OH266673   3.571   4.590  12.756 -0.2384  0.3591 -0.1626
15061TIP3    H166674   3.549   4.594  12.662  0.0790  0.4569 -0.2335
15061TIP3    H266675   3.661   4.558  12.758 -0.2482  0.3503  0.1114
15062TIP3   OH266676   0.087   6.068  13.266 -0.2814  0.2658  0.4897
15062TIP3    H166677   0.021   6.027  13.321  0.1974  1.7260  2.2054
15062TIP3    H266678   0.048   6.151  13.239 -0.6794 -0.6302 -1.7546
15063TIP3   OH266679   0.033   4.523   4.760 -0.5863  0.7957  0.3416
15063TIP3    H166680  -0.027   4.457   4.727 -0.6438  1.4662 -0.9222
15063TIP3    H266681  -0.022   4.581   4.814 -0.5528 -0.1046  1.3641
15064TIP3   OH266682   5.277   4.609  12.234  0.5084  0.4581  0.0472
15064TIP3    H166683   5.337   4.673  12.274  0.5670 -0.2492  1.1101
15064TIP3    H266684   5.193   4.627  12.275  0.5669 -0.2769  0.4823
15065TIP3   OH266685   6.441   6.494   3.530  0.2791  0.1723  0.1499
15065TIP3    H166686   6.467   6.461   3.444  0.2760  1.1654 -0.2345
15065TIP3    H266687   6.376   6.430   3.562  0.9488 -0.6819 -0.1824
15066TIP3   OH266688   4.473   0.012  14.207  0.0198 -0.2355  0.0370
15066TIP3    H166689   4.528   0.085  14.178  3.4653 -2.1229  1.5142
15066TIP3    H266690   4.496  -0.060  14.147 -1.1102 -0.9466  0.4477
15067TIP3   OH266691   0.159   3.132   5.278  0.1977 -0.2087  0.1592
15067TIP3    H166692   0.129   3.133   5.369  0.5250  0.0575  0.2683
15067TIP3    H266693   0.176   3.225   5.258  0.8936 -0.3442  0.0893
15068TIP3   OH266694   5.939   0.178  16.624  0.2413 -0.0449 -0.8635
15068TIP3    H166695   5.991   0.108  16.583  1.0948  0.6963 -1.0474
15068TIP3    H266696   5.867   0.131  16.668  1.8677 -1.2237  0.6419
15069TIP3   OH266697   5.881   1.524  15.259  0.7026  0.3853 -0.4176
15069TIP3    H166698   5.855   1.501  15.170 -1.5982  0.6367  0.1539
15069TIP3    H266699   5.902   1.617  15.254  1.5705  0.1707 -0.8970
15070TIP3   OH266700   1.500   2.033   1.923  0.1582  0.8736 -0.0236
15070TIP3    H166701   1.594   2.046   1.921  0.1605  1.4243  1.9400
15070TIP3    H266702   1.474   2.023   1.831  2.0717  0.9942 -0.5897
15071TIP3   OH266703   2.381   6.766  14.245 -0.2176 -0.2783  0.1708
15071TIP3    H166704   2.329   6.827  14.297  0.5317 -0.4400  1.1317
15071TIP3    H266705   2.381   6.803  14.157 -2.3080 -0.5155  0.0510
15072TIP3   OH266706   4.046   5.161   3.647 -0.3778  0.1029 -0.9411
15072TIP3    H166707   4.031   5.240   3.698  0.9423  0.3938 -0.9912
15072TIP3    H266708   4.141   5.152   3.644 -0.5312 -2.4736  0.5898
15073TIP3   OH266709   0.556   0.990   1.135 -0.5410 -0.1301 -0.4763
15073TIP3    H166710   0.480   0.994   1.076 -0.3634 -0.0440 -0.7007
15073TIP3    H266711   0.523   1.019   1.219 -0.6742  0.2520 -0.6605
15074TIP3   OH266712   1.297   1.231  12.029 -0.2115  0.7010 -0.2754
15074TIP3    H166713   1.212   1.237  12.072  0.5367  0.3828  1.3210
15074TIP3    H266714   1.356   1.279  12.087  0.5313  1.6514 -1.8062
15075TIP3   OH266715   2.407   6.293  16.595  0.0743  0.0024  0.4212
15075TIP3    H166716   2.454   6.348  16.532 -2.1169 -0.4760 -1.7180
15075TIP3    H266717   2.398   6.348  16.673  1.6954  1.0938 -0.1272
15076TIP3   OH266718   1.428   0.237  13.619  0.3554  0.4786 -0.2756
15076TIP3    H166719   1.509   0.286  13.632 -0.3575  1.6703 -0.1887
15076TIP3    H266720   1.364   0.303  13.591 -0.8340 -0.2567  0.6346
15077TIP3   OH266721   0.466   5.287   5.008  0.4504  0.0812  0.3942
15077TIP3    H166722   0.473   5.316   5.099  1.3545 -0.4417  0.4932
15077TIP3    H266723   0.555   5.265   4.982  0.5343  2.2259 -1.2972
15078TIP3   OH266724   4.130   2.530   1.423  0.4141  0.3981  0.1006
15078TIP3    H166725   4.108   2.609   1.473  0.7410 -0.3274  1.4077
15078TIP3    H266726   4.203   2.558   1.367  0.2965  1.1224  0.2989
15079TIP3   OH266727   5.966   0.503  13.738  0.0727  0.6395  0.2549
15079TIP3    H166728   6.055   0.467  13.744 -0.9689 -1.8054  1.5602
15079TIP3    H266729   5.975   0.576  13.677  2.9517  0.3416  0.2271
15080TIP3   OH266730   1.036   4.383   0.612 -0.0932  0.0156  0.3497
15080TIP3    H166731   1.037   4.398   0.517  0.1845 -0.0522  0.3411
15080TIP3    H266732   1.055   4.469   0.650 -0.7952  0.1666  0.3596
15081TIP3   OH266733   2.845   1.566   6.735  0.3282 -0.2748 -0.0659
15081TIP3    H166734   2.824   1.627   6.665 -0.7965  0.6769  1.0880
15081TIP3    H266735   2.762   1.551   6.780  1.2106 -0.1480  1.6365
15082TIP3   OH266736   6.784   6.334   5.509 -0.0121  0.2698  0.0955
15082TIP3    H166737   6.853   6.283   5.468 -0.5465  0.7563 -1.4525
15082TIP3    H266738   6.812   6.425   5.497  0.4747  0.3961  2.0019
15083TIP3   OH266739   6.806   6.139   2.272 -0.2181 -0.4449  0.0303
15083TIP3    H166740   6.825   6.045   2.279 -2.0210 -0.8682 -0.5862
15083TIP3    H266741   6.839   6.176   2.354  1.2228 -1.4918 -0.0660
15084TIP3   OH266742   3.574   4.734  15.461 -0.0601 -0.5332 -0.7043
15084TIP3    H166743   3.493   4.757  15.507 -0.3631 -0.5910 -1.1984
15084TIP3    H266744   3.619   4.674  15.520 -0.0375  0.0513 -0.1181
15085TIP3   OH266745   5.052   5.884  14.649  0.0763 -0.2427  0.6283
15085TIP3    H166746   5.131   5.839  14.619  0.4856  0.1012  1.1719
15085TIP3    H266747   5.050   5.965  14.598 -0.7327 -0.9328 -0.4452
15086TIP3   OH266748   2.653   5.180  17.028 -0.4599  0.6111 -0.1087
15086TIP3    H166749   2.650   5.265  16.983 -0.9481  0.7349  0.1579
15086TIP3    H266750   2.623   5.117  16.963 -0.3602  0.6768 -0.2202
15087TIP3   OH266751   4.178   3.143   2.784 -0.3619 -0.5642 -0.1908
15087TIP3    H166752   4.127   3.212   2.742  0.4816 -1.2865 -2.4843
15087TIP3    H266753   4.218   3.185   2.860 -0.9456  1.1016 -0.7871
15088TIP3   OH266754   6.618   3.868   1.051  0.5083  0.2431 -0.0719
15088TIP3    H166755   6.624   3.898   0.960 -0.4006 -2.5357 -1.1012
15088TIP3    H266756   6.525   3.868   1.070  0.7414  1.5747  1.1690
15089TIP3   OH266757   4.069   3.111   3.743  0.0344  0.0615 -0.3021
15089TIP3    H166758   4.097   3.102   3.834  1.4801  0.3580 -0.6891
15089TIP3    H266759   4.093   3.201   3.720 -0.3619  0.0037 -0.9527
15090TIP3   OH266760   1.218   1.720  14.533 -0.0167  0.1995  0.0933
15090TIP3    H166761   1.184   1.633  14.512  0.2801  0.2252 -0.5264
15090TIP3    H266762   1.310   1.716  14.507  0.4145  0.1811  1.5943
15091TIP3   OH266763   0.691   0.155  16.725  0.0183 -0.0325  0.0742
15091TIP3    H166764   0.690   0.070  16.680  1.4940 -0.1592  0.2757
15091TIP3    H266765   0.759   0.146  16.792 -0.9752  0.7471  1.2005
15092TIP3   OH266766   0.860   4.468  15.034  0.2874 -0.1219 -0.0660
15092TIP3    H166767   0.831   4.489  14.946  0.5678 -0.1000 -0.1538
15092TIP3    H266768   0.863   4.552  15.079  0.7200 -0.0591 -0.2102
15093TIP3   OH266769   0.419   6.504   2.326  0.0467  0.0870  0.1928
15093TIP3    H166770   0.461   6.571   2.379  0.8379 -0.0870 -0.2078
15093TIP3    H266771   0.378   6.445   2.389  2.4444 -1.0867  0.6951
15094TIP3   OH266772   1.331   1.672  17.213  0.6813  0.0719 -0.5828
15094TIP3    H166773   1.248   1.709  17.183  0.6167  0.9201  0.6127
15094TIP3    H266774   1.320   1.663  17.308  2.2437  0.9550 -0.3090
15095TIP3   OH266775   0.926   2.253  16.505  0.0794  0.3343 -0.2455
15095TIP3    H166776   0.949   2.161  16.517  3.1835  0.7689 -2.2707
15095TIP3    H266777   0.872   2.253  16.425  0.8590  0.3652 -0.7774
15096TIP3   OH266778   2.655   3.599   3.077  0.0326  0.2241  0.3877
15096TIP3    H166779   2.608   3.515   3.071  0.7062 -0.2820  1.8719
15096TIP3    H266780   2.603   3.652   3.137 -0.3931  0.8806 -0.5526
15097TIP3   OH266781   1.340   6.231   2.417 -0.3591  0.1885  0.0341
15097TIP3    H166782   1.406   6.246   2.350 -1.9808  1.6370 -1.2757
15097TIP3    H266783   1.342   6.137   2.433  1.5081  0.1257 -0.5040
15098TIP3   OH266784   1.930   5.846   6.078  0.0350 -0.4196  0.9650
15098TIP3    H166785   2.014   5.891   6.073 -0.1236 -0.1994  0.1809
15098TIP3    H266786   1.874   5.893   6.016 -0.9070 -0.0643  2.0551
15099TIP3   OH266787   2.683   4.521  12.567 -0.1866  0.2556  0.0484
15099TIP3    H166788   2.605   4.472  12.595  0.0472 -0.5615 -0.6893
15099TIP3    H266789   2.678   4.520  12.472  0.6733  0.2843  0.0059
15100TIP3   OH266790   1.128   2.955   0.874  0.0543 -0.1525 -0.1342
15100TIP3    H166791   1.134   3.043   0.837  0.4116  0.1507  0.6247
15100TIP3    H266792   1.035   2.935   0.871  0.1576 -0.4403 -1.8738
15101TIP3   OH266793   0.425   5.688  12.582 -0.6269 -0.0486  0.5456
15101TIP3    H166794   0.490   5.735  12.634 -1.5277  0.3052  1.3639
15101TIP3    H266795   0.356   5.667  12.644 -1.4525 -0.1152 -0.3936
15102TIP3   OH266796   0.079   4.970   2.396  0.8885 -0.3073 -0.7200
15102TIP3    H166797   0.160   5.022   2.394  1.2026 -0.6966  0.9773
15102TIP3    H266798   0.034   4.999   2.475 -0.4825 -0.3336 -1.4851
15103TIP3   OH266799   2.974   2.402   5.071  0.1612  0.1249 -0.2288
15103TIP3    H166800   3.030   2.429   5.143 -2.0134 -1.8768  2.3410
15103TIP3    H266801   3.008   2.317   5.043  0.2088  0.2910 -0.6908
15104TIP3   OH266802   0.280   0.814  12.709  0.4364  0.3667  0.0402
15104TIP3    H166803   0.373   0.831  12.719  0.1326  0.6760  2.6821
15104TIP3    H266804   0.242   0.900  12.690  0.6402  0.2753 -0.8186
15105TIP3   OH266805   1.462   4.688   4.473  1.0121  0.0679 -0.2284
15105TIP3    H166806   1.502   4.601   4.468 -0.6449 -0.5926 -3.4733
15105TIP3    H266807   1.537   4.749   4.476  2.1998 -1.3456 -0.7843
15106TIP3   OH266808   4.432   0.419  10.225  0.1396  0.1685  0.0256
15106TIP3    H166809   4.373   0.471  10.279  0.3496  0.0930  0.3310
15106TIP3    H266810   4.386   0.336  10.213 -0.0066  0.2701 -0.0986
15107TIP3   OH266811   5.193   0.612  14.946  0.8473  0.0385  0.3295
15107TIP3    H166812   5.207   0.648  15.034  2.6443 -0.2682  0.1821
15107TIP3    H266813   5.104   0.640  14.923 -0.6517 -1.9291  3.2297
15108TIP3   OH266814   0.180   3.766  14.420  0.0412 -0.5775  0.2970
15108TIP3    H166815   0.276   3.771  14.414  0.0474  0.4076  1.1611
15108TIP3    H266816   0.158   3.686  14.372  1.2385 -0.4464 -0.5158
15109TIP3   OH266817   6.800   1.224  15.658 -0.4285 -0.5258 -0.7274
15109TIP3    H166818   6.713   1.245  15.693 -0.8070 -1.9286 -0.8132
15109TIP3    H266819   6.838   1.309  15.637 -0.5546  0.3040  2.2340
15110TIP3   OH266820   1.476   6.523   3.682  0.3190  0.4263  0.0679
15110TIP3    H166821   1.419   6.592   3.715 -1.8589 -0.1799 -2.2200
15110TIP3    H266822   1.561   6.541   3.721 -1.4642  1.1692  3.8935
15111TIP3   OH266823   1.892   6.088  10.583 -0.5020  0.1199  0.3769
15111TIP3    H166824   1.889   6.028  10.657  1.7126  0.6291  0.9244
15111TIP3    H266825   1.933   6.038  10.513 -0.1013  0.4976  0.3417
15112TIP3   OH266826   1.803   6.190  11.399 -0.2224 -0.5519  0.3976
15112TIP3    H166827   1.770   6.271  11.361 -0.6975 -0.2908  1.3635
15112TIP3    H266828   1.763   6.121  11.345 -0.4289 -0.1743  0.0587
15113TIP3   OH266829   1.709   2.813   1.281 -0.7265  0.8616  0.1045
15113TIP3    H166830   1.645   2.873   1.244 -1.3212  0.1916  0.0296
15113TIP3    H266831   1.742   2.857   1.359 -1.5012  1.0797  0.3095
15114TIP3   OH266832   0.614   3.839  11.630  0.7610 -0.4936 -0.1018
15114TIP3    H166833   0.550   3.778  11.667 -1.3599  1.2080 -0.7811
15114TIP3    H266834   0.649   3.886  11.705 -0.4648  0.0894  0.1214
15115TIP3   OH266835   4.328   4.675  12.036 -0.2022  0.0359  0.3738
15115TIP3    H166836   4.330   4.580  12.045  1.4970  0.1476  1.3704
15115TIP3    H266837   4.406   4.706  12.081 -0.3468  1.8661 -0.5428
15116TIP3   OH266838   6.434   1.750   3.222  0.2492  0.4451  0.2973
15116TIP3    H166839   6.378   1.745   3.300  1.4455  1.0278  1.2079
15116TIP3    H266840   6.523   1.745   3.256  0.8611  2.8453 -0.8038
15117TIP3   OH266841   1.022   0.348   2.352  0.3999 -0.0207  0.2847
15117TIP3    H166842   0.973   0.414   2.304 -0.7052  1.5836  3.4671
15117TIP3    H266843   0.963   0.273   2.357  0.1875  0.1222 -0.0703
15118TIP3   OH266844   4.550   3.132  13.288  0.2287 -0.1546 -0.2730
15118TIP3    H166845   4.458   3.120  13.264 -0.0545  1.8731 -0.2753
15118TIP3    H266846   4.561   3.081  13.369 -0.8149 -0.6333 -0.4268
15119TIP3   OH266847   6.204   6.214  16.214  0.5049 -0.6653 -0.2253
15119TIP3    H166848   6.207   6.241  16.305  1.2337 -0.8147 -0.2005
15119TIP3    H266849   6.224   6.293  16.164 -1.9086 -0.1004 -0.3537
15120TIP3   OH266850   5.636   6.613   2.266  0.6133  0.5360  0.1986
15120TIP3    H166851   5.600   6.679   2.325  0.0738 -0.3650  0.8876
15120TIP3    H266852   5.724   6.596   2.301  0.7938  0.9605 -0.0432
15121TIP3   OH266853   6.594   6.374   0.493 -0.1960 -0.2848  0.6379
15121TIP3    H166854   6.536   6.307   0.531 -3.5293  1.7131 -0.6783
15121TIP3    H266855   6.568   6.378   0.401  2.3264  0.4732 -0.0728
15122TIP3   OH266856   4.822   3.814  13.712  0.1142 -0.3624 -0.0742
15122TIP3    H166857   4.818   3.908  13.730 -0.9082 -0.5500  0.7803
15122TIP3    H266858   4.763   3.800  13.638  0.5051 -0.2830 -0.3966
15123TIP3   OH266859   3.706   1.094   2.727  0.2276  0.2789  0.0500
15123TIP3    H166860   3.628   1.119   2.777 -0.0601 -1.7800  0.6758
15123TIP3    H266861   3.755   1.038   2.787  0.2680 -1.6039 -1.7122
15124TIP3   OH266862   6.091   5.365  16.132  0.3085  0.3929  0.0094
15124TIP3    H166863   6.065   5.293  16.190 -0.6274 -0.1493 -1.0895
15124TIP3    H266864   6.015   5.423  16.130  1.3421  1.8616  1.5404
15125TIP3   OH266865   5.350   2.859   1.551  0.3788  0.3259 -0.6226
15125TIP3    H166866   5.441   2.832   1.553  0.3316 -0.1650 -3.1650
15125TIP3    H266867   5.312   2.823   1.631  2.2538  0.0351  0.1630
15126TIP3   OH266868   0.319   1.556   2.141 -0.0544 -0.6715  0.5962
15126TIP3    H166869   0.405   1.574   2.180 -0.2414 -0.1861  0.7909
15126TIP3    H266870   0.331   1.476   2.091  0.7281 -0.1650 -0.0442
15127TIP3   OH266871   5.597   5.901   4.698  0.1712 -0.6778 -0.1484
15127TIP3    H166872   5.600   5.805   4.703 -1.5194 -0.8628 -1.9791
15127TIP3    H266873   5.660   5.930   4.763 -0.1811 -3.0234  1.3122
15128TIP3   OH266874   6.559   5.829   3.061  0.3018  0.1590  0.1952
15128TIP3    H166875   6.559   5.841   2.967  0.4620  0.5648  0.2454
15128TIP3    H266876   6.641   5.783   3.080  0.0035 -0.4305  0.0774
15129TIP3   OH266877   4.968   4.900  14.462  0.3870 -0.0225 -0.2551
15129TIP3    H166878   4.989   4.847  14.385  1.7726  0.7798 -0.4378
15129TIP3    H266879   4.936   4.983  14.425  2.7125  1.0197  0.0095
15130TIP3   OH266880   2.968   5.510   4.274 -0.1585  0.0903 -0.5590
15130TIP3    H166881   2.888   5.501   4.326 -0.8801  0.6470 -1.5558
15130TIP3    H266882   3.008   5.591   4.304 -0.0926 -0.0644 -0.2272
15131TIP3   OH266883   6.286   2.573  15.075  0.0696  0.4118 -0.3078
15131TIP3    H166884   6.299   2.586  14.982  1.4799  1.4375  0.0205
15131TIP3    H266885   6.281   2.478  15.086 -1.7912  0.3359 -1.6214
15132TIP3   OH266886   2.294   5.079   5.965  0.6086  0.2116 -0.1568
15132TIP3    H166887   2.242   5.004   5.938  1.0656  0.2492 -1.1422
15132TIP3    H266888   2.274   5.090   6.058  0.6400 -1.1963  0.0190
15133TIP3   OH266889   1.843   5.533   2.836  0.8127  0.2137 -0.0629
15133TIP3    H166890   1.752   5.516   2.810 -0.0585  1.8003  1.7686
15133TIP3    H266891   1.851   5.628   2.833  2.7622  0.0392 -1.2343
15134TIP3   OH266892   0.271   6.534   5.569  0.7322  0.0362 -0.3876
15134TIP3    H166893   0.243   6.552   5.479  2.0113  0.2422 -0.7523
15134TIP3    H266894   0.306   6.617   5.601 -0.1644  0.0889  0.4731
15135TIP3   OH266895   4.270   1.981  12.065 -0.4169  0.0690  0.6052
15135TIP3    H166896   4.185   2.023  12.076 -0.0454  0.3581  2.3582
15135TIP3    H266897   4.252   1.909  12.004 -1.0866  2.5538 -2.2452
15136TIP3   OH266898   5.930   2.275  16.508  0.5712  0.0245 -0.8580
15136TIP3    H166899   5.969   2.321  16.433 -0.9405  1.2182 -0.9334
15136TIP3    H266900   5.836   2.279  16.493  0.3839 -2.5894 -0.5219
15137TIP3   OH266901   3.923   1.505   0.260 -1.0989 -0.2662  0.4079
15137TIP3    H166902   3.910   1.576   0.198  2.8480 -0.2166 -0.4580
15137TIP3    H266903   3.935   1.427   0.206  0.1430 -0.6057  1.1484
15138TIP3   OH266904   6.738   1.318   3.854 -0.1976  0.0138  0.1554
15138TIP3    H166905   6.731   1.234   3.808  0.5418 -0.6173  1.1864
15138TIP3    H266906   6.821   1.355   3.824  0.9034 -0.9728  1.8895
15139TIP3   OH266907   0.313   2.170  15.251 -0.8069 -0.1148 -0.2558
15139TIP3    H166908   0.278   2.082  15.232 -0.5429  0.0357 -1.5155
15139TIP3    H266909   0.235   2.225  15.255 -1.0083 -0.4724  0.9720
15140TIP3   OH266910   4.042   2.606   4.116  0.4666  0.3074  0.0676
15140TIP3    H166911   3.951   2.634   4.125  0.9103  1.4398  1.1993
15140TIP3    H266912   4.048   2.571   4.027  0.1985  5.0593 -1.9341
15141TIP3   OH266913   6.450   4.112  14.385  0.0011 -0.2797 -0.1256
15141TIP3    H166914   6.389   4.040  14.367 -0.2432 -0.2585  0.6058
15141TIP3    H266915   6.503   4.081  14.458 -0.7016  0.6337  0.7821
15142TIP3   OH266916   2.958   6.140  12.951 -0.1631 -0.6151 -0.2397
15142TIP3    H166917   2.897   6.159  13.023 -1.0270  1.0330 -1.3701
15142TIP3    H266918   2.910   6.078  12.895  0.5431 -1.9654  0.6278
15143TIP3   OH266919   3.153   1.814  11.805  0.1683  0.3981 -0.0266
15143TIP3    H166920   3.098   1.863  11.745  0.1796  0.2050 -0.1928
15143TIP3    H266921   3.111   1.825  11.891 -1.4522 -1.6981 -0.5251
15144TIP3   OH266922   0.964   3.437   1.206 -0.4502 -0.4036  0.3231
15144TIP3    H166923   1.011   3.417   1.125 -0.3031  0.4792  0.1888
15144TIP3    H266924   0.944   3.530   1.200  1.9140  0.2926  2.5313
15145TIP3   OH266925   1.083   4.936  11.663 -0.3934  0.8738 -0.1410
15145TIP3    H166926   0.994   4.953  11.693  1.1305  2.2876  3.9946
15145TIP3    H266927   1.126   5.021  11.668  1.2000  0.1946 -2.0106
15146TIP3   OH266928   0.305   6.634  15.593  0.0394 -0.3554 -0.0026
15146TIP3    H166929   0.323   6.580  15.670  2.9302  1.2234  0.4773
15146TIP3    H266930   0.351   6.590  15.522 -0.9272 -0.6863 -0.4310
15147TIP3   OH266931   5.332   3.824   4.012  0.1902  1.0289  0.3977
15147TIP3    H166932   5.338   3.917   3.989 -0.6008  0.9294 -0.2226
15147TIP3    H266933   5.250   3.817   4.061 -0.5877  0.3698 -0.9732
15148TIP3   OH266934   1.279   5.510  13.033  0.4038 -0.4032  0.2402
15148TIP3    H166935   1.186   5.520  13.011  0.4604 -0.0119  0.1654
15148TIP3    H266936   1.313   5.599  13.030  0.8675 -0.5907 -0.1228
15149TIP3   OH266937   1.728   0.924  13.889 -0.2657 -0.0251 -0.1215
15149TIP3    H166938   1.797   0.857  13.889 -1.8016 -1.6426 -0.5808
15149TIP3    H266939   1.684   0.913  13.973 -1.6741 -0.8246 -0.9462
15150TIP3   OH266940   3.034   2.849   1.697 -0.1226  0.4902  0.2174
15150TIP3    H166941   3.064   2.784   1.633  1.0560  0.5700  0.6905
15150TIP3    H266942   2.982   2.798   1.760 -0.5040  0.2630 -0.2761
15151TIP3   OH266943   4.073   0.409   2.203 -0.1897  0.0926  0.3740
15151TIP3    H166944   4.157   0.450   2.182 -0.5190  0.4270 -0.3018
15151TIP3    H266945   4.015   0.483   2.222 -1.0320 -0.0052 -1.7302
15152TIP3   OH266946   5.002   1.523   2.615  0.3312 -0.3365 -0.4338
15152TIP3    H166947   5.053   1.449   2.646  1.7531 -0.0829 -2.0760
15152TIP3    H266948   4.966   1.563   2.694  0.7773 -1.8790  0.5722
15153TIP3   OH266949   1.431   0.930   5.421  0.0410 -0.7117  0.7185
15153TIP3    H166950   1.443   1.017   5.459 -1.3191 -0.9334  1.6854
15153TIP3    H266951   1.346   0.901   5.453 -1.5581 -0.5966 -3.1540
15154TIP3   OH266952   6.580   0.165  15.878  0.0279 -0.3405  0.0097
15154TIP3    H166953   6.577   0.216  15.797  0.2868  1.8699  1.3447
15154TIP3    H266954   6.563   0.229  15.947  1.2057 -1.9039  1.7998
15155TIP3   OH266955   4.967   6.593   6.119  0.3056  0.6430  0.7841
15155TIP3    H166956   5.046   6.582   6.172 -0.0708  0.6405  1.3477
15155TIP3    H266957   4.915   6.657   6.168  0.6996  1.9150 -0.4205
15156TIP3   OH266958   0.054   6.303   3.977 -0.5531  0.3024 -0.8733
15156TIP3    H166959   0.027   6.240   4.044 -0.0038  0.6751 -0.2881
15156TIP3    H266960   0.002   6.381   3.995  1.4162  1.2997  0.7588
15157TIP3   OH266961   5.233   1.729   3.607 -0.2098  0.4497 -0.0195
15157TIP3    H166962   5.256   1.715   3.515  0.9291  0.8444  0.2061
15157TIP3    H266963   5.187   1.813   3.607 -0.3114  0.3961 -0.2439
15158TIP3   OH266964   2.685   5.142  14.266 -0.2302 -0.0903  0.1112
15158TIP3    H166965   2.627   5.118  14.194  0.5918  1.4052 -1.0928
15158TIP3    H266966   2.708   5.059  14.308 -1.9094 -0.8345 -0.4300
15159TIP3   OH266967   5.667   3.166  15.268  0.0318 -0.5494  0.5286
15159TIP3    H166968   5.598   3.230  15.284  0.2612 -0.0072 -0.6207
15159TIP3    H266969   5.633   3.110  15.198  1.3410  0.6522 -1.1095
15160TIP3   OH266970   1.247   3.244   2.773 -0.5363 -0.0614 -0.7661
15160TIP3    H166971   1.173   3.280   2.821 -0.9178 -0.0640 -1.3459
15160TIP3    H266972   1.280   3.173   2.827 -1.5090 -0.6391 -0.9290
15161TIP3   OH266973   5.502   2.629   3.895 -1.1057  0.6668 -0.1474
15161TIP3    H166974   5.537   2.711   3.861 -0.4429  0.3469 -0.2392
15161TIP3    H266975   5.452   2.593   3.821 -0.2742  0.3305 -0.5517
15162TIP3   OH266976   0.529   1.440   1.641 -0.8145  0.1636  0.4599
15162TIP3    H166977   0.624   1.443   1.634 -0.7645  0.0979  1.0263
15162TIP3    H266978   0.512   1.472   1.730 -1.2711 -0.6544  0.6692
15163TIP3   OH266979   4.966   5.648  12.560 -0.0779  0.2771 -0.3303
15163TIP3    H166980   4.935   5.709  12.493 -0.5319 -0.7234 -1.0409
15163TIP3    H266981   4.901   5.578  12.562  1.1477 -0.8975 -0.4987
15164TIP3   OH266982   0.955   2.078   2.009 -0.0733  0.0054 -1.1171
15164TIP3    H166983   0.900   2.042   2.079  0.0727 -1.0757 -1.5490
15164TIP3    H266984   0.943   2.172   2.015  0.8305  0.0135  1.1161
15165TIP3   OH266985   0.531   1.179   2.512 -0.1654 -0.0937 -0.0820
15165TIP3    H166986   0.577   1.263   2.513 -2.0517  1.0682 -3.4324
15165TIP3    H266987   0.477   1.181   2.591  0.3035  1.5991  0.2223
15166TIP3   OH266988   5.402   6.409  12.883 -0.6508 -0.0299 -0.7893
15166TIP3    H166989   5.341   6.402  12.809 -1.5987 -2.1001  0.1429
15166TIP3    H266990   5.438   6.498  12.876 -3.3112  1.0229 -1.7228
15167TIP3   OH266991   2.307   4.392  11.509  0.3103  0.2151  0.5597
15167TIP3    H166992   2.222   4.383  11.553  1.1537 -1.5944  1.8710
15167TIP3    H266993   2.348   4.466  11.553 -0.1342  0.3973  0.6757
15168TIP3   OH266994   5.449   5.984   6.730 -0.0122  0.0194 -0.0348
15168TIP3    H166995   5.379   6.049   6.742  0.6652  0.9560 -1.0675
15168TIP3    H266996   5.518   6.032   6.683  0.5077 -1.4552 -0.7767
15169TIP3   OH266997   2.363   0.990   6.044  0.1541 -0.3776  0.1741
15169TIP3    H166998   2.367   1.057   5.975  0.1157 -0.4530  0.0978
15169TIP3    H266999   2.418   0.919   6.011  1.7973  0.4045  1.1195
15170TIP3   OH267000   0.813   1.832  13.540  0.0463 -0.1417  0.3769
15170TIP3    H167001   0.764   1.756  13.509  0.3633 -0.9283  1.7949
15170TIP3    H267002   0.902   1.800  13.553  0.7711  1.0671 -1.3091
15171TIP3   OH267003   3.739   5.200  11.295 -0.2299  0.0966 -0.6257
15171TIP3    H167004   3.825   5.177  11.260 -0.4204 -0.8928 -0.4518
15171TIP3    H267005   3.755   5.279  11.347  0.7212 -0.5145  0.0342
15172TIP3   OH267006   1.080   2.557  11.730 -0.3321 -0.0935 -0.2920
15172TIP3    H167007   1.168   2.576  11.761 -0.2933 -0.7090 -0.0181
15172TIP3    H267008   1.089   2.550  11.635 -0.2216  0.5487 -0.3323
15173TIP3   OH267009   5.303   2.749  17.208  0.2770 -0.1860 -0.0442
15173TIP3    H167010   5.383   2.698  17.194  0.9424  0.8020  0.0666
15173TIP3    H267011   5.271   2.768  17.119 -0.2806 -1.2726 -0.0753
15174TIP3   OH267012   2.798   6.431   0.549  0.2016  0.0596  0.1839
15174TIP3    H167013   2.784   6.436   0.643  0.2337  2.2936  0.1041
15174TIP3    H267014   2.781   6.339   0.527  0.4594 -0.5438  2.3857
15175TIP3   OH267015   1.018   5.991  12.760  0.2845  0.0844  0.1543
15175TIP3    H167016   1.026   5.950  12.846 -0.6079 -0.6096 -0.0782
15175TIP3    H267017   1.011   5.917  12.699 -1.8261  0.5686 -0.2214
15176TIP3   OH267018   2.563   6.793  16.756  0.2275 -0.0325 -0.1556
15176TIP3    H167019   2.585   6.754  16.671  2.4758  1.4626 -0.3234
15176TIP3    H267020   2.483   6.844  16.738  0.7345  0.3536 -1.4226
15177TIP3   OH267021   2.811   4.057   4.593 -0.0296  1.0562 -0.1885
15177TIP3    H167022   2.810   3.981   4.650  2.9416  1.4798  0.5239
15177TIP3    H267023   2.728   4.101   4.610 -2.9307 -3.1883 -2.3687
15178TIP3   OH267024   1.086   2.188  16.789 -0.5942  0.1231 -0.7391
15178TIP3    H167025   1.112   2.252  16.723 -0.6923  1.4914  0.5211
15178TIP3    H267026   1.165   2.174  16.841 -0.6505 -0.5651 -0.8378
15179TIP3   OH267027   4.196   4.860   4.236  0.0158  0.4925  0.0567
15179TIP3    H167028   4.123   4.807   4.270 -0.4642  0.6875 -0.6567
15179TIP3    H267029   4.258   4.795   4.202 -0.3079  0.3617 -0.2905
15180TIP3   OH267030   3.567   4.615   3.939 -0.3002  0.0174 -0.4095
15180TIP3    H167031   3.623   4.580   3.870 -0.1754 -1.6312  0.4839
15180TIP3    H267032   3.481   4.623   3.898 -0.0739 -0.3131 -0.9530
15181TIP3   OH267033   2.040   1.776   6.360  0.7906  0.1363 -0.4450
15181TIP3    H167034   2.081   1.804   6.278 -3.3681 -1.1796 -3.1479
15181TIP3    H267035   2.081   1.691   6.379  0.4332 -0.4848 -2.2745
15182TIP3   OH267036   1.728   0.656  15.512 -0.0124  0.0827  0.7967
15182TIP3    H167037   1.803   0.705  15.478  0.6905 -1.2106  0.4654
15182TIP3    H267038   1.654   0.684  15.458  0.8884 -1.1665 -1.1475
15183TIP3   OH267039   5.861   3.514  14.355 -0.4678 -0.1858  0.0598
15183TIP3    H167040   5.790   3.523  14.418  0.0627  1.0826  0.4759
15183TIP3    H267041   5.836   3.438  14.302 -1.1522 -0.9513  1.4700
15184TIP3   OH267042   6.483   0.468  15.202  0.0360  0.6966  0.0193
15184TIP3    H167043   6.394   0.465  15.237  0.3191 -0.1564  0.6846
15184TIP3    H267044   6.479   0.416  15.122 -0.2477  1.3254 -0.3766
15185TIP3   OH267045   1.892   6.439  11.610 -0.5219  0.4303  0.1266
15185TIP3    H167046   1.928   6.495  11.678 -0.9132  0.0412  0.6478
15185TIP3    H267047   1.835   6.496  11.559  2.7158  1.7427 -2.2645
15186TIP3   OH267048   3.902   1.209  11.328  0.0969  0.5853 -0.1453
15186TIP3    H167049   3.807   1.206  11.314  0.2502 -1.9414 -0.8658
15186TIP3    H267050   3.927   1.298  11.304 -2.3356  1.8115  1.7317
15187TIP3   OH267051   0.808   2.348  13.363 -0.0901  0.1633  0.1755
15187TIP3    H167052   0.765   2.287  13.304 -0.7136  1.9972 -1.3057
15187TIP3    H267053   0.884   2.381  13.314  1.1147 -0.5382  1.5237
15188TIP3   OH267054   3.048   6.404   0.956 -0.3748 -0.0224 -0.5656
15188TIP3    H167055   3.032   6.493   0.923  2.5434  0.7903  0.0635
15188TIP3    H267056   3.143   6.393   0.951 -0.4376 -2.1609  1.7969
15189TIP3   OH267057   3.268   6.010   4.946  0.2378 -0.0952 -0.7037
15189TIP3    H167058   3.303   6.038   4.862  1.6714  0.9880  0.2353
15189TIP3    H267059   3.346   5.994   5.000 -0.6910  1.2958  1.0798
15190TIP3   OH267060   4.815   2.510   6.030 -0.5763  0.2632 -0.5449
15190TIP3    H167061   4.742   2.449   6.016 -0.7544  0.4863 -0.5834
15190TIP3    H267062   4.892   2.453   6.032 -0.7609  0.0126 -0.3939
15191TIP3   OH267063   5.771   5.312   0.141  0.3512  0.3247 -0.3524
15191TIP3    H167064   5.759   5.391   0.193  1.5074  1.6824 -2.0589
15191TIP3    H267065   5.682   5.285   0.118 -0.1772 -0.4559  2.4961
15192TIP3   OH267066   1.461   0.619   3.115 -0.0443 -0.1225  0.8464
15192TIP3    H167067   1.474   0.594   3.024  2.7233  2.0426  0.5779
15192TIP3    H267068   1.378   0.577   3.140 -0.4171 -1.4455 -2.3673
15193TIP3   OH267069   5.982   2.925   2.920 -0.3334 -0.7584  0.1061
15193TIP3    H167070   5.967   2.848   2.867  2.2364 -1.2381  0.0104
15193TIP3    H267071   5.999   2.891   3.008  3.7088 -0.5816 -0.5186
15194TIP3   OH267072   5.676   5.485  15.306  0.3868  0.2545 -1.0121
15194TIP3    H167073   5.746   5.549  15.291  0.8914 -0.6751 -2.7633
15194TIP3    H267074   5.714   5.423  15.367  0.3067  0.9808 -0.2181
15195TIP3   OH267075   4.642   6.176   4.714  0.2124 -0.2431  0.2267
15195TIP3    H167076   4.712   6.192   4.649  0.2438 -1.4249 -0.0470
15195TIP3    H267077   4.685   6.189   4.798  0.5188 -0.0330  0.0419
15196TIP3   OH267078   4.199   5.719  14.366  0.0807  0.0275 -0.0734
15196TIP3    H167079   4.165   5.713  14.455  2.5446  0.9195  0.9882
15196TIP3    H267080   4.129   5.761  14.315 -1.8900 -1.7685  1.1068
15197TIP3   OH267081   2.150   3.261  14.796 -0.1239  0.2921  0.0859
15197TIP3    H167082   2.091   3.260  14.871  0.8634 -2.4334  0.8861
15197TIP3    H267083   2.233   3.292  14.832  0.3393 -0.9743  0.1503
15198TIP3   OH267084   5.035   2.598  13.411  0.5768  0.0558  0.0531
15198TIP3    H167085   5.001   2.609  13.500  1.5341  0.5686  0.3638
15198TIP3    H267086   4.958   2.577  13.358  0.0918 -0.9085  1.1197
15199TIP3   OH267087   2.955   3.529   5.314  0.2353  0.1881  0.2465
15199TIP3    H167088   3.007   3.504   5.237 -1.3744 -0.9428 -0.4942
15199TIP3    H267089   2.867   3.497   5.295 -0.4968  1.1279  1.9673
15200TIP3   OH267090   3.644   0.606   0.969  0.2337 -0.5840 -0.0738
15200TIP3    H167091   3.719   0.591   1.025  0.1419 -2.8704 -0.5117
15200TIP3    H267092   3.612   0.693   0.993  1.4408 -0.6804  1.9207
15201TIP3   OH267093   1.761   0.364   3.542 -0.2488 -0.2050  0.1195
15201TIP3    H167094   1.840   0.342   3.593 -0.0536  0.4244  0.0860
15201TIP3    H267095   1.747   0.457   3.557 -0.2172 -0.0214 -0.9481
15202TIP3   OH267096   2.944   2.121   2.411  0.3198  0.5155  0.0054
15202TIP3    H167097   2.971   2.210   2.434  1.7179  0.0867  0.0601
15202TIP3    H267098   2.895   2.091   2.488 -1.6651  1.8375 -0.7013
15203TIP3   OH267099   1.826   2.702   1.083 -0.2153 -0.3962 -0.3689
15203TIP3    H167100   1.775   2.754   1.146 -0.7191  1.2835 -2.1311
15203TIP3    H267101   1.851   2.623   1.132 -1.4345  0.4223  1.6286
15204TIP3   OH267102   5.002   2.369  17.177 -0.0543  0.5153  0.3276
15204TIP3    H167103   4.965   2.294  17.224 -0.6087  0.2216 -0.5615
15204TIP3    H267104   4.983   2.444  17.234 -0.8000  0.1741  0.5380
15205TIP3   OH267105   2.063   0.945  10.759 -0.2412  0.2340 -0.1939
15205TIP3    H167106   2.028   0.876  10.703 -1.2205 -0.3825  1.1494
15205TIP3    H267107   2.154   0.921  10.774 -0.6637 -0.9487  0.5308
15206TIP3   OH267108   5.076   6.540  12.412 -0.0958 -0.2090  0.3066
15206TIP3    H167109   5.034   6.475  12.468 -0.5966 -0.7810 -0.7202
15206TIP3    H267110   5.010   6.609  12.401  0.1290  0.0744  0.6906
15207TIP3   OH267111   0.528   6.323   3.036 -0.0860  0.0479  0.0463
15207TIP3    H167112   0.490   6.362   3.114  0.8627  0.7275  0.1845
15207TIP3    H267113   0.468   6.252   3.012 -0.1506 -0.4518  1.6464
15208TIP3   OH267114   0.094   4.992  16.927 -0.1486 -0.7708  0.2551
15208TIP3    H167115   0.140   5.011  17.009  0.6521  0.3754 -0.4508
15208TIP3    H267116   0.148   4.926  16.884  0.2396 -0.2680 -0.0393
15209TIP3   OH267117   1.557   1.988   0.411  0.7547 -0.1613 -0.1820
15209TIP3    H167118   1.520   2.068   0.447  0.2596 -0.5929  0.2798
15209TIP3    H267119   1.581   1.936   0.488  0.4027 -0.7665 -0.4732
15210TIP3   OH267120   2.978   2.701  16.526 -0.6645 -0.0795 -0.2064
15210TIP3    H167121   2.945   2.680  16.614 -2.1374 -1.2501 -1.0239
15210TIP3    H267122   2.907   2.748  16.483 -0.6331 -1.0877 -1.3912
15211TIP3   OH267123   3.401   4.939   4.625 -0.0220 -1.0827  0.3278
15211TIP3    H167124   3.439   5.025   4.606 -2.5427 -0.2802 -1.2972
15211TIP3    H267125   3.366   4.948   4.714  0.0623 -0.5696  0.3125
15212TIP3   OH267126   0.323   3.373  16.941 -0.2868  0.1159 -0.0477
15212TIP3    H167127   0.310   3.354  16.848 -1.9534 -1.0342  0.3919
15212TIP3    H267128   0.374   3.299  16.974  0.0756  0.3906  0.0035
15213TIP3   OH267129   4.970   3.055  11.776  0.1471  0.7800 -0.0640
15213TIP3    H167130   4.939   2.965  11.787  0.1249  0.9826  1.6662
15213TIP3    H267131   4.891   3.109  11.784  0.7431  1.2262  3.3038
15214TIP3   OH267132   4.324   4.223  11.705 -0.4792 -0.3039  0.0704
15214TIP3    H167133   4.393   4.194  11.765 -0.5429 -0.6536 -0.0262
15214TIP3    H267134   4.370   4.279  11.642 -0.2074 -0.8454 -0.2226
15215TIP3   OH267135   4.816   5.441  14.674  0.1656  0.7547 -0.6382
15215TIP3    H167136   4.851   5.524  14.642  1.7323  0.5685  0.5140
15215TIP3    H267137   4.892   5.397  14.712 -0.9861 -0.4710  0.2649
15216TIP3   OH267138   0.757   6.659   2.406  0.1913  0.3660 -0.0299
15216TIP3    H167139   0.825   6.649   2.340 -1.5057  0.1751 -1.7834
15216TIP3    H267140   0.718   6.572   2.415 -0.9444  0.8385 -0.2848
15217TIP3   OH267141   2.383   3.219   4.320  0.5788 -0.6348 -0.6895
15217TIP3    H167142   2.322   3.176   4.260 -2.0423  0.6839  0.9285
15217TIP3    H267143   2.434   3.278   4.264 -0.3571 -0.9883 -1.9406
15218TIP3   OH267144   0.143   3.455  15.580 -0.2825 -0.2129 -0.5935
15218TIP3    H167145   0.053   3.439  15.551 -0.8970  0.6699  0.8031
15218TIP3    H267146   0.160   3.546  15.555 -0.6327  0.3894  1.2666
15219TIP3   OH267147   1.310   3.384  12.428 -0.5750 -0.8875  0.1757
15219TIP3    H167148   1.276   3.473  12.435  1.1435 -0.3132  1.4213
15219TIP3    H267149   1.400   3.389  12.461 -0.1277 -2.8916 -0.6312
15220TIP3   OH267150   3.483   3.922   5.745  0.1404 -0.6198  0.2516
15220TIP3    H167151   3.444   3.909   5.832  0.3385 -0.3622  0.3786
15220TIP3    H267152   3.432   3.992   5.706  0.1659 -0.6140  0.2292
15221TIP3   OH267153   1.676   1.007   4.543  0.0185 -0.6425  0.0498
15221TIP3    H167154   1.615   0.985   4.613  0.9559 -0.7181  0.8518
15221TIP3    H267155   1.633   1.078   4.495  0.5078  1.2441  2.3013
15222TIP3   OH267156   4.155   5.263  13.965 -0.4871 -0.0697 -0.8576
15222TIP3    H167157   4.139   5.314  13.885 -1.1694 -0.0035 -0.6765
15222TIP3    H267158   4.086   5.197  13.966  0.1241 -0.7138 -0.8518
15223TIP3   OH267159   3.765   1.912  13.263  1.0007 -0.2292  0.2856
15223TIP3    H167160   3.768   1.889  13.356  1.3015 -0.3221  0.2557
15223TIP3    H267161   3.806   1.837  13.219 -2.4140 -1.8793 -0.2600
15224TIP3   OH267162   1.850   2.370   6.515  0.0970  0.3022  0.2097
15224TIP3    H167163   1.866   2.276   6.517  1.2627  0.5162  1.7784
15224TIP3    H267164   1.793   2.386   6.590  1.1360  1.0458  0.8534
15225TIP3   OH267165   6.390   0.609  13.895 -0.2613 -0.5412 -0.6177
15225TIP3    H167166   6.468   0.560  13.869 -1.3940 -1.8752 -1.5878
15225TIP3    H267167   6.356   0.647  13.814 -1.1164 -0.7199 -0.3568
15226TIP3   OH267168   5.819   5.703  12.905 -0.6766  0.5566 -0.2676
15226TIP3    H167169   5.830   5.670  12.995  1.5354  1.6720 -0.1202
15226TIP3    H267170   5.775   5.787  12.916  0.1103  0.9610 -0.1819
15227TIP3   OH267171   5.720   0.413   4.450 -0.8800  0.3971  0.1427
15227TIP3    H167172   5.696   0.370   4.367 -1.0499  1.1305 -0.1932
15227TIP3    H267173   5.693   0.504   4.438  3.3509  1.6390 -0.7854
15228TIP3   OH267174   6.701   6.770  10.760 -0.5490  0.0185  0.4258
15228TIP3    H167175   6.793   6.784  10.733  0.0692  0.6952  2.7863
15228TIP3    H267176   6.684   6.679  10.740 -0.2611  0.5815 -2.6387
15229TIP3   OH267177   4.704   5.691   4.951  0.0849  0.0060 -1.0356
15229TIP3    H167178   4.650   5.618   4.922 -0.8593  0.3102 -0.0816
15229TIP3    H267179   4.702   5.686   5.047  0.4024  0.9864 -0.9718
15230TIP3   OH267180   2.557   1.452  14.340  0.0944 -0.6052  0.0995
15230TIP3    H167181   2.466   1.421  14.340 -0.1777  0.1804  1.0420
15230TIP3    H267182   2.601   1.396  14.404 -0.0771 -0.0004  0.7569
15231TIP3   OH267183   2.084   5.258   3.227  0.5334  0.0415  0.2955
15231TIP3    H167184   2.028   5.300   3.292  0.9536 -0.0786  0.7444
15231TIP3    H267185   2.172   5.265   3.265  0.8295  0.3216 -0.4477
15232TIP3   OH267186   2.895   1.656  11.251 -1.2517  0.1811 -0.2477
15232TIP3    H167187   2.844   1.722  11.206  0.5251  0.5660 -1.7421
15232TIP3    H267188   2.898   1.582  11.191 -0.2769  0.0647 -0.0654
15233TIP3   OH267189   2.280   3.218   2.416  0.3686 -1.0613  0.0758
15233TIP3    H167190   2.247   3.202   2.328  0.2328 -0.0930 -0.0573
15233TIP3    H267191   2.204   3.246   2.467  0.4756 -1.4584  0.4553
15234TIP3   OH267192   1.160   1.163  14.364 -0.0973 -0.4803 -0.0937
15234TIP3    H167193   1.164   1.227  14.293 -0.8143 -1.2359 -0.8243
15234TIP3    H267194   1.196   1.209  14.440 -0.7025  0.8212 -0.5835
15235TIP3   OH267195   5.060   5.243   5.879  0.2513  0.3882 -0.1157
15235TIP3    H167196   5.130   5.301   5.907 -1.0552  2.1054 -0.3511
15235TIP3    H267197   5.043   5.266   5.788 -2.6906  2.1531  0.8212
15236TIP3   OH267198   4.181   2.390  12.574 -0.2158 -0.0053 -0.0336
15236TIP3    H167199   4.192   2.331  12.500 -1.7323 -2.1146  1.3713
15236TIP3    H267200   4.252   2.366  12.634 -1.6728 -1.4151  1.1635
15237TIP3   OH267201   2.718   2.033  12.502  0.2682  0.3498  0.4894
15237TIP3    H167202   2.757   1.963  12.555 -1.7613 -1.0059  0.2530
15237TIP3    H267203   2.734   2.113  12.552  2.2299 -0.3260  0.9895
15238TIP3   OH267204   5.588   4.798  11.747 -0.0209 -0.2163 -0.1341
15238TIP3    H167205   5.542   4.785  11.830 -0.1972  0.9446 -0.0483
15238TIP3    H267206   5.652   4.727  11.744 -0.6706 -0.8424  0.5341
15239TIP3   OH267207   6.435   2.283   2.362  0.3588  0.2778 -0.7484
15239TIP3    H167208   6.345   2.307   2.382  0.9611  0.7926  1.6077
15239TIP3    H267209   6.428   2.210   2.301 -1.6836 -0.8116  0.7254
15240TIP3   OH267210   5.390   2.646   3.095  0.8357 -0.3214 -0.3410
15240TIP3    H167211   5.390   2.562   3.142  0.5139  0.0363  0.3068
15240TIP3    H267212   5.374   2.711   3.163 -1.5219  0.0551 -1.2018
15241TIP3   OH267213   6.359   6.393   2.926  0.6945  0.0496 -0.4289
15241TIP3    H167214   6.352   6.330   2.998  3.6629  1.4987  1.1935
15241TIP3    H267215   6.420   6.353   2.865  0.6783  0.2616 -0.5856
15242TIP3   OH267216   0.212   2.318   4.006  0.2421 -0.3096 -0.9049
15242TIP3    H167217   0.205   2.400   3.956  1.9206 -0.9683 -2.2760
15242TIP3    H267218   0.143   2.262   3.969 -0.5524  0.2744 -0.3342
15243TIP3   OH267219   3.504   5.084   0.632 -0.1145 -0.7190  0.1401
15243TIP3    H167220   3.515   4.991   0.611 -1.0756 -1.2087  1.7499
15243TIP3    H267221   3.578   5.127   0.587  1.3269 -2.4592  0.7716
15244TIP3   OH267222   1.903   1.696   1.649 -0.4148  0.3099 -0.1476
15244TIP3    H167223   1.863   1.612   1.628 -0.5334 -0.1350  1.7316
15244TIP3    H267224   1.842   1.737   1.710 -0.2248  1.6411 -0.8512
15245TIP3   OH267225   1.467   4.764  11.460  0.2158 -0.2902 -0.2313
15245TIP3    H167226   1.491   4.678  11.424  1.0646  1.2258 -3.4493
15245TIP3    H267227   1.382   4.783  11.422  1.0896  1.3143 -1.4352
15246TIP3   OH267228   0.425   4.547   1.761  0.2818 -0.0939  0.2317
15246TIP3    H167229   0.447   4.547   1.667 -0.7761  0.0976 -0.0253
15246TIP3    H267230   0.386   4.633   1.776  0.7124 -0.0167  0.9202
15247TIP3   OH267231   4.642   2.698  10.781  0.6477  0.1547 -0.5017
15247TIP3    H167232   4.714   2.709  10.718  0.0791  0.5538 -1.0871
15247TIP3    H267233   4.597   2.783  10.780  0.0939 -0.1391 -0.2278
15248TIP3   OH267234   1.288   0.353   3.856  0.0968  0.0169 -1.2558
15248TIP3    H167235   1.214   0.329   3.911 -0.5440  2.3673 -1.0498
15248TIP3    H267236   1.254   0.347   3.767  0.4680 -1.5563 -1.3006
15249TIP3   OH267237   5.997   3.426  11.517  0.1351 -0.1241 -0.1236
15249TIP3    H167238   6.056   3.500  11.501 -1.0462  1.2649  1.7357
15249TIP3    H267239   5.942   3.422  11.439  0.6637  0.5040 -0.5433
15250TIP3   OH267240   6.640   2.053   3.249 -0.1618  0.0028 -0.2373
15250TIP3    H167241   6.545   2.050   3.242 -0.3313  1.4753  1.1766
15250TIP3    H267242   6.658   2.131   3.302  1.7446 -1.2398  0.9864
15251TIP3   OH267243   2.642   6.242   1.568  0.3980  0.3481 -0.7370
15251TIP3    H167244   2.683   6.303   1.630 -0.3964  0.4812 -0.3281
15251TIP3    H267245   2.548   6.253   1.583  0.2308 -0.4728 -1.1528
15252TIP3   OH267246   0.448   4.989   0.318  0.1539  0.0293 -0.1679
15252TIP3    H167247   0.537   4.975   0.350 -0.5612  1.6725  2.7072
15252TIP3    H267248   0.459   5.042   0.239  1.7007  0.9898  0.6555
15253TIP3   OH267249   2.368   4.442  15.854  0.2769  0.0508  0.1579
15253TIP3    H167250   2.449   4.397  15.828 -0.3857 -0.0514 -1.8052
15253TIP3    H267251   2.359   4.422  15.947  1.1975 -2.0457 -0.1547
15254TIP3   OH267252   4.020   4.632   1.055  0.4994  0.3523 -0.6414
15254TIP3    H167253   3.925   4.638   1.045  0.4939 -0.7958 -1.2912
15254TIP3    H267254   4.033   4.591   1.141  0.3995 -0.3874 -0.9820
15255TIP3   OH267255   5.010   3.385  17.165 -0.7042  0.3229  0.0216
15255TIP3    H167256   4.970   3.384  17.078 -1.0772 -0.4253  0.1950
15255TIP3    H267257   5.075   3.455  17.161 -0.2991 -0.1087 -1.0444
15256TIP3   OH267258   5.643   5.398  11.113  0.5486  0.4293 -0.2837
15256TIP3    H167259   5.618   5.326  11.170 -0.5447  0.9210 -0.1259
15256TIP3    H267260   5.691   5.357  11.041  1.3348 -0.2694  0.6304
15257TIP3   OH267261   1.188   0.326   2.620  0.0513 -0.2099 -0.6162
15257TIP3    H167262   1.156   0.378   2.694  2.2360  0.2092  0.0642
15257TIP3    H267263   1.115   0.325   2.558 -1.7495 -0.4004  1.4469
15258TIP3   OH267264   6.737   3.681   3.557 -0.3769  0.0587 -0.2263
15258TIP3    H167265   6.713   3.770   3.531  1.6073  0.6719 -0.0714
15258TIP3    H267266   6.721   3.679   3.651  2.2274  1.2136  0.3002
15259TIP3   OH267267   5.712   0.196  14.221  0.2414  0.5015  0.3623
15259TIP3    H167268   5.747   0.109  14.240  0.2668 -0.0102 -1.8597
15259TIP3    H267269   5.628   0.199  14.266 -0.2186 -1.0734 -0.3567
15260TIP3   OH267270   3.116   4.996   3.196 -0.1466  0.0028  0.3889
15260TIP3    H167271   3.038   5.002   3.251 -1.0881 -0.7360 -0.8313
15260TIP3    H267272   3.091   5.039   3.114  0.9195  0.2541  0.1806
15261TIP3   OH267273   5.001   4.371  14.800  0.2712 -0.0712 -0.4000
15261TIP3    H167274   4.987   4.276  14.799  0.0006 -0.0315 -1.7368
15261TIP3    H267275   4.913   4.408  14.795  0.4487  0.2184 -1.8633
15262TIP3   OH267276   1.250   1.168  16.276 -0.1610 -0.2054  0.2892
15262TIP3    H167277   1.238   1.199  16.366 -0.6538 -1.2215  0.5890
15262TIP3    H267278   1.172   1.115  16.259  0.2984 -0.6457 -0.4600
15263TIP3   OH267279   3.299   3.535  14.318  0.0098  0.6388 -0.0712
15263TIP3    H167280   3.208   3.561  14.302 -0.8297 -2.3095 -0.3926
15263TIP3    H267281   3.307   3.535  14.414  0.2400  2.6671 -0.0731
15264TIP3   OH267282   2.083   0.713   2.506 -0.0913  0.1441  0.5198
15264TIP3    H167283   2.140   0.642   2.534 -0.4629 -0.5221 -0.3858
15264TIP3    H267284   2.095   0.781   2.572 -0.4569 -1.1332  1.9308
15265TIP3   OH267285   1.888   0.740   4.708  0.6183  0.1072 -0.1536
15265TIP3    H167286   1.971   0.780   4.734 -0.1998  1.6669  0.1341
15265TIP3    H267287   1.885   0.749   4.613  0.7565  0.0728 -0.1609
15266TIP3   OH267288   2.457   5.260  14.336 -0.2428 -0.5737  0.0309
15266TIP3    H167289   2.548   5.232  14.323 -0.4303 -0.8785 -0.6466
15266TIP3    H267290   2.436   5.313  14.259 -0.8265 -1.0061 -0.1168
15267TIP3   OH267291   1.955   0.339   3.764  0.7726 -0.1938  0.1845
15267TIP3    H167292   2.007   0.271   3.722 -0.8380 -1.4054  0.0929
15267TIP3    H267293   1.987   0.341   3.854 -0.9661 -2.9984  0.9227
15268TIP3   OH267294   4.006   2.713  14.971 -0.1595  0.0138  0.5794
15268TIP3    H167295   3.944   2.696  15.041 -0.3489  1.9985  0.9197
15268TIP3    H267296   4.002   2.808  14.957  2.5132  0.1322  0.3578
15269TIP3   OH267297   1.228   4.838   3.764 -0.2092 -0.8314  0.4703
15269TIP3    H167298   1.298   4.773   3.766 -0.7310 -1.6413 -2.9550
15269TIP3    H267299   1.168   4.806   3.696 -1.5266  2.1959  0.1107
15270TIP3   OH267300   0.930   2.125   4.412 -0.0215 -0.1336  0.1705
15270TIP3    H167301   0.837   2.137   4.394 -0.2687 -2.1003 -0.0483
15270TIP3    H267302   0.933   2.048   4.470  1.5146 -0.6679 -0.5887
15271TIP3   OH267303   1.411   0.835  16.789 -0.4380 -0.2968 -0.7218
15271TIP3    H167304   1.360   0.756  16.809 -1.5670  0.5904 -0.0139
15271TIP3    H267305   1.383   0.860  16.702  1.2733 -1.6932 -1.7147
15272TIP3   OH267306   5.802   3.084  12.507 -0.0414  0.0899 -0.2130
15272TIP3    H167307   5.714   3.080  12.546  0.2522  2.2622  0.6988
15272TIP3    H267308   5.826   2.992  12.494 -1.7025 -0.5780  1.2269
15273TIP3   OH267309   2.397   2.176   4.504  0.6650  0.4156 -0.1319
15273TIP3    H167310   2.439   2.101   4.548  0.1515 -0.7802 -1.6251
15273TIP3    H267311   2.304   2.167   4.524  0.4526 -0.0217 -1.2468
15274TIP3   OH267312   2.564   1.795   6.102  0.3875  0.0145 -0.2523
15274TIP3    H167313   2.531   1.718   6.057 -0.8343  0.4336 -0.1080
15274TIP3    H267314   2.605   1.848   6.033 -0.8839  0.3426 -0.7805
15275TIP3   OH267315   6.304   5.680  13.350 -0.2214 -0.6807 -0.2658
15275TIP3    H167316   6.340   5.592  13.365  1.2629 -0.0182  0.0617
15275TIP3    H267317   6.270   5.677  13.261  0.7598 -1.2667 -0.6205
15276TIP3   OH267318   1.036   5.962  15.941  0.4327 -0.6279  0.3181
15276TIP3    H167319   1.105   5.906  15.977  0.4894  0.4926  2.0484
15276TIP3    H267320   1.046   6.045  15.988 -0.5857  0.3443 -1.1270
15277TIP3   OH267321   0.222   0.789  16.201 -0.4285 -0.7124 -0.5261
15277TIP3    H167322   0.269   0.829  16.273 -0.6910 -1.1280 -0.1231
15277TIP3    H267323   0.251   0.837  16.123 -1.8490  1.2885  0.1139
15278TIP3   OH267324   1.111   2.390  11.978  0.3910 -0.0339  0.2577
15278TIP3    H167325   1.091   2.450  11.907 -1.1705 -0.7054  0.0942
15278TIP3    H267326   1.180   2.333  11.943 -1.2473 -1.1851 -1.2205
15279TIP3   OH267327   2.914   4.588  13.369  0.5750 -0.0327  0.0399
15279TIP3    H167328   2.833   4.579  13.420  0.9901  0.0510  0.7323
15279TIP3    H267329   2.962   4.657  13.414  0.2175  1.2321 -1.4705
15280TIP3   OH267330   2.703   4.907   0.331 -0.2315  0.0649 -0.2236
15280TIP3    H167331   2.702   4.829   0.386  2.6066  0.2289  0.1484
15280TIP3    H267332   2.779   4.896   0.274 -1.8977  0.8874 -2.6991
15281TIP3   OH267333   6.705   1.774   3.265  0.4630 -0.5246 -0.1781
15281TIP3    H167334   6.797   1.759   3.242 -0.2658 -3.1906 -1.6065
15281TIP3    H267335   6.689   1.864   3.239  2.1920 -0.6120 -1.7291
15282TIP3   OH267336   2.261   0.481  16.456  0.1549 -0.1341  0.7967
15282TIP3    H167337   2.248   0.484  16.361 -1.2558 -0.1951  0.9677
15282TIP3    H267338   2.333   0.542  16.473 -0.2315  0.6124 -0.2133
15283TIP3   OH267339   2.356   2.176   3.236 -0.1491  0.1453 -0.2155
15283TIP3    H167340   2.396   2.184   3.149 -0.2476 -0.1091 -0.2879
15283TIP3    H267341   2.428   2.151   3.294  0.1770  1.6461  0.0338
15284TIP3   OH267342   0.605   4.508  12.600  0.3791  0.0564  0.3425
15284TIP3    H167343   0.580   4.574  12.536 -0.2610  0.4125  0.9549
15284TIP3    H267344   0.530   4.448  12.604 -0.0367  0.6376  1.5400
15285TIP3   OH267345   4.647   5.060   3.073 -0.2500  0.4967 -0.5523
15285TIP3    H167346   4.712   5.093   3.135  0.6107 -0.2037 -1.0728
15285TIP3    H267347   4.632   5.132   3.012  0.1862  0.5912 -0.5481
15286TIP3   OH267348   1.787   0.853  17.189  0.6707  0.0392 -0.2146
15286TIP3    H167349   1.804   0.947  17.187 -1.1948  0.4727  1.9658
15286TIP3    H267350   1.702   0.845  17.231  0.1551 -2.5679 -1.6605
15287TIP3   OH267351   2.574   6.383   2.115  0.3103  0.2324  0.1836
15287TIP3    H167352   2.519   6.368   2.038  0.5429 -1.6310  0.3541
15287TIP3    H267353   2.643   6.317   2.109  0.3933  0.1341  1.9253
15288TIP3   OH267354   2.101   4.646  12.327  0.0722  0.4763  0.7031
15288TIP3    H167355   2.012   4.615  12.345 -0.0934 -0.6047 -1.7644
15288TIP3    H267356   2.093   4.741  12.323 -0.6229  0.4969  2.1928
15289TIP3   OH267357   3.750   5.452   1.061  0.5227 -0.0843  0.0528
15289TIP3    H167358   3.748   5.427   0.969 -0.3825  0.7391 -0.1582
15289TIP3    H267359   3.658   5.463   1.085  0.7352 -0.5562  1.1304
15290TIP3   OH267360   5.736   6.243  15.170  0.1620 -0.0175 -0.1121
15290TIP3    H167361   5.821   6.237  15.127  0.3091 -0.1407  0.1948
15290TIP3    H267362   5.719   6.154  15.202  0.1805  0.1345  0.3251
15291TIP3   OH267363   2.810   4.035  12.074 -0.1674  0.0248  0.2132
15291TIP3    H167364   2.797   4.115  12.024  2.2925 -0.9095 -2.0183
15291TIP3    H267365   2.878   4.057  12.137 -0.0091 -0.0846  0.0813
15292TIP3   OH267366   5.166   1.218   2.115  0.2111 -0.3406  0.9869
15292TIP3    H167367   5.203   1.185   2.197  0.3051  0.0860  1.1161
15292TIP3    H267368   5.142   1.309   2.134  0.2837 -0.2236  0.5250
15293TIP3   OH267369   1.554   3.540   2.902 -0.2223 -0.2152  0.0098
15293TIP3    H167370   1.644   3.526   2.930 -0.6022 -0.1298  1.3008
15293TIP3    H267371   1.502   3.481   2.956 -0.8496 -1.0302 -1.4512
15294TIP3   OH267372   6.707   0.749  10.878  0.0675  0.6110  0.3406
15294TIP3    H167373   6.640   0.806  10.842  0.7784  1.6805  0.6764
15294TIP3    H267374   6.690   0.664  10.838 -1.9704  0.6634  1.0350
15295TIP3   OH267375   4.644   0.548  15.051 -0.3776 -0.6473 -0.1518
15295TIP3    H167376   4.670   0.637  15.027 -1.2626 -0.1549  0.7060
15295TIP3    H267377   4.725   0.498  15.048  0.0917  0.1339 -0.8538
15296TIP3   OH267378   4.759   6.781   3.722 -0.3803 -0.2456  0.3792
15296TIP3    H167379   4.704   6.713   3.760 -1.1331 -0.2801 -0.7638
15296TIP3    H267380   4.699   6.851   3.699 -0.1339 -0.8205 -2.0796
15297TIP3   OH267381   6.597   5.160   1.665 -0.0852 -0.0374  0.3386
15297TIP3    H167382   6.593   5.106   1.744  1.9666  0.1479  0.5928
15297TIP3    H267383   6.664   5.226   1.684  0.1744  0.2269 -1.4083
15298TIP3   OH267384   4.299   6.576   6.038  0.0571 -0.0868 -0.3944
15298TIP3    H167385   4.225   6.546   5.984 -0.7952  0.0609  0.6696
15298TIP3    H267386   4.329   6.497   6.083 -0.6108  0.1856  0.5406
15299TIP3   OH267387   1.072   4.660  13.350  0.3261  0.2059  0.6549
15299TIP3    H167388   1.020   4.707  13.414 -1.2659 -1.8679  0.9330
15299TIP3    H267389   1.029   4.677  13.266 -1.0771 -1.8221  0.9363
15300TIP3   OH267390   3.211   6.125   1.881 -0.0760  0.1454  0.2707
15300TIP3    H167391   3.272   6.184   1.926  1.6344  0.7024 -2.6801
15300TIP3    H267392   3.129   6.174   1.876  0.8101  1.5722 -0.5323
15301TIP3   OH267393   6.656   4.071  12.449 -0.2644 -0.0751  0.0031
15301TIP3    H167394   6.701   4.153  12.428 -0.4344 -0.0521 -0.2699
15301TIP3    H267395   6.598   4.055  12.374  0.2616 -0.7910 -0.2642
15302TIP3   OH267396   6.537   6.480  13.294 -0.4237  0.7572 -0.4951
15302TIP3    H167397   6.560   6.480  13.387 -1.9227  1.2060 -0.1165
15302TIP3    H267398   6.592   6.549  13.256  0.9419 -0.1146 -0.1542
15303TIP3   OH267399   4.995   1.504   3.149  0.2352 -0.4189  0.2786
15303TIP3    H167400   5.081   1.464   3.136 -0.1302 -1.6574  1.6474
15303TIP3    H267401   5.005   1.554   3.231 -0.3719 -0.6438  0.4878
15304TIP3   OH267402   1.143   0.542  11.335 -0.3383  0.1239 -0.1664
15304TIP3    H167403   1.070   0.569  11.279 -0.1826 -0.1496 -0.5026
15304TIP3    H267404   1.213   0.604  11.315 -0.1885 -0.1425 -0.4860
15305TIP3   OH267405   5.833   3.955  14.768  1.0006  0.1515  0.1341
15305TIP3    H167406   5.883   3.994  14.696 -1.5359  0.7818 -1.3630
15305TIP3    H267407   5.750   4.002  14.767 -0.8159 -2.9162  0.5543
15306TIP3   OH267408   3.434   4.943   4.160  0.4691 -0.1538 -0.2670
15306TIP3    H167409   3.387   4.926   4.079 -0.5354 -0.9030  0.4614
15306TIP3    H267410   3.525   4.922   4.140  0.1287 -0.9137 -1.0272
15307TIP3   OH267411   1.483   0.779   4.236 -0.0839  0.3238 -0.1441
15307TIP3    H167412   1.396   0.795   4.198  0.0632  3.3654  0.6701
15307TIP3    H267413   1.465   0.758   4.328 -0.0000  0.5803 -0.0685
15308TIP3   OH267414   5.450   0.609   6.411  0.5496 -0.0927 -0.6537
15308TIP3    H167415   5.499   0.691   6.416 -0.3492  0.6588 -3.3278
15308TIP3    H267416   5.372   0.625   6.464  0.7532  0.4826 -0.5248
15309TIP3   OH267417   3.000   2.574   0.507  0.7982  0.3033 -0.8148
15309TIP3    H167418   2.918   2.571   0.457 -0.7015  0.9999  1.4761
15309TIP3    H267419   2.992   2.654   0.559  2.0920 -0.6234  0.8406
15310TIP3   OH267420   1.621   6.109   1.530 -0.0141  0.1066 -0.7414
15310TIP3    H167421   1.547   6.129   1.588 -0.0910 -3.0547  0.3572
15310TIP3    H267422   1.581   6.089   1.446 -0.2407  0.3062 -0.6831
15311TIP3   OH267423   3.828   0.399  10.822  0.2322  0.2927 -0.2636
15311TIP3    H167424   3.803   0.357  10.740 -0.9414 -0.6255  0.5496
15311TIP3    H267425   3.904   0.349  10.852  2.2532  2.2002 -2.0198
15312TIP3   OH267426   1.232   0.972  12.917 -0.3569  0.5291 -0.0110
15312TIP3    H167427   1.246   0.995  12.825 -3.8801  2.6193 -0.0964
15312TIP3    H267428   1.139   0.952  12.923  0.0617 -0.7931  2.8926
15313TIP3   OH267429   2.955   4.418   1.262  0.2133 -0.0228  0.0592
15313TIP3    H167430   3.006   4.406   1.342  0.7743  1.1645 -0.0953
15313TIP3    H267431   2.871   4.377   1.280 -0.0051  1.0593  1.6007
15314TIP3   OH267432   0.640   1.630  10.452  0.0992 -0.3608 -0.1121
15314TIP3    H167433   0.568   1.618  10.389  2.9815  1.7989 -4.0471
15314TIP3    H267434   0.640   1.724  10.470  1.6634 -0.3997  0.1252
15315TIP3   OH267435   2.956   3.446  14.337 -0.7212 -0.5910 -0.4666
15315TIP3    H167436   2.932   3.438  14.430  0.0540  0.2205 -0.1817
15315TIP3    H267437   3.005   3.367  14.318 -0.4377 -0.5242 -0.0348
15316TIP3   OH267438   4.097   5.541  14.016  0.0472  0.3208  0.1059
15316TIP3    H167439   4.169   5.557  14.077  1.0390 -0.7714 -0.7411
15316TIP3    H267440   4.100   5.446  14.001 -0.1359  0.5808 -1.6701
15317TIP3   OH267441   3.766   3.854   2.067  0.0568 -0.2544  0.4197
15317TIP3    H167442   3.856   3.882   2.088  0.0155 -0.1265  0.4278
15317TIP3    H267443   3.775   3.763   2.040  0.1233 -0.3956  0.9113
15318TIP3   OH267444   0.819   0.916  12.478 -0.2690 -0.5770  0.2513
15318TIP3    H167445   0.836   1.008  12.497  0.2603 -0.8442  1.1129
15318TIP3    H267446   0.791   0.915  12.386 -1.8943  0.6176  0.7267
15319TIP3   OH267447   1.906   2.423   2.271 -0.3554  0.3151  0.1715
15319TIP3    H167448   1.868   2.502   2.311 -2.2976 -0.8191  0.6490
15319TIP3    H267449   1.885   2.431   2.178  1.2469  1.3319 -0.1244
15320TIP3   OH267450   0.426   0.556   4.654  0.3755 -0.1468 -0.2825
15320TIP3    H167451   0.455   0.622   4.592  0.8150 -0.5101 -0.4729
15320TIP3    H267452   0.488   0.483   4.642  2.2180  0.8422  2.5281
15321TIP3   OH267453   3.737   3.568   2.047 -0.5472 -0.6612  0.0269
15321TIP3    H167454   3.660   3.521   2.017  0.3711 -1.9032 -0.4209
15321TIP3    H267455   3.803   3.553   1.979  0.5065 -0.7111  1.0354
15322TIP3   OH267456   5.597   3.442   1.145  0.2337  0.3617  0.4847
15322TIP3    H167457   5.664   3.440   1.213 -0.6834 -1.5971  1.3727
15322TIP3    H267458   5.547   3.522   1.163 -0.9907 -0.9269  3.1558
15323TIP3   OH267459   4.478   3.059  11.713 -0.2357 -0.5427 -0.0004
15323TIP3    H167460   4.420   3.016  11.777 -0.6810  0.2077  0.1104
15323TIP3    H267461   4.426   3.132  11.680  1.2498  1.1836  1.3559
15324TIP3   OH267462   4.278   5.057  14.156 -0.7778 -0.3037  0.2101
15324TIP3    H167463   4.247   5.143  14.126 -0.1489 -0.4072 -0.7949
15324TIP3    H267464   4.313   5.016  14.076 -0.0759 -1.0464  0.8930
15325TIP3   OH267465   3.396   6.815   2.127  0.1618 -0.4789 -0.3870
15325TIP3    H167466   3.314   6.838   2.171  0.6255 -2.0089  1.3059
15325TIP3    H267467   3.372   6.743   2.069  0.4248 -1.3894  0.6165
15326TIP3   OH267468   2.887   5.772  11.779  0.3358 -0.1109  0.5479
15326TIP3    H167469   2.884   5.850  11.834 -1.3335  1.9007 -2.2144
15326TIP3    H267470   2.814   5.718  11.810 -0.8301  1.1824  0.1292
15327TIP3   OH267471   2.557   5.981  16.333 -0.5959  0.4847  0.3947
15327TIP3    H167472   2.468   5.973  16.299  0.0559 -2.0089 -0.8294
15327TIP3    H267473   2.596   6.052  16.281 -1.4999  0.8260  0.1657
15328TIP3   OH267474   0.643   0.122   2.793  0.2147  0.1316  0.0388
15328TIP3    H167475   0.659   0.028   2.781 -2.2433 -0.3712  0.4407
15328TIP3    H267476   0.624   0.132   2.887 -0.1104  0.9252 -0.1033
15329TIP3   OH267477   2.305   6.349  13.048  0.3395 -0.4486 -0.1011
15329TIP3    H167478   2.220   6.391  13.045  0.3928 -0.3496 -0.2245
15329TIP3    H267479   2.367   6.419  13.068  0.5527 -0.2820 -1.3267
15330TIP3   OH267480   4.259   6.219   0.707  0.2888 -0.1966  0.0817
15330TIP3    H167481   4.260   6.314   0.714  1.4231 -0.1352 -0.7080
15330TIP3    H267482   4.222   6.202   0.620 -1.9226 -0.5511  1.0667
15331TIP3   OH267483   5.493   5.285  12.251 -0.4632  0.6054  0.2823
15331TIP3    H167484   5.586   5.267  12.267 -0.4790  0.2498  0.0033
15331TIP3    H267485   5.492   5.369  12.206 -0.1928  0.1336 -0.6316
15332TIP3   OH267486   5.365   5.121   3.679  0.1990 -0.2270  0.1980
15332TIP3    H167487   5.299   5.167   3.730 -1.7673 -1.3058 -1.3305
15332TIP3    H267488   5.335   5.030   3.677  1.9315 -0.8193 -0.2063
15333TIP3   OH267489   3.303   3.572  15.654 -0.1748 -0.4125  0.4323
15333TIP3    H167490   3.310   3.493  15.599 -2.8279  0.4019 -1.1944
15333TIP3    H267491   3.387   3.615  15.645  0.2116 -1.4506 -1.2380
15334TIP3   OH267492   5.668   1.031   1.841 -0.6242 -0.6207  0.0590
15334TIP3    H167493   5.598   1.071   1.893  0.1744  1.1115 -0.1482
15334TIP3    H267494   5.635   1.035   1.751  0.3179  1.6040 -0.2371
15335TIP3   OH267495   3.446   0.516  16.606 -0.2380  0.5830 -0.3645
15335TIP3    H167496   3.387   0.448  16.639  1.2107 -0.0466  0.9704
15335TIP3    H267497   3.507   0.469  16.549  0.7183  0.7516  0.5049
15336TIP3   OH267498   1.599   5.220  16.021  0.6307 -0.0681 -0.6138
15336TIP3    H167499   1.555   5.293  16.064 -0.7541 -1.3436  0.1892
15336TIP3    H267500   1.544   5.201  15.945 -0.5230 -1.9484  0.6332
15337TIP3   OH267501   0.276   4.719   1.527 -0.4796 -0.0630 -0.0938
15337TIP3    H167502   0.364   4.751   1.548 -0.6833 -0.8381  2.0461
15337TIP3    H267503   0.290   4.635   1.485 -0.2074 -0.6043  1.0552
15338TIP3   OH267504   0.333   6.405  16.961  0.1089  0.1960 -0.3768
15338TIP3    H167505   0.392   6.334  16.985 -0.8762 -0.2342  0.7868
15338TIP3    H267506   0.258   6.396  17.020 -0.5214  1.5368 -0.9434
15339TIP3   OH267507   5.965   1.707   2.036 -0.1105  0.0532 -0.3798
15339TIP3    H167508   5.891   1.665   2.080  0.8837 -1.5695 -0.2355
15339TIP3    H267509   5.945   1.801   2.042 -2.0780 -0.3403 -0.2258
15340TIP3   OH267510   6.657   1.281  16.395 -0.3447 -0.7887  0.3865
15340TIP3    H167511   6.710   1.337  16.338  0.4579 -3.8747 -2.0182
15340TIP3    H267512   6.603   1.230  16.335  0.5124 -4.1385  2.3322
15341TIP3   OH267513   6.614   3.196   3.889 -0.0677  0.1653  0.5370
15341TIP3    H167514   6.682   3.182   3.955 -1.1722 -1.0703  1.4439
15341TIP3    H267515   6.532   3.200   3.939 -0.3970  4.8493 -0.1962
15342TIP3   OH267516   2.842   2.182  13.969 -0.3863  0.2331  0.1064
15342TIP3    H167517   2.879   2.094  13.974  0.1148  0.5331  2.1117
15342TIP3    H267518   2.788   2.181  13.890  2.5414 -0.7044 -1.9281
15343TIP3   OH267519   0.599   5.431   1.364  0.5039 -0.1943 -0.3079
15343TIP3    H167520   0.546   5.435   1.285 -1.2318  0.0996  0.8303
15343TIP3    H267521   0.645   5.515   1.366 -0.7922  0.5267 -0.1161
15344TIP3   OH267522   2.125   0.966  13.710 -0.1437  0.1542 -0.7663
15344TIP3    H167523   2.142   0.888  13.658 -1.5921 -0.9066  0.2993
15344TIP3    H267524   2.114   0.933  13.799  0.5726  1.7359 -0.0801
15345TIP3   OH267525   2.159   1.479   1.492 -0.2763  0.2852  0.1888
15345TIP3    H167526   2.104   1.450   1.419  0.4157 -0.2959 -0.1058
15345TIP3    H267527   2.221   1.407   1.506  2.2716  2.1108 -1.3801
15346TIP3   OH267528   6.439   2.365  12.446 -0.6019 -0.4643  0.0640
15346TIP3    H167529   6.493   2.375  12.524 -1.8028  0.6811  0.7670
15346TIP3    H267530   6.372   2.301  12.471 -0.4431 -0.7807 -0.3196
15347TIP3   OH267531   4.363   0.073  10.283 -0.1318 -0.2762 -0.7266
15347TIP3    H167532   4.345   0.051  10.375 -2.7252  0.9198 -0.9147
15347TIP3    H267533   4.336  -0.004  10.234 -0.2424 -0.3190 -0.5997
15348TIP3   OH267534   2.545   2.709   6.133 -0.7083 -1.1548  0.1438
15348TIP3    H167535   2.586   2.771   6.072  0.1175 -1.6344  0.2043
15348TIP3    H267536   2.476   2.759   6.176  0.2361 -0.1508  0.5067
15349TIP3   OH267537   6.065   2.626   2.266 -0.1288  0.2848 -0.7239
15349TIP3    H167538   6.050   2.702   2.210 -0.5321  0.5045 -0.3220
15349TIP3    H267539   6.147   2.644   2.310 -0.6847  0.9118  0.0615
15350TIP3   OH267540   6.591   0.751  15.746 -0.5618 -0.5190 -0.8809
15350TIP3    H167541   6.674   0.741  15.698  0.9669  1.2162  1.3069
15350TIP3    H267542   6.598   0.836  15.789 -4.2275  0.4335 -1.9876
15351TIP3   OH267543   1.940   5.322  13.338 -0.5262  0.4401  0.7922
15351TIP3    H167544   1.853   5.308  13.376 -2.5279 -0.6809 -3.8459
15351TIP3    H267545   1.938   5.412  13.306 -1.4038 -0.6526 -2.4610
15352TIP3   OH267546   0.616   4.929  14.378 -0.2136  0.4046  0.2150
15352TIP3    H167547   0.629   4.856  14.438  0.5227  1.0503  0.8439
15352TIP3    H267548   0.528   4.914  14.342 -0.8682  0.2757  1.8067
15353TIP3   OH267549   2.313   2.036   3.714 -0.3444  0.5740  0.6304
15353TIP3    H167550   2.256   2.043   3.638  0.1028  2.3409  0.4327
15353TIP3    H267551   2.395   2.000   3.679 -0.2035  1.2061  0.3117
15354TIP3   OH267552   4.637   5.550   0.296  0.1809  0.0069  0.3046
15354TIP3    H167553   4.723   5.540   0.337  0.3493  0.7968  0.1529
15354TIP3    H267554   4.601   5.630   0.334  0.3417  0.7505 -1.0951
15355TIP3   OH267555   0.547   1.364   0.183  0.1148  0.7158  0.4999
15355TIP3    H167556   0.603   1.440   0.169 -1.8993  2.1770  0.2051
15355TIP3    H267557   0.540   1.323   0.097 -1.8599  2.3814 -0.1618
15356TIP3   OH267558   2.774   2.822  11.440  0.6563 -0.4377  0.1984
15356TIP3    H167559   2.820   2.835  11.357  0.2639  1.2016  0.2284
15356TIP3    H267560   2.843   2.816  11.506  0.8888  0.1822  0.0055
15357TIP3   OH267561   1.203   0.799   5.604  0.4577  0.4575  0.6363
15357TIP3    H167562   1.233   0.794   5.695  0.6913  1.7691  0.6294
15357TIP3    H267563   1.129   0.738   5.600  0.8769 -0.1232  1.5313
15358TIP3   OH267564   1.470   3.808  13.716 -0.0842  0.1575  0.6261
15358TIP3    H167565   1.551   3.794  13.667  0.6526 -0.1255  1.9019
15358TIP3    H267566   1.473   3.744  13.786  0.2034  2.3507  2.6687
15359TIP3   OH267567   6.436   4.274   4.666 -0.4696  0.0886  0.1217
15359TIP3    H167568   6.422   4.185   4.635 -0.4516  0.0691  0.1694
15359TIP3    H267569   6.527   4.294   4.642 -0.4501  0.0670  0.1767
15360TIP3   OH267570   5.476   2.936  15.286 -0.2797 -0.0330 -0.1206
15360TIP3    H167571   5.483   2.858  15.231  1.1152  0.0694 -0.0976
15360TIP3    H267572   5.426   2.998  15.233  1.5034  0.2506 -1.5255
15361TIP3   OH267573   1.966   3.572  14.995 -0.4370 -0.0687 -0.0739
15361TIP3    H167574   1.996   3.591  14.906 -1.0496 -1.8928 -0.6973
15361TIP3    H267575   1.936   3.481  14.991 -0.3809 -0.1991  2.0303
15362TIP3   OH267576   5.516   4.687  16.791 -0.1256  0.0815  0.2980
15362TIP3    H167577   5.431   4.730  16.796 -0.3260 -0.3609  0.6762
15362TIP3    H267578   5.577   4.757  16.766 -0.7167  0.2458 -0.6939
15363TIP3   OH267579   3.636   2.330   6.201  0.2268 -0.6009 -0.3620
15363TIP3    H167580   3.555   2.286   6.177 -0.5897 -0.3489  1.8100
15363TIP3    H267581   3.678   2.271   6.263  0.1058  0.7379  1.0196
15364TIP3   OH267582   4.514   1.890  14.938  0.2937 -0.2418 -0.1837
15364TIP3    H167583   4.532   1.888  14.844 -0.8366 -0.9881 -0.3940
15364TIP3    H267584   4.422   1.919  14.944  0.7100  0.9125  0.7414
15365TIP3   OH267585   2.993   4.219  15.262  0.0165 -0.0772  0.2360
15365TIP3    H167586   2.900   4.200  15.271 -0.6109  2.1039 -1.1512
15365TIP3    H267587   3.000   4.265  15.179  1.8007  2.8113  1.8984
15366TIP3   OH267588   1.199   6.189   5.980  0.6504  0.5041 -0.0366
15366TIP3    H167589   1.280   6.212   6.026  0.3551  0.6706  0.4031
15366TIP3    H267590   1.130   6.232   6.031  0.1684 -0.6723  0.3171
15367TIP3   OH267591   6.017   0.186  14.833 -0.2111 -0.1650  0.3634
15367TIP3    H167592   5.974   0.183  14.747  1.1174  0.5775 -0.3575
15367TIP3    H267593   5.980   0.113  14.881 -1.1213 -0.4809 -0.7944
15368TIP3   OH267594   4.879   2.855  11.406  0.5126  0.2665  0.3757
15368TIP3    H167595   4.921   2.828  11.324 -1.7554 -1.0116 -0.3958
15368TIP3    H267596   4.821   2.927  11.380  1.0284  0.9660  1.1553
15369TIP3   OH267597   3.601   4.242  13.668 -0.4079 -1.0611 -0.3908
15369TIP3    H167598   3.518   4.205  13.700 -0.3608 -0.8334 -0.0057
15369TIP3    H267599   3.575   4.318  13.616 -0.5514 -2.0315 -1.7775
15370TIP3   OH267600   1.380   4.214  14.099 -0.3020 -1.1549  0.6234
15370TIP3    H167601   1.373   4.138  14.042 -0.7250 -1.3039  0.8654
15370TIP3    H267602   1.472   4.238  14.097 -0.6790  0.2702 -1.9666
15371TIP3   OH267603   5.020   0.882   1.148  0.2025 -1.3323 -0.3185
15371TIP3    H167604   5.095   0.835   1.185 -0.3099 -2.8646 -1.2020
15371TIP3    H267605   5.057   0.929   1.073 -0.2126 -4.2871 -2.4391
15372TIP3   OH267606   0.818   0.686   5.332 -0.7125  0.6259  0.0776
15372TIP3    H167607   0.779   0.599   5.325 -0.9097  0.7288 -0.1040
15372TIP3    H267608   0.745   0.746   5.321 -0.4980  0.8190 -0.3380
15373TIP3   OH267609   4.840   2.014  16.831 -0.5012 -0.2272 -0.4789
15373TIP3    H167610   4.800   2.091  16.871 -1.8601 -1.4930  0.6421
15373TIP3    H267611   4.933   2.035  16.825 -1.3190  2.8390 -3.2781
15374TIP3   OH267612   3.036   5.398   4.658  0.6668  0.6328 -0.3294
15374TIP3    H167613   3.084   5.395   4.575  0.3635  2.1274 -0.5775
15374TIP3    H267614   3.058   5.316   4.701  1.7966  0.3737 -1.3570
15375TIP3   OH267615   6.607   4.230   6.572 -0.3427 -0.0402  0.2823
15375TIP3    H167616   6.676   4.266   6.629 -1.4113  0.0534  1.5300
15375TIP3    H267617   6.634   4.255   6.484  0.2549  1.6113  0.9104
15376TIP3   OH267618   6.491   2.050  11.906 -0.1948 -0.1331  0.5174
15376TIP3    H167619   6.395   2.042  11.904 -0.4441  2.5954 -0.8084
15376TIP3    H267620   6.518   2.046  11.815  0.7007  1.4073  0.6901
15377TIP3   OH267621   5.042   4.656  12.359  0.5896  0.6813  0.0682
15377TIP3    H167622   4.999   4.585  12.311  0.9201  0.3369  0.2723
15377TIP3    H267623   5.014   4.642  12.450 -1.2783  2.2451 -0.2441
15378TIP3   OH267624   2.144   3.602  10.652  0.2337 -0.0094 -0.9239
15378TIP3    H167625   2.145   3.522  10.704  0.8334  0.4819 -0.1797
15378TIP3    H267626   2.125   3.672  10.714  2.0936  0.7215 -1.1395
15379TIP3   OH267627   2.475   0.240  16.504  0.0159  0.0189  0.1487
15379TIP3    H167628   2.528   0.271  16.429 -3.0377  0.9332 -1.7131
15379TIP3    H267629   2.501   0.297  16.576  0.2971  1.6316 -1.1856
15380TIP3   OH267630   0.568   6.554  10.939 -0.1753 -0.1779  0.2861
15380TIP3    H167631   0.594   6.608  10.864  1.1520 -2.1557 -0.7218
15380TIP3    H267632   0.618   6.590  11.013 -0.4918  0.9393 -0.0322
15381TIP3   OH267633   4.088   1.098  16.823  0.4454  1.0128 -0.2487
15381TIP3    H167634   4.157   1.072  16.885  1.2693  0.6147 -1.3065
15381TIP3    H267635   4.135   1.117  16.742 -0.7219  0.5520 -1.0487
15382TIP3   OH267636   3.953   0.864   1.256 -0.7619 -0.0467  0.1222
15382TIP3    H167637   4.037   0.877   1.301 -1.0538 -1.0828  1.0000
15382TIP3    H267638   3.887   0.871   1.326 -1.4155  0.7909 -0.5678
15383TIP3   OH267639   5.984   5.862   2.504 -0.0363  0.0030 -0.0525
15383TIP3    H167640   5.990   5.846   2.410  2.7275 -0.0480  0.1021
15383TIP3    H267641   5.917   5.930   2.512  2.6420  3.0342 -2.4251
15384TIP3   OH267642   5.790   1.591   4.780  0.0043  0.2155  0.3200
15384TIP3    H167643   5.870   1.610   4.731  0.0182  0.9865  0.6380
15384TIP3    H267644   5.786   1.658   4.848 -1.2134  0.5496 -0.0498
15385TIP3   OH267645   0.525   1.449  14.861 -0.0456 -0.4969 -0.3341
15385TIP3    H167646   0.487   1.363  14.876 -3.3591  1.0177  0.6282
15385TIP3    H267647   0.450   1.506  14.844  2.0500  2.1801 -1.1316
15386TIP3   OH267648   4.115   0.508  16.041  0.0094  0.2300 -0.3852
15386TIP3    H167649   4.132   0.430  16.095  2.5862  1.0031 -0.0171
15386TIP3    H267650   4.188   0.511  15.980 -1.2023  1.1956 -1.8147
15387TIP3   OH267651   5.978   4.614  16.470 -0.4149 -0.1289  0.2878
15387TIP3    H167652   5.893   4.610  16.426 -1.4873 -1.1098  2.3867
15387TIP3    H267653   5.965   4.675  16.542  1.2253  1.1598 -0.4745
15388TIP3   OH267654   0.159   0.024  14.024  0.0370 -0.4225  0.0644
15388TIP3    H167655   0.235   0.076  14.052  0.2976 -0.3832 -0.7012
15388TIP3    H267656   0.165   0.023  13.928 -1.2219  0.0086 -0.0248
15389TIP3   OH267657   2.780   5.791  12.286 -0.0895  0.7299  0.0601
15389TIP3    H167658   2.820   5.714  12.327 -1.3037  0.2164  0.2883
15389TIP3    H267659   2.782   5.858  12.354  2.3329  1.3968 -0.5990
15390TIP3   OH267660   5.652   2.474  13.529  0.5541  0.2118  0.1115
15390TIP3    H167661   5.646   2.393  13.478  0.3002  0.7101 -0.6609
15390TIP3    H267662   5.561   2.495  13.552  0.5344  0.7781 -0.4849
15391TIP3   OH267663   2.711   5.255   1.721  0.1413 -0.5049  0.1096
15391TIP3    H167664   2.625   5.258   1.764  0.0250 -1.4668 -0.0467
15391TIP3    H267665   2.770   5.221   1.788  0.7236  1.6176  0.7145
15392TIP3   OH267666   5.555   5.689   5.839  0.1014 -0.1094 -0.2407
15392TIP3    H167667   5.599   5.737   5.769  0.1327  0.4409  0.1540
15392TIP3    H267668   5.562   5.746   5.915 -1.4504  0.0794 -0.2139
15393TIP3   OH267669   5.853   5.906   3.357 -0.5301  0.1855 -0.2986
15393TIP3    H167670   5.924   5.968   3.342 -0.6865  0.4356 -0.0162
15393TIP3    H267671   5.818   5.930   3.443 -1.7351  0.8219 -0.9630
15394TIP3   OH267672   6.784   0.727   4.032 -0.0591 -0.1063  0.7856
15394TIP3    H167673   6.837   0.792   3.987  1.2894 -0.4618  1.8466
15394TIP3    H267674   6.778   0.759   4.122 -1.0613 -0.4348  0.8457
15395TIP3   OH267675   2.611   1.206   2.903 -0.1981  0.3926 -0.0535
15395TIP3    H167676   2.568   1.154   2.971 -0.5803  0.9725  0.1542
15395TIP3    H267677   2.548   1.276   2.884  0.4763  0.9974 -0.0585
15396TIP3   OH267678   4.437   3.550   1.412 -0.3778  0.9732  0.4783
15396TIP3    H167679   4.348   3.587   1.406 -0.8380 -0.3349 -1.2364
15396TIP3    H267680   4.472   3.586   1.493 -2.3783  1.7457  1.0468
15397TIP3   OH267681   2.071   6.297  16.162 -0.0530  0.0854 -0.6680
15397TIP3    H167682   1.989   6.248  16.168 -0.5718  0.9673 -0.3986
15397TIP3    H267683   2.043   6.388  16.154  0.9080  0.4060 -0.3882
15398TIP3   OH267684   6.539   1.187   2.749 -0.5672 -0.4094  0.2614
15398TIP3    H167685   6.551   1.147   2.835 -0.0242 -0.0362  0.3566
15398TIP3    H267686   6.577   1.125   2.688 -0.6634 -0.5251  0.3186
15399TIP3   OH267687   1.419   3.178  12.724  0.3776 -0.3882 -0.0128
15399TIP3    H167688   1.334   3.179  12.769 -0.6812 -0.0061 -1.9786
15399TIP3    H267689   1.451   3.267  12.733 -0.5475  0.0808 -1.3418
15400TIP3   OH267690   1.001   3.963  13.640  1.0390 -0.6303 -0.0700
15400TIP3    H167691   0.995   4.041  13.695 -2.9394 -0.8542 -0.0105
15400TIP3    H267692   0.985   3.994  13.551  3.5184 -0.8559 -0.6453
15401TIP3   OH267693   4.229   3.043  14.370  0.2003 -0.2503  0.6230
15401TIP3    H167694   4.188   3.113  14.420 -1.0281 -1.7967  1.8566
15401TIP3    H267695   4.205   2.963  14.417  2.9282 -1.3835  0.1902
15402TIP3   OH267696   0.871   3.723  11.114 -0.1253  0.1938  0.8604
15402TIP3    H167697   0.886   3.681  11.029 -0.2196 -0.8596  1.3514
15402TIP3    H267698   0.847   3.813  11.093 -1.2521 -0.3572 -0.2757
15403TIP3   OH267699   0.870   1.613  15.295  0.7698 -0.4275  0.1997
15403TIP3    H167700   0.965   1.612  15.285  0.6854 -0.2928 -0.5799
15403TIP3    H267701   0.852   1.692  15.346  0.8142  1.2132 -2.2545
15404TIP3   OH267702   2.802   0.764  11.974  0.8892  0.3261 -0.1379
15404TIP3    H167703   2.879   0.725  12.016  1.5547 -1.0492 -2.5513
15404TIP3    H267704   2.813   0.858  11.989  2.1711  0.0255  0.9710
15405TIP3   OH267705   4.638   2.607  11.399 -0.6244  0.3359 -0.4662
15405TIP3    H167706   4.601   2.648  11.477 -0.8140  1.8407 -1.3215
15405TIP3    H267707   4.730   2.592  11.421 -0.6727  0.7663  0.0400
15406TIP3   OH267708   4.902   5.074   4.674  0.0472 -0.7565 -0.5369
15406TIP3    H167709   4.865   5.069   4.762  1.3554 -0.0378  0.0772
15406TIP3    H267710   4.980   5.130   4.684  1.0468 -1.8770 -1.8639
15407TIP3   OH267711   5.305   2.846  14.753  0.7939  0.4721  0.3193
15407TIP3    H167712   5.366   2.889  14.693 -0.1005 -0.7884 -1.5300
15407TIP3    H267713   5.220   2.850  14.709 -0.0666  0.3105  1.9076
15408TIP3   OH267714   5.185   4.033  16.535  0.4015  0.7879  0.3070
15408TIP3    H167715   5.278   4.041  16.512  0.2613  0.4426 -0.4070
15408TIP3    H267716   5.176   4.082  16.617  1.6009 -0.8173  1.4134
15409TIP3   OH267717   1.331   0.033   1.929 -0.3384  0.6971  0.0577
15409TIP3    H167718   1.367   0.031   2.017 -0.5626  1.2835  0.1651
15409TIP3    H267719   1.238   0.014   1.941 -0.4262  1.0751 -0.0203
15410TIP3   OH267720   3.683   5.792  14.141  0.1053 -0.0095  0.0434
15410TIP3    H167721   3.698   5.816  14.232  0.4027 -0.8270  0.2153
15410TIP3    H267722   3.736   5.854  14.091  0.3244  0.1341  0.4524
15411TIP3   OH267723   3.072   3.343  16.227  0.4223  0.1444 -0.0088
15411TIP3    H167724   3.145   3.360  16.166 -0.3724  1.7979 -0.5227
15411TIP3    H267725   3.032   3.428  16.240 -0.8817 -0.6131  0.9979
15412TIP3   OH267726   3.524   1.504  13.508 -0.2811 -0.1112 -0.4936
15412TIP3    H167727   3.477   1.487  13.426  0.2223 -1.7348 -0.4657
15412TIP3    H267728   3.510   1.426  13.560  3.0361 -1.0014 -0.7731
15413TIP3   OH267729   0.201   5.052  13.745 -0.3176  0.4604 -0.2725
15413TIP3    H167730   0.171   5.063  13.655 -0.4045  1.3592 -0.1319
15413TIP3    H267731   0.125   5.073  13.799 -0.2972 -0.1811  0.0168
15414TIP3   OH267732   0.785   5.737   3.427 -0.0713 -0.1940 -0.1782
15414TIP3    H167733   0.823   5.697   3.505  1.6262  1.5431 -0.0864
15414TIP3    H267734   0.786   5.667   3.361 -2.5744 -2.0208  1.6071
15415TIP3   OH267735   6.798   2.859  14.599 -0.1535 -0.2409 -0.0783
15415TIP3    H167736   6.789   2.810  14.518 -0.8028 -0.4924  0.1404
15415TIP3    H267737   6.839   2.942  14.573 -1.5239  0.2017 -0.8574
15416TIP3   OH267738   4.754   5.660   4.639  0.0462  0.4777  0.4427
15416TIP3    H167739   4.748   5.686   4.731 -0.0603  0.9071  0.3178
15416TIP3    H267740   4.840   5.692   4.611 -0.3366  1.2592  0.1196
15417TIP3   OH267741   3.957   3.183   1.224  0.2466 -0.3033 -0.4027
15417TIP3    H167742   3.953   3.088   1.231  2.1103 -0.4069 -0.3985
15417TIP3    H267743   3.902   3.204   1.149  1.5926 -1.6169 -1.8152
15418TIP3   OH267744   0.118   4.107   2.541  0.5035 -0.4725 -0.5423
15418TIP3    H167745   0.129   4.129   2.449  1.2931  2.1876  0.1498
15418TIP3    H267746   0.140   4.187   2.588  0.2091 -1.8088  1.9767
15419TIP3   OH267747   6.122   3.615  11.712  0.1438  0.2297  0.2492
15419TIP3    H167748   6.200   3.580  11.755  0.9167 -0.5287 -1.7273
15419TIP3    H267749   6.067   3.539  11.695 -0.1547  0.5197 -0.0999
15420TIP3   OH267750   2.311   5.839   4.071 -0.1870  0.0416 -0.1408
15420TIP3    H167751   2.392   5.819   4.118  0.2795  1.5497 -0.2715
15420TIP3    H267752   2.242   5.810   4.129  0.4404 -0.7755  0.2068
15421TIP3   OH267753   4.216   1.594   2.011 -0.0000 -0.3275 -0.1017
15421TIP3    H167754   4.172   1.518   2.047 -0.6720 -0.4327 -1.1262
15421TIP3    H267755   4.185   1.600   1.920  0.5000  0.8055 -0.2174
15422TIP3   OH267756   3.641   4.523  16.740  0.1956 -0.4886 -0.0243
15422TIP3    H167757   3.617   4.441  16.783  1.7944 -0.7790  0.3477
15422TIP3    H267758   3.717   4.501  16.687 -0.4908  0.3485 -1.3759
15423TIP3   OH267759   5.639   0.605  11.155  0.2105 -0.0511  0.0316
15423TIP3    H167760   5.629   0.577  11.246 -0.5062  1.2527  0.3792
15423TIP3    H267761   5.553   0.643  11.133  0.6497  0.4063 -0.9034
15424TIP3   OH267762   2.877   0.893   4.120 -0.6721  0.1029  0.6577
15424TIP3    H167763   2.809   0.878   4.054 -1.2571  0.7036  1.1129
15424TIP3    H267764   2.901   0.985   4.108 -0.5949  0.1411  1.1061
15425TIP3   OH267765   1.004   6.531   4.496 -0.4868  0.1271  0.8061
15425TIP3    H167766   0.984   6.593   4.426  0.7442 -0.1125  0.2373
15425TIP3    H267767   0.938   6.549   4.564  1.9807  4.4737  2.2080
15426TIP3   OH267768   2.800   1.611  12.863  0.6287 -0.1345  0.2947
15426TIP3    H167769   2.788   1.625  12.769 -1.3571 -1.2886  0.3396
15426TIP3    H267770   2.861   1.538  12.868 -0.3241 -0.9837 -0.1539
15427TIP3   OH267771   3.059   5.913   0.303 -0.0410 -0.8252 -0.5002
15427TIP3    H167772   3.145   5.917   0.344  0.0168  1.3091 -0.7939
15427TIP3    H267773   3.012   5.845   0.353  2.2362 -3.0320 -1.2650
15428TIP3   OH267774   5.205   0.643  13.976 -0.3207 -0.3171  0.1319
15428TIP3    H167775   5.265   0.632  14.049 -0.3526 -2.5198 -0.1360
15428TIP3    H267776   5.176   0.735  13.981  2.1617  0.4398  0.9229
15429TIP3   OH267777   0.662   6.490  12.432 -0.0531  0.3138 -0.8287
15429TIP3    H167778   0.662   6.478  12.527 -0.5063  0.7711 -0.7710
15429TIP3    H267779   0.753   6.507  12.410  0.1066 -0.1324 -0.5191
15430TIP3   OH267780   1.704   5.572   6.293  0.1508  0.3085 -0.0297
15430TIP3    H167781   1.739   5.661   6.291 -0.8396  0.7516  1.3739
15430TIP3    H267782   1.776   5.518   6.323 -0.1401  1.1097  2.1851
15431TIP3   OH267783   1.481   6.764  16.805  0.1894 -0.3467  0.0373
15431TIP3    H167784   1.395   6.762  16.847  0.1172  0.1426 -0.0862
15431TIP3    H267785   1.515   6.852  16.823  0.4725 -0.3872 -0.2889
15432TIP3   OH267786   0.474   5.448  16.937 -0.0404 -0.4461 -0.3212
15432TIP3    H167787   0.548   5.395  16.908  1.5397  2.0517 -0.9722
15432TIP3    H267788   0.502   5.484  17.021 -0.4829  0.6021 -0.6210
15433TIP3   OH267789   4.823   2.487  14.472 -0.5899  0.4604 -0.2688
15433TIP3    H167790   4.897   2.546  14.462  0.2786 -0.1840  1.9929
15433TIP3    H267791   4.808   2.452  14.384  1.9247  0.4306 -0.7201
15434TIP3   OH267792   6.044   2.010  13.832 -0.3526 -0.4178  0.1504
15434TIP3    H167793   6.076   1.988  13.744 -1.3630  0.0989 -0.3459
15434TIP3    H267794   5.970   1.952  13.846 -1.5372  0.9943 -0.2069
15435TIP3   OH267795   3.546   5.006  17.083  0.3562 -0.2259 -0.0060
15435TIP3    H167796   3.574   5.082  17.033  0.9469 -0.1035  0.5009
15435TIP3    H267797   3.549   4.933  17.020  1.4888 -0.1505 -0.0563
15436TIP3   OH267798   3.094   1.440  17.007 -0.0938  0.2774 -0.6651
15436TIP3    H167799   3.181   1.466  17.036 -0.4003 -1.3797  1.8472
15436TIP3    H267800   3.089   1.472  16.917  2.6475  1.4388 -0.4702
15437TIP3   OH267801   0.870   4.264  13.708  0.0051 -0.2391  0.7058
15437TIP3    H167802   0.804   4.312  13.659 -0.0612  0.1570  1.1825
15437TIP3    H267803   0.820   4.207  13.767  0.0832 -0.9860  0.0507
15438TIP3   OH267804   0.300   5.334  16.462 -0.3191 -0.1728 -0.5527
15438TIP3    H167805   0.315   5.242  16.481  0.1964 -0.0617 -0.4313
15438TIP3    H267806   0.262   5.334  16.374  1.4383 -0.3830 -1.3389
15439TIP3   OH267807   4.693   0.611   1.302  0.0129 -0.1239  0.4045
15439TIP3    H167808   4.729   0.534   1.346  0.5707 -0.1810 -0.1363
15439TIP3    H267809   4.614   0.632   1.350 -0.3688 -1.3028  0.2944
15440TIP3   OH267810   3.763   0.431   3.094  0.6477 -0.4688 -0.0526
15440TIP3    H167811   3.691   0.413   3.034  0.8876 -1.0876 -0.1532
15440TIP3    H267812   3.719   0.457   3.176  0.3177 -0.3776 -0.2562
15441TIP3   OH267813   4.317   6.147  13.913  0.1374  0.2475  0.3629
15441TIP3    H167814   4.265   6.227  13.915  0.1296  0.2418  0.3707
15441TIP3    H267815   4.269   6.086  13.968 -1.5315 -0.7587 -2.0912
15442TIP3   OH267816   5.540   1.711  16.232  0.3191 -0.1300  0.1621
15442TIP3    H167817   5.463   1.753  16.269 -0.4463 -1.4362  0.0954
15442TIP3    H267818   5.552   1.752  16.147 -2.0677 -1.9177 -1.1073
15443TIP3   OH267819   2.405   5.801   0.768  0.0289 -0.1704 -0.3732
15443TIP3    H167820   2.490   5.811   0.726  0.7127 -0.7899  0.8389
15443TIP3    H267821   2.423   5.812   0.862 -1.8125  3.5603 -0.3314
15444TIP3   OH267822   5.570   2.562   5.864  0.2909 -0.6069 -1.0294
15444TIP3    H167823   5.532   2.510   5.935 -0.8674  0.8134 -0.5653
15444TIP3    H267824   5.637   2.615   5.907 -1.0024  0.8975 -0.7626
15445TIP3   OH267825   3.889   1.413  16.664 -0.1536 -0.1201  0.1380
15445TIP3    H167826   3.851   1.339  16.617 -1.4493 -0.0144  0.9932
15445TIP3    H267827   3.967   1.437  16.613 -0.4287 -1.2620 -0.8303
15446TIP3   OH267828   0.396   1.260   2.729 -0.4257  0.1067  0.2622
15446TIP3    H167829   0.392   1.203   2.805  0.1967  0.4752  0.5738
15446TIP3    H267830   0.364   1.345   2.760 -0.3610  0.2041  0.0642
15447TIP3   OH267831   2.575   2.906  16.136 -0.2743  0.3490 -0.2808
15447TIP3    H167832   2.537   2.988  16.168 -0.6720  0.4999 -1.1225
15447TIP3    H267833   2.570   2.847  16.211  1.4674  1.5593  0.8246
15448TIP3   OH267834   3.315   3.426   3.895 -0.3545  0.4409  0.0532
15448TIP3    H167835   3.301   3.340   3.854  0.4834 -0.1820  1.0353
15448TIP3    H267836   3.243   3.480   3.864 -0.9467 -0.6603 -0.5018
15449TIP3   OH267837   6.297   0.146   5.207  0.2987 -0.6882  0.0088
15449TIP3    H167838   6.349   0.224   5.226  0.0222 -1.1418  2.8542
15449TIP3    H267839   6.219   0.179   5.163 -0.3244  0.8185  2.1516
15450TIP3   OH267840   3.687   0.318  15.292 -0.5145  0.1043  0.1167
15450TIP3    H167841   3.627   0.342  15.362 -1.6957  1.3876 -1.3091
15450TIP3    H267842   3.696   0.397  15.239  1.6248 -0.3643 -0.2955
15451TIP3   OH267843   5.011   5.722   5.650 -0.6087  0.0618 -0.3193
15451TIP3    H167844   4.956   5.716   5.728  0.3854  3.2216  0.6889
15451TIP3    H267845   5.010   5.814   5.626  3.4647  0.0918 -0.7994
15452TIP3   OH267846   4.734   4.687  11.919 -0.1422 -0.3206 -0.0082
15452TIP3    H167847   4.821   4.725  11.907 -0.0128 -0.3525  0.7409
15452TIP3    H267848   4.679   4.731  11.855  0.7573 -1.4329 -1.5720
15453TIP3   OH267849   3.323   0.614  14.477 -0.1053 -0.1884 -0.4903
15453TIP3    H167850   3.235   0.579  14.461 -0.0949  0.4558 -2.0798
15453TIP3    H267851   3.332   0.684  14.412  0.8324  1.0577  0.9718
15454TIP3   OH267852   1.012   1.346   0.206 -0.5270 -0.2675 -0.0188
15454TIP3    H167853   1.019   1.442   0.200  0.5242 -0.3256  0.1280
15454TIP3    H267854   1.076   1.322   0.274  1.1745 -1.3182 -1.9496
15455TIP3   OH267855   4.187   2.037   5.409  0.3352  0.5553  0.0465
15455TIP3    H167856   4.092   2.033   5.419  0.2721 -0.1256 -0.7725
15455TIP3    H267857   4.209   2.127   5.431 -0.6670  1.1081 -1.1525
15456TIP3   OH267858   3.321   2.518  13.379 -0.6854  0.3586 -0.6799
15456TIP3    H167859   3.285   2.429  13.383 -0.4163  0.3240  1.3654
15456TIP3    H267860   3.244   2.575  13.385 -0.7064  0.2623  0.0361
15457TIP3   OH267861   4.462   4.056  10.643  0.2814  0.1339 -0.1739
15457TIP3    H167862   4.369   4.037  10.652  0.2217 -0.4157 -1.6339
15457TIP3    H267863   4.475   4.063  10.548  1.7285  0.1401  0.0145
15458TIP3   OH267864   4.917   4.392  10.154 -0.1564  0.1103  0.1110
15458TIP3    H167865   4.827   4.410  10.128  0.0295  0.3699 -0.3506
15458TIP3    H267866   4.953   4.342  10.081  0.3474  0.7853 -0.1020
15459TIP3   OH267867   6.705   1.560   5.775 -0.5971  0.5281 -0.1717
15459TIP3    H167868   6.794   1.595   5.769  0.1097 -0.6515  2.6556
15459TIP3    H267869   6.660   1.621   5.834 -1.0194 -0.0691  0.1285
15460TIP3   OH267870   5.205   5.349   2.956  0.5167 -0.3714 -0.0975
15460TIP3    H167871   5.123   5.306   2.979 -0.2033  1.9242  1.9668
15460TIP3    H267872   5.178   5.432   2.915  1.7365  0.7248  1.2445
15461TIP3   OH267873   1.718   4.529  14.531  0.0248 -0.4067  0.6159
15461TIP3    H167874   1.663   4.463  14.489  1.5232 -0.1117 -1.8579
15461TIP3    H267875   1.674   4.612  14.512  2.5542  0.0951 -3.5749
15462TIP3   OH267876   6.587   4.016  15.647  0.2380 -0.1675  0.6853
15462TIP3    H167877   6.563   3.926  15.626 -1.0388  0.5328 -0.9876
15462TIP3    H267878   6.516   4.047  15.703 -0.2422  0.3239 -0.1711
15463TIP3   OH267879   2.552   6.188   5.366  0.0667 -0.6313 -0.1650
15463TIP3    H167880   2.521   6.277   5.383  3.3414  0.3240  1.2832
15463TIP3    H267881   2.476   6.142   5.330 -2.3906  2.0371  1.4296
15464TIP3   OH267882   1.400   0.134   3.628 -0.2774  0.1931  0.2182
15464TIP3    H167883   1.409   0.055   3.681 -0.6383  0.0734  0.1050
15464TIP3    H267884   1.489   0.165   3.615 -0.1516 -0.0634  0.4634
15465TIP3   OH267885   3.320   4.603   0.204  0.6798 -0.9196  0.5280
15465TIP3    H167886   3.386   4.671   0.215  0.2200 -0.5615  1.0987
15465TIP3    H267887   3.330   4.574   0.113 -1.0861  1.9999 -0.6762
15466TIP3   OH267888   2.528   1.517   3.944 -0.2255 -0.0874  0.1960
15466TIP3    H167889   2.435   1.498   3.961  0.1553 -1.1724  1.1612
15466TIP3    H267890   2.561   1.438   3.901 -0.6801  1.8451 -3.9068
15467TIP3   OH267891   2.742   0.628   1.260  0.0208 -0.0630  0.1298
15467TIP3    H167892   2.667   0.688   1.256  0.2596  0.2106 -0.4017
15467TIP3    H267893   2.803   0.671   1.320 -0.5253 -0.6134  1.0877
15468TIP3   OH267894   0.108   1.947   2.812  0.2685 -0.1702 -0.2422
15468TIP3    H167895   0.169   1.934   2.884 -0.9588  1.2659  1.0974
15468TIP3    H267896   0.162   1.940   2.733  1.7449 -1.1032  0.8290
15469TIP3   OH267897   1.765   6.761  15.476  0.0250 -0.0737  0.3149
15469TIP3    H167898   1.729   6.810  15.402 -0.6381 -0.2703  0.5037
15469TIP3    H267899   1.693   6.757  15.539  0.9315  1.0793  1.4579
15470TIP3   OH267900   4.409   2.946   4.152 -0.1312  0.6278 -0.5807
15470TIP3    H167901   4.412   2.870   4.211  1.5032  1.2228  0.1433
15470TIP3    H267902   4.319   2.948   4.119 -1.0768  0.2665  1.8875
15471TIP3   OH267903   2.577   4.009  15.842 -0.1153  0.4318  0.4525
15471TIP3    H167904   2.484   4.013  15.864 -0.1056  1.2983  0.3500
15471TIP3    H267905   2.617   3.959  15.913 -0.7275 -0.3479  0.2582
15472TIP3   OH267906   1.882   1.337  11.299 -0.1736  0.5173 -0.1874
15472TIP3    H167907   1.894   1.266  11.363 -0.9408 -0.9979 -1.6829
15472TIP3    H267908   1.969   1.354  11.265 -0.0299  0.0471 -0.0643
15473TIP3   OH267909   3.283   0.210  12.666 -0.2207  0.0342  0.1720
15473TIP3    H167910   3.230   0.240  12.740  0.5476 -1.0827  1.1930
15473TIP3    H267911   3.328   0.133  12.699 -1.2457 -1.5551 -2.0506
15474TIP3   OH267912   4.561   5.175  15.550 -0.6657  0.1454  0.2418
15474TIP3    H167913   4.629   5.232  15.586 -1.0938  1.0163 -0.3021
15474TIP3    H267914   4.480   5.206  15.592 -1.0457  0.6171 -0.8208
15475TIP3   OH267915   2.452   3.464  12.131 -0.2909  0.1615  0.4860
15475TIP3    H167916   2.445   3.549  12.173 -1.3641 -0.0986  0.8490
15475TIP3    H267917   2.386   3.465  12.062  1.0375  0.3548 -0.8022
15476TIP3   OH267918   1.412   5.482  14.418  0.1382 -0.2800 -0.2601
15476TIP3    H167919   1.407   5.498  14.324 -0.2876 -0.1508 -0.2198
15476TIP3    H267920   1.485   5.537  14.448 -0.2496  0.3156 -0.3910
15477TIP3   OH267921   6.421   6.317   5.926 -0.3149 -0.0042 -0.0242
15477TIP3    H167922   6.512   6.288   5.916 -0.4297  0.2265 -2.1310
15477TIP3    H267923   6.370   6.253   5.875 -1.2379  0.3769  0.4010
15478TIP3   OH267924   1.776   6.757   0.085 -0.4076  0.1030 -0.0804
15478TIP3    H167925   1.698   6.780   0.034  0.7644  0.4442 -1.7622
15478TIP3    H267926   1.826   6.699   0.027  0.2781 -0.6588  1.2377
15479TIP3   OH267927   3.056   2.511  13.221  0.2509  0.4675  0.7244
15479TIP3    H167928   3.023   2.584  13.272 -0.4958 -0.5664  1.7390
15479TIP3    H267929   3.085   2.447  13.286  1.6521  0.1930 -0.1506
15480TIP3   OH267930   1.505   1.334  14.333 -0.3732 -0.1118  0.0238
15480TIP3    H167931   1.593   1.300  14.350  0.2453 -0.6547 -3.7870
15480TIP3    H267932   1.452   1.303  14.407  2.2569 -1.2203  1.5002
15481TIP3   OH267933   1.240   0.170   6.459  0.5303 -0.2830  0.4082
15481TIP3    H167934   1.286   0.113   6.522  0.3512 -0.5759  0.2733
15481TIP3    H267935   1.293   0.250   6.457  0.8316 -0.4781  0.5327
15482TIP3   OH267936   2.085   2.697   4.067 -0.1639 -0.3716  0.1229
15482TIP3    H167937   2.092   2.771   4.006  2.1014 -1.4662 -0.9854
15482TIP3    H267938   2.131   2.625   4.023 -2.3460 -2.4752  1.1742
15483TIP3   OH267939   6.375   3.673  17.249  0.0390 -0.7114  0.7149
15483TIP3    H167940   6.450   3.732  17.236  0.2731 -0.5127  2.6804
15483TIP3    H267941   6.374   3.618  17.171  0.5842  1.0639 -0.5998
15484TIP3   OH267942   2.485   0.362  16.758  0.0592 -0.4191  0.4002
15484TIP3    H167943   2.502   0.368  16.852 -0.6406  0.1524  0.4998
15484TIP3    H267944   2.392   0.340  16.752 -0.1253  0.4815 -0.1586
15485TIP3   OH267945   5.037   3.821  12.579 -0.4501 -0.1570  0.2814
15485TIP3    H167946   5.075   3.761  12.515  0.5754  0.3368  0.4219
15485TIP3    H267947   5.047   3.776  12.663  1.2296  0.6102  0.5239
15486TIP3   OH267948   2.553   1.185   1.794  0.2480 -0.3989  0.3704
15486TIP3    H167949   2.509   1.178   1.709 -0.6687 -1.9035  0.9493
15486TIP3    H267950   2.535   1.102   1.837  1.9435 -0.2109  1.4653
15487TIP3   OH267951   4.998   5.896  15.805 -0.7036 -0.0015  0.1558
15487TIP3    H167952   5.073   5.889  15.864  0.3833  1.4296 -1.0187
15487TIP3    H267953   5.028   5.953  15.734 -2.2105 -1.1077 -1.4242
15488TIP3   OH267954   1.293   2.265  13.245 -0.0343 -0.2030 -0.6325
15488TIP3    H167955   1.290   2.170  13.233 -0.0011 -0.2855 -0.0184
15488TIP3    H267956   1.326   2.299  13.162 -1.1820 -0.6314 -1.2707
15489TIP3   OH267957   4.787   5.339  12.750 -0.1096  0.0575  0.2624
15489TIP3    H167958   4.869   5.294  12.769 -0.6554 -1.1320 -0.0665
15489TIP3    H267959   4.772   5.396  12.825  0.2838 -0.8149  1.0166
15490TIP3   OH267960   3.893   3.067   5.279 -0.0806 -0.0826 -0.1600
15490TIP3    H167961   3.905   3.110   5.364 -2.6551  0.4270  0.0033
15490TIP3    H267962   3.843   2.988   5.300 -0.8362  0.1127 -1.2244
15491TIP3   OH267963   5.208   0.494  15.226 -0.0630  0.4865 -1.1466
15491TIP3    H167964   5.123   0.536  15.240 -1.0475 -2.0803  0.9003
15491TIP3    H267965   5.189   0.419  15.170  0.1181 -2.3364  2.3940
15492TIP3   OH267966   5.341   2.763  15.829 -0.0162  0.2279  0.3225
15492TIP3    H167967   5.351   2.806  15.914  0.9039  0.3339  0.1682
15492TIP3    H267968   5.308   2.831  15.771 -1.0884  0.0366  0.6990
15493TIP3   OH267969   1.314   3.443   3.011 -0.0094 -0.3154 -0.3537
15493TIP3    H167970   1.220   3.434   2.998 -0.1653  0.1653  0.4050
15493TIP3    H267971   1.338   3.370   3.069 -0.4310  1.2432  1.8318
15494TIP3   OH267972   2.738   3.947   3.361  0.8831  0.1896  0.4850
15494TIP3    H167973   2.667   4.006   3.336  0.4882 -0.8304 -0.9452
15494TIP3    H267974   2.722   3.927   3.453 -0.4442  0.3117  0.2926
15495TIP3   OH267975   5.106   4.993   1.118 -0.5246  0.7733 -0.2452
15495TIP3    H167976   5.097   4.917   1.175 -0.0856  1.3745  0.6577
15495TIP3    H267977   5.199   5.014   1.121 -0.8114  2.0544  0.4895
15496TIP3   OH267978   6.763   0.148   1.432 -0.3384  0.2497 -0.2606
15496TIP3    H167979   6.716   0.206   1.373 -1.1815 -0.1885 -0.0336
15496TIP3    H267980   6.755   0.189   1.518 -2.2851 -0.9668  0.1779
15497TIP3   OH267981   0.587   6.115   2.720  0.2497 -0.1506  0.4963
15497TIP3    H167982   0.632   6.140   2.640 -1.9971 -0.9663 -1.0831
15497TIP3    H267983   0.509   6.067   2.690 -0.7118 -0.3558  3.1518
15498TIP3   OH267984   0.987   4.062  13.924 -0.4333 -0.0381 -0.2927
15498TIP3    H167985   0.999   4.019  14.009 -1.6199 -1.3375 -0.7663
15498TIP3    H267986   1.076   4.073  13.890  0.0413  0.4866  1.1239
15499TIP3   OH267987   6.090   6.096   5.238  0.6874 -0.1698 -0.1711
15499TIP3    H167988   6.101   6.191   5.246  0.1129  0.1080 -2.2490
15499TIP3    H267989   6.011   6.076   5.287 -0.6171  0.8329 -1.7872
15500TIP3   OH267990   4.695   0.274  13.863  0.1214  0.4070  0.0109
15500TIP3    H167991   4.746   0.193  13.866 -1.1319 -0.4388 -0.9260
15500TIP3    H267992   4.725   0.319  13.784  0.3127  0.5057  0.1420
15501TIP3   OH267993   0.923   4.847  11.355 -0.6447  0.2904  0.3796
15501TIP3    H167994   0.942   4.753  11.352 -1.3820  0.1327  0.5383
15501TIP3    H267995   0.989   4.887  11.298 -1.5049 -0.5154 -1.2011
15502TIP3   OH267996   1.379   0.776   6.280 -0.4724 -0.4038  0.3870
15502TIP3    H167997   1.405   0.702   6.336 -0.4202 -0.4216  0.3395
15502TIP3    H267998   1.355   0.845   6.342  2.6849  0.7105  0.5011
15503TIP3   OH267999   0.613   1.031  14.289 -0.4610 -0.0731 -0.3837
15503TIP3    H168000   0.570   1.013  14.205 -1.4352 -0.7200  0.2551
15503TIP3    H268001   0.606   0.950  14.338  0.0863  0.3145  0.3371
15504TIP3   OH268002   2.391   4.892   3.719 -0.3045 -0.4862 -0.0278
15504TIP3    H168003   2.393   4.865   3.628  1.4765 -0.0749 -0.1327
15504TIP3    H268004   2.454   4.835   3.763 -1.0756 -0.6196  0.9470
15505TIP3   OH268005   5.855   5.590   1.389  0.2671  0.2629  0.4893
15505TIP3    H168006   5.850   5.683   1.368 -0.8051  0.2333  0.6190
15505TIP3    H268007   5.896   5.550   1.312  1.5012  0.9460  0.7684
15506TIP3   OH268008   3.914   4.500  11.500 -0.5543 -0.3160  0.1397
15506TIP3    H168009   3.979   4.567  11.519 -0.6118 -0.1717 -0.1765
15506TIP3    H268010   3.948   4.421  11.544 -0.8127  0.0723  1.0571
15507TIP3   OH268011   5.747   3.694  14.751 -0.2543 -0.3610  0.3478
15507TIP3    H168012   5.688   3.726  14.683  0.3649 -1.3761 -0.6773
15507TIP3    H268013   5.773   3.773  14.799 -1.2625  0.2665 -0.1296
15508TIP3   OH268014   2.964   0.934   3.468 -0.1348  0.1614  0.2157
15508TIP3    H168015   3.052   0.898   3.453 -0.5935 -0.7590 -0.3642
15508TIP3    H268016   2.972   1.027   3.445  0.8162  0.2050  0.6969
15509TIP3   OH268017   5.146   4.740   2.061  0.2356  0.1998 -0.3504
15509TIP3    H168018   5.213   4.743   1.992  1.1270  3.5188  0.5689
15509TIP3    H268019   5.066   4.771   2.018  0.0680 -0.6029 -0.6248
15510TIP3   OH268020   1.768   2.775  13.896 -0.5668 -0.3531  0.2258
15510TIP3    H168021   1.711   2.720  13.950 -0.8260 -0.4667 -0.1630
15510TIP3    H268022   1.742   2.756  13.806  1.1900 -1.6637 -0.0465
15511TIP3   OH268023   4.517   0.901  13.453 -0.3043  0.5706  0.0461
15511TIP3    H168024   4.526   0.855  13.537 -2.0765 -0.0168 -0.0685
15511TIP3    H268025   4.537   0.834  13.387  0.8474  0.9714 -0.0383
15512TIP3   OH268026   0.718   6.385   0.838  0.4041  0.1942  0.6196
15512TIP3    H168027   0.770   6.376   0.758 -2.0914  0.6140 -1.1423
15512TIP3    H268028   0.718   6.479   0.856 -0.8074  0.3583 -0.1668
15513TIP3   OH268029   3.468   2.572   0.264 -0.2507 -0.1794 -0.2650
15513TIP3    H168030   3.407   2.502   0.286 -0.1757 -0.5577 -1.2722
15513TIP3    H268031   3.518   2.585   0.345  0.0221 -1.5764 -0.1851
15514TIP3   OH268032   0.943   3.947  15.602 -0.4302 -0.4809  0.7650
15514TIP3    H168033   1.035   3.923  15.614 -0.6081 -2.3705 -1.4262
15514TIP3    H268034   0.947   4.032  15.558  0.2759 -0.9250 -0.0423
15515TIP3   OH268035   4.316   0.351   5.891  0.0888  0.3853 -0.1065
15515TIP3    H168036   4.221   0.352   5.882  0.1252  1.6099 -0.4140
15515TIP3    H268037   4.332   0.336   5.984 -0.4413  2.4621  0.3447
15516TIP3   OH268038   6.243   5.917  13.988  0.2174 -0.4376  0.3933
15516TIP3    H168039   6.205   6.003  14.008  0.4721  0.3506 -2.2499
15516TIP3    H268040   6.265   5.922  13.895  2.3472 -2.5719  0.7193
15517TIP3   OH268041   6.777   6.077   1.996 -0.0117 -0.2178 -0.0780
15517TIP3    H168042   6.750   6.115   2.079 -0.3947  0.1036 -0.3501
15517TIP3    H268043   6.702   6.022   1.970  0.0507 -0.2051 -0.2807
15518TIP3   OH268044   5.839   0.931   3.447  0.1100 -0.2759  0.0206
15518TIP3    H168045   5.875   0.864   3.504 -0.8843 -0.2704  0.6574
15518TIP3    H268046   5.888   0.922   3.365  1.3375 -0.4700  0.7671
15519TIP3   OH268047   4.310   2.102  14.611 -0.2362 -0.0610 -0.1235
15519TIP3    H168048   4.401   2.085  14.633  0.2643  2.3219 -0.2705
15519TIP3    H268049   4.297   2.061  14.525  0.3290 -1.4368  0.4284
15520TIP3   OH268050   5.016   6.368   2.038 -0.2835 -0.1485 -0.0780
15520TIP3    H168051   4.969   6.425   2.099 -0.2558  1.1950 -1.2830
15520TIP3    H268052   5.090   6.335   2.088 -0.0418  1.2454  0.5144
15521TIP3   OH268053   6.419   6.795  13.056 -0.0466 -0.0851  0.2462
15521TIP3    H168054   6.345   6.825  13.109 -1.1712 -0.6314 -0.9686
15521TIP3    H268055   6.488   6.775  13.119 -0.3086  2.1348  1.2748
15522TIP3   OH268056   3.105   6.017  10.974 -0.1796 -0.7709 -0.5569
15522TIP3    H168057   3.021   6.037  10.932  0.3873  0.1871 -1.2567
15522TIP3    H268058   3.133   6.101  11.011  0.8075 -0.9249 -0.9423
15523TIP3   OH268059   0.172   5.644  13.452 -0.4241  0.4484 -0.2522
15523TIP3    H168060   0.206   5.729  13.426  0.5406 -0.1415 -0.9705
15523TIP3    H268061   0.107   5.663  13.519 -1.0550  1.8149 -1.2480
15524TIP3   OH268062   1.455   1.854   0.201  0.3512  0.1860 -0.0527
15524TIP3    H168063   1.392   1.922   0.178 -0.3094 -0.3420  0.2007
15524TIP3    H268064   1.509   1.894   0.270  0.9676  1.0022 -0.9923
15525TIP3   OH268065   1.296   4.908   2.128 -0.3330  0.1830 -0.2386
15525TIP3    H168066   1.364   4.970   2.100 -1.2214  1.5875  0.6956
15525TIP3    H268067   1.236   4.903   2.053 -1.6397  2.4317  0.6139
15526TIP3   OH268068   4.787   0.934   6.453 -0.1942 -0.1027  0.8552
15526TIP3    H168069   4.831   0.998   6.397  0.4499 -2.0252 -0.9079
15526TIP3    H268070   4.698   0.928   6.417  0.6573 -2.4301 -0.9526
15527TIP3   OH268071   3.287   2.850   1.280 -0.9471  0.5008 -0.8779
15527TIP3    H168072   3.244   2.783   1.227  0.1006  0.4830 -1.7193
15527TIP3    H268073   3.361   2.879   1.226  1.0123 -0.5524  1.1445
15528TIP3   OH268074   6.694   6.803   2.286 -0.5444 -0.3786 -0.8619
15528TIP3    H168075   6.746   6.731   2.251 -1.1337 -1.1243 -0.2359
15528TIP3    H268076   6.707   6.875   2.224 -0.1595 -1.1107 -1.6382
15529TIP3   OH268077   1.977   2.384   0.247  0.6846 -0.1352  0.2011
15529TIP3    H168078   1.987   2.291   0.230 -0.0949 -0.7334  2.8253
15529TIP3    H268079   1.914   2.414   0.180  0.6894 -1.5372 -0.4396
15530TIP3   OH268080   2.062   5.014  15.682 -0.3019  0.5431  0.2579
15530TIP3    H168081   2.080   5.086  15.621 -0.1992  0.3593  0.0700
15530TIP3    H268082   2.090   4.935  15.635  0.9798  0.5177  1.0420
15531TIP3   OH268083   2.097   4.179  11.850  0.1102 -0.0509  0.1273
15531TIP3    H168084   2.184   4.152  11.820 -0.3047 -0.3987 -0.7446
15531TIP3    H268085   2.091   4.144  11.939  0.7242 -0.3219  0.0659
15532TIP3   OH268086   4.530   6.347  17.197  0.1028 -0.0429  0.2510
15532TIP3    H168087   4.582   6.279  17.240 -0.8321 -0.6841  0.3745
15532TIP3    H268088   4.545   6.333  17.103  2.9474  1.9891  0.3397
15533TIP3   OH268089   6.036   5.182  14.805 -0.2014 -0.5532  0.0635
15533TIP3    H168090   5.956   5.199  14.854 -0.7190 -0.7225 -0.7142
15533TIP3    H268091   6.094   5.137  14.868 -0.4272  0.2329  0.8443
15534TIP3   OH268092   5.088   5.372   1.959 -0.1883  0.5909 -0.9991
15534TIP3    H168093   5.020   5.334   2.015 -1.3944 -0.3681 -3.0393
15534TIP3    H268094   5.064   5.464   1.951 -0.7582  0.4463 -0.9902
15535TIP3   OH268095   6.359   0.345   2.690  0.0771 -0.6635 -0.1008
15535TIP3    H168096   6.310   0.267   2.716  2.8149 -2.1805  0.6987
15535TIP3    H268097   6.430   0.351   2.753  1.0993  1.3371 -1.3789
15536TIP3   OH268098   4.338   1.134   6.335  0.0531  0.1659  0.1777
15536TIP3    H168099   4.422   1.088   6.331  0.5664  1.3106 -2.9215
15536TIP3    H268100   4.356   1.213   6.385  0.7363  0.2900 -0.2747
15537TIP3   OH268101   5.377   2.371   3.179 -0.1778 -0.0296  0.3365
15537TIP3    H168102   5.354   2.299   3.119 -0.5714 -0.1755  0.6603
15537TIP3    H268103   5.310   2.367   3.247  0.6122 -0.2399  1.1085
15538TIP3   OH268104   6.019   3.248   6.737  0.4339  0.2712  0.1124
15538TIP3    H168105   5.937   3.214   6.773 -0.2173  0.0078 -1.5783
15538TIP3    H268106   6.070   3.273   6.814  0.2569 -2.9463  1.3869
15539TIP3   OH268107   2.306   0.552  14.892 -0.0726 -0.1417  0.4695
15539TIP3    H168108   2.329   0.640  14.864 -1.7663 -0.5310 -2.2715
15539TIP3    H268109   2.214   0.558  14.917 -0.2196 -1.1347  0.2143
15540TIP3   OH268110   3.044   4.419   6.073 -0.2980 -0.0712  0.5271
15540TIP3    H168111   3.010   4.474   6.143  0.3734 -0.8843  1.5154
15540TIP3    H268112   2.965   4.380   6.033 -0.6225 -1.0566  2.0568
15541TIP3   OH268113   1.354   6.149   0.633 -0.2863  0.1411 -0.0893
15541TIP3    H168114   1.265   6.149   0.669 -1.1036  1.4504 -2.0250
15541TIP3    H268115   1.382   6.057   0.639 -2.6134 -0.7086 -1.4309
15542TIP3   OH268116   1.001   5.730   4.793 -0.0068 -0.4477  0.0512
15542TIP3    H168117   0.929   5.732   4.855  1.7388 -0.0195  2.1094
15542TIP3    H268118   1.037   5.818   4.794  0.3376 -0.5658 -1.1986
15543TIP3   OH268119   4.268   3.977  14.411  0.0844  0.0182 -0.0918
15543TIP3    H168120   4.353   4.010  14.441  0.5572 -0.7550 -0.5766
15543TIP3    H268121   4.208   4.051  14.422  1.0194  0.8617 -0.6325
15544TIP3   OH268122   3.588   4.381   6.488  0.0950  0.4091  0.3197
15544TIP3    H168123   3.574   4.460   6.436  0.5817 -0.4579 -1.1612
15544TIP3    H268124   3.502   4.339   6.493 -0.4238  1.6266  2.1429
15545TIP3   OH268125   0.481   3.637  14.407 -0.1415  0.3820 -0.2246
15545TIP3    H168126   0.550   3.635  14.473  1.0369 -0.7901 -1.4708
15545TIP3    H268127   0.517   3.688  14.335 -0.8684  0.4330 -0.5638
15546TIP3   OH268128   3.853   4.728  12.403  0.0007 -0.7056 -0.4051
15546TIP3    H168129   3.880   4.723  12.495  0.1083 -2.0818 -0.5136
15546TIP3    H268130   3.799   4.807  12.398  3.3272  1.7114 -0.0077
15547TIP3   OH268131   4.212   1.102   3.416 -0.0812  0.2443  0.4026
15547TIP3    H168132   4.260   1.074   3.338 -0.3183 -0.6488  0.5714
15547TIP3    H268133   4.278   1.104   3.486  0.1249  1.0153  0.1843
15548TIP3   OH268134   4.968   1.968   2.273  0.9069 -0.0545 -0.2614
15548TIP3    H168135   5.008   1.990   2.358  0.8248 -1.7756  0.2393
15548TIP3    H268136   4.925   2.049   2.245  0.5089  0.3905  1.5826
15549TIP3   OH268137   1.708   4.099   3.041  0.3947  0.1522  0.7393
15549TIP3    H168138   1.798   4.123   3.063  0.9109  1.0879 -2.2364
15549TIP3    H268139   1.712   4.004   3.029  1.0130  0.2198  0.3964
15550TIP3   OH268140   1.177   4.455   2.366  0.3380 -0.5988 -0.2075
15550TIP3    H168141   1.100   4.412   2.329  0.8005 -1.4113 -0.2229
15550TIP3    H268142   1.228   4.482   2.290  1.4150 -2.4952 -0.1884
15551TIP3   OH268143   5.128   3.183   2.016  0.0651 -0.1438 -0.0447
15551TIP3    H168144   5.103   3.137   1.937  2.0753 -0.7572 -0.3564
15551TIP3    H268145   5.045   3.203   2.060 -0.9179 -3.0709 -0.4437
15552TIP3   OH268146   2.816   0.636  13.882  0.7827  0.6970 -0.4996
15552TIP3    H168147   2.788   0.545  13.885  0.7814  0.6434 -1.7867
15552TIP3    H268148   2.766   0.679  13.951 -0.2679  0.0127 -0.8261
15553TIP3   OH268149   4.978   4.483  12.565  0.4802 -0.1069  0.1163
15553TIP3    H168150   5.041   4.424  12.608  3.3118  0.7290 -2.7119
15553TIP3    H268151   4.975   4.453  12.475 -1.1096  1.6198 -0.4239
15554TIP3   OH268152   3.305   0.488  13.600 -0.0031 -0.0278  0.5683
15554TIP3    H168153   3.216   0.498  13.636 -1.1317 -0.4914 -1.9379
15554TIP3    H268154   3.338   0.578  13.592 -0.9512  0.2713 -0.1081
15555TIP3   OH268155   1.000   1.059   2.822 -0.1664  1.0973 -0.0475
15555TIP3    H168156   1.001   0.964   2.815 -4.5674  0.9235  0.0172
15555TIP3    H268157   1.033   1.091   2.738 -0.9631 -0.5315 -0.9947
15556TIP3   OH268158   6.262   0.835   3.155 -0.7282 -0.1036  0.0094
15556TIP3    H168159   6.255   0.919   3.200 -1.4266 -0.4590  0.5617
15556TIP3    H268160   6.350   0.836   3.117 -1.0456  1.2431 -0.7253
15557TIP3   OH268161   0.938   5.298  15.754  0.2880 -0.0141 -0.1758
15557TIP3    H168162   0.960   5.207  15.773 -0.1871  0.0068  0.4979
15557TIP3    H268163   1.017   5.347  15.776  0.6576 -0.3005 -0.8632
15558TIP3   OH268164   1.832   2.707   5.537 -0.0838 -0.4001 -0.2118
15558TIP3    H168165   1.811   2.800   5.541  0.1172 -0.2895 -1.5054
15558TIP3    H268166   1.799   2.679   5.452  2.5094 -0.8281 -1.1178
15559TIP3   OH268167   3.855   3.937   0.740 -1.1297  0.1441 -0.2492
15559TIP3    H168168   3.858   3.985   0.823  0.6243  0.4415 -0.4667
15559TIP3    H268169   3.808   3.856   0.760 -1.2078  0.4634  0.8846
15560TIP3   OH268170   1.876   5.169  13.008 -0.2998  0.0892  0.3160
15560TIP3    H168171   1.800   5.149  13.061 -0.4425 -0.9451 -0.2710
15560TIP3    H268172   1.873   5.264  12.996 -1.4234  0.0592  0.3806
15561TIP3   OH268173   0.072   6.339  11.237  0.1860  0.9762  0.2720
15561TIP3    H168174   0.111   6.417  11.196 -0.4022  1.4678  0.6501
15561TIP3    H268175   0.035   6.371  11.319 -0.9606  0.4889 -0.0532
15562TIP3   OH268176   5.458   5.121  11.009  0.0068  0.6203 -0.2438
15562TIP3    H168177   5.373   5.098  10.972  0.1194 -0.8318  0.3679
15562TIP3    H268178   5.522   5.082  10.948  0.2407  1.5460 -0.6030
15563TIP3   OH268179   4.447   4.193  14.148  0.3913 -0.1274  0.5440
15563TIP3    H168180   4.387   4.139  14.098  0.3934  0.4400 -0.0752
15563TIP3    H268181   4.534   4.164  14.120  0.4059  2.3166 -2.1364
15564TIP3   OH268182   5.965   1.970   4.051 -0.7308  0.5432  0.5174
15564TIP3    H168183   5.975   1.925   4.136  0.3670 -2.1875 -0.9879
15564TIP3    H268184   6.055   1.988   4.023 -0.8983 -1.3686 -1.4365
15565TIP3   OH268185   3.507   4.079   4.395  0.2317 -0.7206  0.7651
15565TIP3    H168186   3.420   4.115   4.409 -0.0822 -1.6621  1.3178
15565TIP3    H268187   3.566   4.154   4.405 -0.5465  0.0202 -0.1334
15566TIP3   OH268188   6.300   0.688  13.660 -0.1776  0.2266 -0.0439
15566TIP3    H168189   6.320   0.737  13.580  1.3053 -1.0085 -0.4443
15566TIP3    H268190   6.283   0.599  13.630 -1.8522  0.2487  0.7989
15567TIP3   OH268191   6.236   3.128  11.682 -0.2246  0.1832  0.1143
15567TIP3    H168192   6.153   3.098  11.720 -0.5345 -0.3345 -0.9464
15567TIP3    H268193   6.303   3.099  11.744 -0.8388  0.6206  0.9851
15568TIP3   OH268194   5.083   2.107  13.553  0.2696  0.2128 -0.2674
15568TIP3    H168195   5.060   2.029  13.503  0.2621  1.0282 -1.5593
15568TIP3    H268196   5.049   2.180  13.501 -2.5154  0.9548  2.4189
15569TIP3   OH268197   3.065   1.777  16.394  0.4513 -0.4393  0.1224
15569TIP3    H168198   3.094   1.857  16.349  1.2533 -0.4604  0.5866
15569TIP3    H268199   3.002   1.808  16.459  0.5510 -0.2047  0.1105
15570TIP3   OH268200   0.779   2.981  12.196  0.0870  0.2394 -0.0158
15570TIP3    H168201   0.736   2.933  12.267  0.2881 -1.7843 -1.2464
15570TIP3    H268202   0.836   3.044  12.241 -1.9231  0.9472  1.6081
15571TIP3   OH268203   2.302   6.350  12.555  0.2132 -0.0088 -0.1162
15571TIP3    H168204   2.272   6.276  12.502  2.6937  0.2277 -1.9550
15571TIP3    H268205   2.251   6.345  12.635 -1.5728 -2.1214 -1.3328
15572TIP3   OH268206   4.549   4.602   4.286  0.4151  0.3319 -0.1826
15572TIP3    H168207   4.469   4.597   4.235 -0.3587 -1.4502  1.1583
15572TIP3    H268208   4.522   4.640   4.370  1.1266  0.5395 -0.0417
15573TIP3   OH268209   2.939   4.023  15.724  0.2802 -0.1079  0.3807
15573TIP3    H168210   2.978   4.044  15.639  0.7569 -1.1042  0.3488
15573TIP3    H268211   2.921   3.929  15.720  0.4546 -0.1941  1.4404
15574TIP3   OH268212   1.899   6.050  15.494  0.1671  0.4127 -0.0818
15574TIP3    H168213   1.905   6.134  15.448 -0.6903  0.3480 -0.3285
15574TIP3    H268214   1.844   5.997  15.438  1.2106 -0.5292 -0.2304
15575TIP3   OH268215   2.255   2.130   5.079 -0.1462 -0.3632 -0.4729
15575TIP3    H168216   2.196   2.107   5.007 -1.1841 -4.0933  1.4459
15575TIP3    H268217   2.206   2.192   5.132 -0.9667 -0.7145 -0.8196
15576TIP3   OH268218   6.425   4.517   5.778  0.3203  0.1241  0.0961
15576TIP3    H168219   6.436   4.519   5.874 -0.0828 -0.3190  0.1545
15576TIP3    H268220   6.440   4.425   5.755  0.9239  0.3283 -0.3292
15577TIP3   OH268221   5.200   1.325  16.387  0.0460 -0.1370  0.6963
15577TIP3    H168222   5.189   1.321  16.292  0.1980 -0.6945  0.6974
15577TIP3    H268223   5.215   1.417  16.406  0.9699 -0.1461  0.0610
15578TIP3   OH268224   5.584   5.739  14.625  0.2821 -0.2842 -0.7119
15578TIP3    H168225   5.506   5.690  14.651 -0.6044  1.5031  0.0788
15578TIP3    H268226   5.596   5.716  14.533 -1.5988 -0.0549 -1.0428
15579TIP3   OH268227   2.451   1.380   1.551  0.4446 -0.2524  0.1392
15579TIP3    H168228   2.534   1.418   1.524  0.1791  0.6277  0.5491
15579TIP3    H268229   2.438   1.409   1.641 -0.0410 -0.8399  0.2685
15580TIP3   OH268230   5.833   6.373   4.302 -0.1590 -0.3084  0.1184
15580TIP3    H168231   5.757   6.318   4.319  0.6832 -2.5933 -3.0936
15580TIP3    H268232   5.907   6.313   4.298  1.0320  1.1961 -1.7662
15581TIP3   OH268233   2.710   2.125   6.546 -0.4718 -0.1110  0.7221
15581TIP3    H168234   2.656   2.069   6.601 -0.3839 -0.3761  0.5419
15581TIP3    H268235   2.747   2.065   6.480 -0.8439  0.2551  0.1729
15582TIP3   OH268236   0.225   1.425  13.797 -0.8371 -0.8853 -0.5006
15582TIP3    H168237   0.157   1.490  13.814 -1.5540 -1.5774 -0.6630
15582TIP3    H268238   0.307   1.468  13.820 -1.4040 -0.3182  0.4685
15583TIP3   OH268239   1.054   3.037  13.725 -0.2629  0.0152 -0.2376
15583TIP3    H168240   1.101   3.077  13.651 -0.0327  1.8724  0.8958
15583TIP3    H268241   1.118   3.036  13.796 -0.9704 -0.3604  0.4030
15584TIP3   OH268242   2.850   1.427   6.099 -0.3438  0.2215 -0.5742
15584TIP3    H168243   2.890   1.350   6.059 -0.9400 -0.4380  0.0943
15584TIP3    H268244   2.857   1.412   6.193  0.2707  1.3687 -0.4180
15585TIP3   OH268245   3.402   0.026  16.777  0.4816 -0.3779 -0.0477
15585TIP3    H168246   3.481   0.071  16.749 -0.2387  1.5778  0.9594
15585TIP3    H268247   3.338   0.041  16.708 -0.1270  1.2022  0.8395
15586TIP3   OH268248   1.412   4.213   1.628 -0.3713  0.6156  0.2950
15586TIP3    H168249   1.470   4.235   1.701  0.1984  0.5640 -0.1316
15586TIP3    H268250   1.469   4.168   1.566 -1.0852 -0.3032  0.2901
15587TIP3   OH268251   5.724   0.958  16.767 -0.2345  0.3920  0.0212
15587TIP3    H168252   5.771   0.878  16.743  1.1783  0.8604  1.2134
15587TIP3    H268253   5.631   0.933  16.761  0.1499 -0.7506 -1.5790
15588TIP3   OH268254   3.670   2.857   3.621  0.2284  0.1780 -0.7130
15588TIP3    H168255   3.638   2.853   3.531  0.7800  1.5768 -0.9840
15588TIP3    H268256   3.765   2.871   3.612  0.1003  1.6063  0.0668
15589TIP3   OH268257   6.349   2.368  14.036 -0.3078  0.2081  0.2916
15589TIP3    H168258   6.407   2.298  14.067 -2.0513 -1.9675 -1.1458
15589TIP3    H268259   6.403   2.421  13.978  0.6240 -0.9027  0.1219
15590TIP3   OH268260   2.264   6.343   0.205 -0.0905 -0.0916  0.2202
15590TIP3    H168261   2.254   6.260   0.252  0.1256  0.3268  1.0093
15590TIP3    H268262   2.178   6.357   0.164  0.5479 -1.8178 -1.7804
15591TIP3   OH268263   3.345   2.193  11.342 -0.1711 -0.4171  0.1729
15591TIP3    H168264   3.366   2.140  11.265  0.3315 -0.5657  0.4080
15591TIP3    H268265   3.358   2.133  11.416 -0.1829 -0.1363  0.4028
15592TIP3   OH268266   3.567   5.098   5.118 -0.3453 -0.3719  0.2467
15592TIP3    H168267   3.521   5.091   5.202 -0.5981  0.5230  0.1929
15592TIP3    H268268   3.507   5.061   5.054  0.1414 -1.7075  0.5576
15593TIP3   OH268269   2.001   6.255  16.963  0.7788  0.1222  0.1964
15593TIP3    H168270   1.971   6.166  16.946 -0.5414  0.5508  0.2040
15593TIP3    H268271   1.986   6.301  16.881  0.7013  0.5307  0.4364
15594TIP3   OH268272   4.400   4.870  15.647  0.5183 -0.2324  0.1505
15594TIP3    H168273   4.382   4.951  15.694  1.0608  0.3908 -0.7072
15594TIP3    H268274   4.320   4.852  15.598  1.1157  0.9171 -1.2934
15595TIP3   OH268275   3.667   6.816  14.492  0.3779  0.1284  0.1810
15595TIP3    H168276   3.731   6.820  14.564  0.7984 -1.2437 -0.0965
15595TIP3    H268277   3.695   6.886  14.433  0.4928  0.7656  0.9638
15596TIP3   OH268278   5.236   6.501   3.230  0.2591  0.7388  0.4558
15596TIP3    H168279   5.304   6.454   3.278  0.3719 -1.7180 -1.9925
15596TIP3    H268280   5.156   6.450   3.245 -0.1095  1.0550 -0.3700
15597TIP3   OH268281   3.453   5.641  14.251  0.1996  1.1042 -0.4311
15597TIP3    H168282   3.527   5.697  14.225  2.2220 -0.7640  1.1112
15597TIP3    H268283   3.470   5.621  14.343 -1.9523  0.1570 -0.2207
15598TIP3   OH268284   3.402   1.591   2.928  0.1825  0.4456 -0.0700
15598TIP3    H168285   3.430   1.658   2.865  1.9756 -0.6582 -0.4763
15598TIP3    H268286   3.484   1.552   2.959 -0.8018 -0.8203  0.9841
15599TIP3   OH268287   4.609   5.603  14.241 -0.0651  0.1530 -0.3587
15599TIP3    H168288   4.677   5.650  14.192  0.7122 -1.4325 -0.8368
15599TIP3    H268289   4.654   5.528  14.278 -1.2116 -0.0095  0.7205
15600TIP3   OH268290   0.076   1.989   5.678 -0.1712  0.0388  0.4589
15600TIP3    H168291   0.150   1.935   5.652  0.9540  2.5889 -1.9220
15600TIP3    H268292  -0.001   1.946   5.641  0.2826 -1.7934  1.6194
15601TIP3   OH268293   4.882   5.076  12.398  0.2662 -0.1112  0.1173
15601TIP3    H168294   4.882   5.171  12.385  0.7679 -0.2000 -0.5715
15601TIP3    H268295   4.817   5.044  12.335  0.1771 -0.2328  0.2729
15602TIP3   OH268296   3.085   3.414  13.032 -0.5277 -0.1811  0.2259
15602TIP3    H168297   2.994   3.429  13.008 -0.5485 -1.4178 -0.4887
15602TIP3    H268298   3.083   3.338  13.090  0.1514 -0.8895 -0.6687
15603TIP3   OH268299   1.084   0.256   0.104 -0.3831 -0.1730  0.2246
15603TIP3    H168300   1.038   0.215   0.031 -2.4575  1.7025  0.4176
15603TIP3    H268301   1.070   0.196   0.177  0.3524 -1.2619 -0.5052
15604TIP3   OH268302   2.720   2.109   1.524 -0.1213  0.2700 -0.1060
15604TIP3    H168303   2.717   2.073   1.613  0.8983 -0.2971 -0.2889
15604TIP3    H268304   2.741   2.034   1.468  0.5410  0.8569 -0.6596
15605TIP3   OH268305   0.499   5.722  16.361  0.0784  0.3662  0.2281
15605TIP3    H168306   0.428   5.716  16.425  0.4205  2.0946  0.8034
15605TIP3    H268307   0.465   5.679  16.283 -1.3639  0.5944  0.7170
15606TIP3   OH268308   2.758   5.749  12.019  0.0358  0.0889 -0.0240
15606TIP3    H168309   2.770   5.786  12.107  0.9410  0.1055 -0.1472
15606TIP3    H268310   2.768   5.655  12.032 -0.6526  0.0191  0.0230
15607TIP3   OH268311   6.256   3.343   3.329  0.1212  0.2041  0.5282
15607TIP3    H168312   6.200   3.268   3.347  1.3989 -0.9416 -0.1905
15607TIP3    H268313   6.230   3.372   3.242  1.1499 -0.8043 -0.1259
15608TIP3   OH268314   1.848   0.107   3.316  0.5799  0.6122 -0.2765
15608TIP3    H168315   1.768   0.073   3.356  0.8406 -1.1094 -1.1651
15608TIP3    H268316   1.819   0.143   3.232  0.9254 -1.4285 -1.3113
15609TIP3   OH268317   4.341   5.496  14.247 -0.1394 -0.0981  0.3864
15609TIP3    H168318   4.300   5.562  14.302 -0.6287 -0.5336  0.5420
15609TIP3    H268319   4.430   5.529  14.231 -0.6501  1.0077 -0.2253
15610TIP3   OH268320   3.217   1.224  13.526  0.0071 -0.1625 -0.0154
15610TIP3    H168321   3.210   1.319  13.517  0.3287 -0.0670  0.6931
15610TIP3    H268322   3.194   1.190  13.440 -0.3736  0.5458 -0.1967
15611TIP3   OH268323   3.196   1.531   5.737 -0.1929 -0.2082 -0.7070
15611TIP3    H168324   3.275   1.580   5.715  0.4324 -0.6432  0.5406
15611TIP3    H268325   3.193   1.532   5.832 -0.7334 -1.6900 -0.6962
15612TIP3   OH268326   5.412   2.473  16.062 -0.5794 -0.2004 -0.2812
15612TIP3    H168327   5.320   2.453  16.045 -0.1303 -0.4811 -2.5545
15612TIP3    H268328   5.410   2.563  16.096 -1.7735 -0.6282  0.8397
15613TIP3   OH268329   5.742   0.067  16.807 -0.5071 -0.8911 -0.3177
15613TIP3    H168330   5.743  -0.029  16.800  0.8415 -0.8984 -0.1070
15613TIP3    H268331   5.809   0.087  16.871  0.5006  0.3026 -1.7033
15614TIP3   OH268332   1.542   2.495  15.164  0.0904  1.0300 -0.2264
15614TIP3    H168333   1.499   2.480  15.080 -1.5055 -0.6967  0.8565
15614TIP3    H268334   1.622   2.443  15.161 -0.4489  0.2071 -0.3114
15615TIP3   OH268335   1.385   0.011  12.871 -0.0954  0.6682  0.0234
15615TIP3    H168336   1.302   0.024  12.916 -0.0321 -0.5371  0.5099
15615TIP3    H268337   1.448   0.062  12.922  0.0404 -0.9486  1.5313
15616TIP3   OH268338   4.867   3.865  11.234 -0.4513  0.0486  0.0760
15616TIP3    H168339   4.875   3.952  11.195  1.0654 -0.9141 -1.8461
15616TIP3    H268340   4.786   3.869  11.285 -0.9835  2.2363 -0.8772
15617TIP3   OH268341   5.769   2.634   1.673 -0.2695 -0.3018  0.6183
15617TIP3    H168342   5.752   2.622   1.766  0.3669 -1.2242  0.6201
15617TIP3    H268343   5.854   2.677   1.668 -0.3856 -0.0892  0.4739
15618TIP3   OH268344   1.587   0.265   3.852  0.6414  0.0508 -0.6550
15618TIP3    H168345   1.494   0.278   3.834  0.2073 -0.0326  1.4024
15618TIP3    H268346   1.627   0.349   3.830 -0.0948  0.4654 -0.4319
15619TIP3   OH268347   1.430   3.627  16.977  0.1077 -0.2216 -0.0287
15619TIP3    H168348   1.441   3.566  16.904 -0.7869  0.2319 -0.5448
15619TIP3    H268349   1.343   3.609  17.012 -0.2309  0.8672 -0.2876
15620TIP3   OH268350   3.243   2.369   4.554 -0.2736 -0.2596 -0.4384
15620TIP3    H168351   3.149   2.353   4.563 -0.3970 -0.1527 -1.4829
15620TIP3    H268352   3.251   2.464   4.549 -0.0868 -0.2573 -0.0872
15621TIP3   OH268353   3.559   3.557   4.587 -0.0715  0.3474 -0.0539
15621TIP3    H168354   3.635   3.601   4.549  0.2126 -0.2153 -0.1379
15621TIP3    H268355   3.595   3.485   4.638 -0.5323  0.2623  0.1601
15622TIP3   OH268356   1.979   5.446  15.277  0.2031 -0.6699  0.4905
15622TIP3    H168357   1.991   5.540  15.290 -4.3053  0.3574 -1.6617
15622TIP3    H268358   1.969   5.410  15.365 -0.3855  1.2597  1.2298
15623TIP3   OH268359   0.341   3.204  14.302  0.4070 -0.4155 -0.2198
15623TIP3    H168360   0.283   3.269  14.263 -1.3021 -0.6662  1.8049
15623TIP3    H268361   0.302   3.120  14.277  1.4797 -0.6312 -1.1746
15624TIP3   OH268362   4.979   2.826   5.449 -0.2671 -0.1527  0.0404
15624TIP3    H168363   4.915   2.859   5.511 -0.6163  0.6251 -0.7274
15624TIP3    H268364   5.031   2.902   5.425  0.0078 -0.4901 -0.4481
15625TIP3   OH268365   2.742   4.791   2.875  0.6420 -0.3300 -0.0339
15625TIP3    H168366   2.786   4.794   2.960 -0.8907 -0.5350  0.7762
15625TIP3    H268367   2.813   4.790   2.811  1.7972  1.0530  1.2073
15626TIP3   OH268368   0.608   1.869  15.124  0.0193  0.2645 -0.0465
15626TIP3    H168369   0.538   1.805  15.118 -0.3160  0.7594 -1.4048
15626TIP3    H268370   0.688   1.817  15.132 -0.2867 -0.3217 -0.7814
15627TIP3   OH268371   6.033   5.548  13.567  0.1278  0.9420  0.3131
15627TIP3    H168372   6.052   5.478  13.505 -0.8909  2.0105 -1.2285
15627TIP3    H268373   6.079   5.522  13.647  3.3414  0.6656 -1.5512
15628TIP3   OH268374   1.301   6.277  14.593 -0.5726  0.5862 -0.7314
15628TIP3    H168375   1.274   6.352  14.647  1.1683  1.6442 -1.2907
15628TIP3    H268376   1.275   6.301  14.504 -1.6829 -0.3090 -0.6642
15629TIP3   OH268377   3.604   2.209   1.574  0.2731 -0.6507 -0.3564
15629TIP3    H168378   3.636   2.186   1.661  0.1826 -0.3025 -0.2285
15629TIP3    H268379   3.513   2.235   1.587  0.4446  0.0266 -0.4458
15630TIP3   OH268380   3.837   3.175  15.310  0.0257 -0.4973 -0.1506
15630TIP3    H168381   3.920   3.137  15.339 -0.5277 -0.9966  0.8117
15630TIP3    H268382   3.777   3.101  15.304 -0.4735 -0.0742 -0.3942
15631TIP3   OH268383   4.968   4.054  16.361 -0.0159  0.3349 -0.1888
15631TIP3    H168384   5.050   4.005  16.371  0.9377  1.4572 -2.3306
15631TIP3    H268385   4.989   4.125  16.300 -2.6088  0.5723 -0.8697
15632TIP3   OH268386   1.002   5.201   0.978 -0.2455 -0.1537 -0.2266
15632TIP3    H168387   0.991   5.127   1.039 -0.4354 -0.1355 -0.2379
15632TIP3    H268388   1.057   5.166   0.908 -0.2441 -0.2537 -0.1765
15633TIP3   OH268389   3.791   4.457  16.074  0.8862  0.0905  0.4278
15633TIP3    H168390   3.832   4.376  16.102  0.7907  0.3800  1.4158
15633TIP3    H268391   3.698   4.436  16.065  1.4772 -1.1571 -3.9725
15634TIP3   OH268392   4.575   0.112   6.260 -0.3158 -0.6434  0.0332
15634TIP3    H168393   4.605   0.021   6.257 -0.2468 -0.6287  0.2439
15634TIP3    H268394   4.655   0.163   6.268 -0.4532 -0.6685  1.8197
15635TIP3   OH268395   3.373   6.368  10.310  0.4558  0.0407 -0.4497
15635TIP3    H168396   3.363   6.281  10.271 -1.3920  0.4961 -1.0346
15635TIP3    H268397   3.464   6.370  10.341  0.7080 -1.8541 -1.0032
15636TIP3   OH268398   4.852   5.577  11.846  0.3698  0.1724 -0.3553
15636TIP3    H168399   4.863   5.499  11.901 -0.6328  0.1765 -0.1400
15636TIP3    H268400   4.793   5.549  11.776  1.5366  0.2083 -1.3669
15637TIP3   OH268401   4.773   4.328  15.395  0.1819 -0.3515  0.3145
15637TIP3    H168402   4.769   4.271  15.318 -0.2914 -0.4077  0.3764
15637TIP3    H268403   4.777   4.267  15.469 -0.4882 -0.3126  0.3903
15638TIP3   OH268404   1.222   3.753   3.043 -0.1034 -0.2282  0.2836
15638TIP3    H168405   1.298   3.695   3.038  0.4548  0.4371  1.0359
15638TIP3    H268406   1.157   3.704   3.093  0.4282 -0.1361  1.0649
15639TIP3   OH268407   2.106   2.807  14.842  0.1589 -0.2092  0.4730
15639TIP3    H168408   2.185   2.850  14.874 -0.6569  0.6458  1.3652
15639TIP3    H268409   2.121   2.796  14.748  2.2603 -2.0808  1.0021
15640TIP3   OH268410   4.539   0.651   4.416 -0.0886 -0.2058  0.2729
15640TIP3    H168411   4.466   0.599   4.450  1.3210 -1.5691  1.2842
15640TIP3    H268412   4.541   0.729   4.471  1.1984 -1.6728  2.3715
15641TIP3   OH268413   6.438   5.414  11.637  0.3177 -0.0512  0.1001
15641TIP3    H168414   6.430   5.320  11.620  0.6809 -0.2132  0.8055
15641TIP3    H268415   6.365   5.454  11.590 -0.4118 -0.7799  0.6169
15642TIP3   OH268416   4.296   3.541   6.826 -0.4684 -0.5649 -0.3277
15642TIP3    H168417   4.383   3.558   6.792  1.4653 -4.3909  2.3915
15642TIP3    H268418   4.271   3.457   6.788 -1.9004 -0.7352  0.9474
15643TIP3   OH268419   5.856   4.244   5.151  0.5623  0.6436 -0.0985
15643TIP3    H168420   5.822   4.157   5.172  2.8449  0.1712  1.9322
15643TIP3    H268421   5.835   4.297   5.227  1.3060  1.2192 -0.2879
15644TIP3   OH268422   1.352   0.591   1.311  0.1198  0.0838  0.6276
15644TIP3    H168423   1.397   0.598   1.227 -1.3437 -0.5005 -0.2229
15644TIP3    H268424   1.342   0.497   1.326  3.4719  0.0358  3.1870
15645TIP3   OH268425   0.806   1.882   2.472 -0.0077  0.4748  0.2498
15645TIP3    H168426   0.805   1.956   2.533 -0.6836  1.4548 -0.9220
15645TIP3    H268427   0.720   1.842   2.481  0.4474 -0.3233  1.0644
15646TIP3   OH268428   4.890   1.867  13.250  0.3500 -0.7830  0.7068
15646TIP3    H168429   4.899   1.881  13.155  1.2472 -0.5692  0.8258
15646TIP3    H268430   4.856   1.778  13.257  0.1002 -0.7354  0.1744
15647TIP3   OH268431   4.422   5.281  12.444 -0.2870 -0.7244  0.0746
15647TIP3    H168432   4.423   5.364  12.398 -1.9857 -1.2296 -0.9160
15647TIP3    H268433   4.412   5.305  12.537  0.0542  0.1968 -0.1268
15648TIP3   OH268434   3.074   0.319   3.478  0.2973  0.3560  0.2766
15648TIP3    H168435   2.985   0.338   3.447  1.4811  2.8556 -1.7677
15648TIP3    H268436   3.080   0.366   3.561 -0.8564 -1.3031  1.3291
15649TIP3   OH268437   0.999   0.655  10.785 -0.1220  0.0100  0.0436
15649TIP3    H168438   0.930   0.637  10.722 -0.0287 -2.2103  0.5244
15649TIP3    H268439   1.019   0.570  10.824  2.1479  0.7825  0.6765
15650TIP3   OH268440   4.080   4.995   0.279 -0.5617  0.3709 -0.5274
15650TIP3    H168441   4.058   4.917   0.329 -3.0666 -0.1197 -2.2818
15650TIP3    H268442   4.139   4.964   0.210  0.8091  0.5884  0.5241
15651TIP3   OH268443   1.207   3.980   1.947 -0.0093 -0.2015  0.0399
15651TIP3    H168444   1.205   4.061   1.997 -1.2629  0.0243 -0.3517
15651TIP3    H268445   1.126   3.934   1.972 -0.7744  0.0230 -1.9107
15652TIP3   OH268446   0.125   3.679   5.158  0.6160  0.4616  0.1762
15652TIP3    H168447   0.143   3.754   5.101 -0.5829  0.2776 -0.4421
15652TIP3    H268448   0.050   3.706   5.211  0.3336 -0.2038  0.1205
15653TIP3   OH268449   3.937   0.153  16.284 -0.0577  0.2292  0.7061
15653TIP3    H168450   3.973   0.232  16.324 -0.9084  0.4807  0.9994
15653TIP3    H268451   3.842   0.164  16.292 -0.1690 -1.3254  1.7569
15654TIP3   OH268452   1.228   6.077  15.750  0.2581 -0.4695 -0.6221
15654TIP3    H168453   1.183   6.025  15.817  1.0884 -2.9100 -1.9223
15654TIP3    H268454   1.176   6.158  15.744 -2.0798 -1.8651  0.1943
15655TIP3   OH268455   4.533   6.304  15.800  0.2172 -0.2901 -0.0839
15655TIP3    H168456   4.626   6.305  15.777  0.4261  0.9003  0.7901
15655TIP3    H268457   4.500   6.223  15.760  1.8342 -1.2240  0.4261
15656TIP3   OH268458   3.766   6.583  17.288  0.2394 -0.0946 -0.0580
15656TIP3    H168459   3.695   6.642  17.313  0.7584 -0.0666  1.4401
15656TIP3    H268460   3.722   6.502  17.264 -0.2724 -0.3421  1.6400
15657TIP3   OH268461   4.900   5.369  16.356 -0.0402 -0.5936  0.0775
15657TIP3    H168462   4.893   5.362  16.261  1.6845  3.4446 -0.4311
15657TIP3    H268463   4.986   5.407  16.372 -1.7093  2.1821  3.0224
15658TIP3   OH268464   1.812   4.256   0.848  0.2222 -0.4168  0.5480
15658TIP3    H168465   1.768   4.173   0.832 -0.0077 -0.5578  1.8436
15658TIP3    H268466   1.791   4.277   0.939  3.1882 -0.7154  1.3537
15659TIP3   OH268467   1.278   2.122  10.583 -0.0934 -0.0727 -0.0837
15659TIP3    H168468   1.323   2.057  10.529 -0.3320 -0.0629 -0.3011
15659TIP3    H268469   1.336   2.137  10.657  0.8725  0.9062 -1.0208
15660TIP3   OH268470   3.893   5.591   4.239 -0.7224 -0.2031 -0.5509
15660TIP3    H168471   3.884   5.589   4.144  1.3397  2.0363 -0.8656
15660TIP3    H268472   3.985   5.568   4.254 -0.6608  0.8662  0.7804
15661TIP3   OH268473   1.931   4.088  15.747  0.1552  0.1310  0.4846
15661TIP3    H168474   1.978   4.122  15.823  2.1676 -0.0111 -0.6525
15661TIP3    H268475   1.972   4.002  15.730 -2.4881 -1.3282  1.2098
15662TIP3   OH268476   1.757   0.673  13.359  0.5513 -0.5562  0.6312
15662TIP3    H168477   1.672   0.661  13.402 -0.2119 -1.8744 -1.1331
15662TIP3    H268478   1.811   0.600  13.391  0.8820  0.0346  1.4262
15663TIP3   OH268479   6.092   3.055   6.352  0.1904 -0.3212  0.1914
15663TIP3    H168480   6.095   3.090   6.442 -2.4471 -1.0904  0.6040
15663TIP3    H268481   6.091   2.960   6.363 -0.1109 -0.4204 -0.6764
15664TIP3   OH268482   4.274   2.718   1.225 -0.0921 -0.4970 -0.1029
15664TIP3    H168483   4.326   2.782   1.176  0.9383 -0.3451  1.1447
15664TIP3    H268484   4.339   2.664   1.269 -0.9759 -2.1018 -0.7425
15665TIP3   OH268485   4.599   2.693  13.264  0.9358  0.6944  0.2548
15665TIP3    H168486   4.649   2.766  13.300  0.5545  1.0212  0.1269
15665TIP3    H268487   4.552   2.731  13.189 -0.9470  0.8457  1.4804
15666TIP3   OH268488   4.087   3.355  16.100  0.6290  0.2684  0.2572
15666TIP3    H168489   4.044   3.280  16.142  2.7771 -1.2190 -0.1107
15666TIP3    H268490   4.085   3.424  16.166 -3.6309  0.7919 -0.2623
15667TIP3   OH268491   6.662   1.081  12.601 -0.3128 -0.0530 -0.8075
15667TIP3    H168492   6.619   1.066  12.517  1.3897 -1.7948 -1.4243
15667TIP3    H268493   6.747   1.037  12.592 -0.0771 -0.2055  1.8080
15668TIP3   OH268494   5.451   3.009   0.367 -0.1810  0.0190  0.1857
15668TIP3    H168495   5.399   2.944   0.321  0.5731  0.5768 -1.4885
15668TIP3    H268496   5.540   2.972   0.367 -0.4284 -0.6420  2.4745
15669TIP3   OH268497   2.745   3.016  16.981  0.0450  0.1498  0.1252
15669TIP3    H168498   2.743   2.978  17.069  0.9644 -2.1354 -0.7902
15669TIP3    H268499   2.819   2.972  16.938 -0.9761  0.5380 -2.0896
15670TIP3   OH268500   2.491   2.633  13.644  0.3694 -0.4497 -0.2559
15670TIP3    H168501   2.495   2.722  13.678  2.0679  0.7449 -3.3329
15670TIP3    H268502   2.509   2.578  13.720  0.0229  1.8476  1.5656
15671TIP3   OH268503   4.988   3.006   5.667 -0.7448  0.0616  0.5206
15671TIP3    H168504   5.003   3.083   5.612 -0.4386 -0.5751 -0.2974
15671TIP3    H268505   4.953   3.042   5.749 -0.5317  1.0744  0.1794
15672TIP3   OH268506   1.899   6.535   3.395  0.2351  0.1885 -0.4417
15672TIP3    H168507   1.907   6.553   3.301 -1.6293 -0.4415 -0.7434
15672TIP3    H268508   1.869   6.618   3.432 -0.6135 -0.0299 -0.6422
15673TIP3   OH268509   2.352   4.488   1.807  0.0974 -0.2019  0.0085
15673TIP3    H168510   2.384   4.472   1.895 -0.8586 -0.4042  0.3193
15673TIP3    H268511   2.262   4.519   1.819  0.7124  1.9803 -0.7600
15674TIP3   OH268512   3.488   4.052   4.794  0.3157 -0.2253  0.6318
15674TIP3    H168513   3.437   4.116   4.745 -0.4057 -0.9321  0.4502
15674TIP3    H268514   3.423   3.994   4.834  0.9141 -0.0521  1.9046
15675TIP3   OH268515   3.785   1.076  16.844 -0.5186  0.0700 -0.3556
15675TIP3    H168516   3.753   1.112  16.761 -0.9667 -2.2269 -1.2162
15675TIP3    H268517   3.872   1.043  16.824 -0.4753 -0.1472  0.1953
15676TIP3   OH268518   6.481   0.930  10.743  0.8075  0.0221  0.3765
15676TIP3    H168519   6.449   0.922  10.833  0.5386 -0.6784  0.2250
15676TIP3    H268520   6.404   0.953  10.692  1.1235  1.2740  0.4441
15677TIP3   OH268521   5.822   5.671   6.424 -0.2855  0.5741 -0.4253
15677TIP3    H168522   5.786   5.715   6.501 -1.4523  2.2535 -1.8804
15677TIP3    H268523   5.883   5.735   6.386 -1.7251  0.8596 -2.3567
15678TIP3   OH268524   6.109   6.455  12.870 -0.8514 -0.3094 -0.0318
15678TIP3    H168525   6.124   6.377  12.923 -1.3323 -0.6222 -0.3569
15678TIP3    H268526   6.182   6.513  12.893 -1.7349  0.0827  1.9226
15679TIP3   OH268527   5.803   1.572  16.992 -1.1469 -0.3039  0.1336
15679TIP3    H168528   5.790   1.581  16.898  1.4194 -0.2492 -0.2593
15679TIP3    H268529   5.883   1.520  17.000 -0.5953  0.8390  2.2745
15680TIP3   OH268530   1.498   6.037  12.472 -0.1777 -0.0231 -0.0882
15680TIP3    H168531   1.546   6.026  12.554 -1.0734 -0.4406  0.3842
15680TIP3    H268532   1.551   6.100  12.422  1.4835 -1.3543 -0.0735
15681TIP3   OH268533   3.714   3.291  10.644  0.4857 -0.0398  0.2442
15681TIP3    H168534   3.670   3.229  10.586  0.2861 -1.1499  1.5558
15681TIP3    H268535   3.647   3.358  10.662  0.0118 -0.5820  0.5203
15682TIP3   OH268536   4.603   1.342  15.747 -0.1014  0.2817  0.0238
15682TIP3    H168537   4.638   1.273  15.804 -1.1742  0.3275  0.7414
15682TIP3    H268538   4.568   1.295  15.672  0.2500  0.1318 -0.0483
15683TIP3   OH268539   4.100   2.516  10.894 -0.3396 -0.4398  0.1084
15683TIP3    H168540   4.171   2.460  10.925 -1.8388 -1.7243  1.3377
15683TIP3    H268541   4.041   2.456  10.848 -1.4661  0.2825  0.5885
15684TIP3   OH268542   2.979   2.257   5.703  0.7364  0.2157 -0.1891
15684TIP3    H168543   2.900   2.226   5.658  0.9674 -0.6538  0.0012
15684TIP3    H268544   2.982   2.350   5.683  0.9676 -0.1891 -2.2142
15685TIP3   OH268545   1.096   0.881  11.268 -0.1109  0.1079 -0.0671
15685TIP3    H168546   1.061   0.809  11.216  0.1852  0.8294 -1.2968
15685TIP3    H268547   1.188   0.858  11.281 -0.6212 -1.0048  1.8006
15686TIP3   OH268548   1.150   4.725   1.936 -0.4663  0.2727  0.0210
15686TIP3    H168549   1.087   4.764   1.875 -0.2892 -0.5107 -0.6844
15686TIP3    H268550   1.106   4.647   1.969  0.0793 -0.2268 -0.4012
15687TIP3   OH268551   0.880   3.215  14.284  0.3876 -0.0468 -0.6255
15687TIP3    H168552   0.880   3.169  14.367  2.2170 -1.1874 -1.2106
15687TIP3    H268553   0.973   3.228  14.264 -0.0535  1.7930 -1.6298
15688TIP3   OH268554   6.111   6.628  11.594  0.6525  0.6533  0.2308
15688TIP3    H168555   6.194   6.599  11.631  0.4022  1.7291  1.7063
15688TIP3    H268556   6.105   6.721  11.619  0.3996  1.3845 -2.4554
15689TIP3   OH268557   5.022   5.725  15.410 -0.1577 -0.0380 -0.4701
15689TIP3    H168558   5.074   5.789  15.458  2.3291 -1.3963 -1.2757
15689TIP3    H268559   4.955   5.777  15.365 -0.5972  1.5615  1.9540
15690TIP3   OH268560   5.728   2.879   2.234 -0.3085  0.1134  0.1173
15690TIP3    H168561   5.740   2.854   2.325 -0.0544 -1.2082 -0.2636
15690TIP3    H268562   5.650   2.830   2.206 -0.1385  0.1872 -0.4910
15691TIP3   OH268563   6.505   4.279   5.704  0.0642 -0.2205 -0.3355
15691TIP3    H168564   6.440   4.209   5.713  1.1636 -1.1804  0.2941
15691TIP3    H268565   6.533   4.274   5.613 -0.1309 -0.3565 -0.3906
15692TIP3   OH268566   2.541   2.248  11.355 -0.0461  0.2474  0.7702
15692TIP3    H168567   2.491   2.202  11.423  0.6866 -1.4086  0.2054
15692TIP3    H268568   2.496   2.229  11.274  1.8357 -1.8164  0.1640
15693TIP3   OH268569   0.711   4.395   2.835 -0.3743  0.2067  0.5980
15693TIP3    H168570   0.782   4.453   2.808  0.4853 -1.1697 -0.1363
15693TIP3    H268571   0.649   4.397   2.762 -0.1431 -0.1178  0.3911
15694TIP3   OH268572   3.877   0.681   1.811  0.3045 -0.8092 -0.1776
15694TIP3    H168573   3.840   0.712   1.894 -0.5980  1.6825 -1.4360
15694TIP3    H268574   3.835   0.597   1.795 -2.0782  0.2626  0.2572
15695TIP3   OH268575   1.569   4.164   0.588  0.4656 -0.1637  1.1336
15695TIP3    H168576   1.502   4.102   0.617 -1.2009  0.4877 -1.1397
15695TIP3    H268577   1.650   4.131   0.625 -0.3597 -3.8078 -0.0595
15696TIP3   OH268578   3.420   6.483  16.531  0.3131  0.3196  0.7566
15696TIP3    H168579   3.481   6.411  16.541 -2.2824 -2.6792 -3.2153
15696TIP3    H268580   3.452   6.531  16.454 -1.1786 -0.1246 -0.1622
15697TIP3   OH268581   6.021   3.426  15.716 -0.0375  0.1464  0.1827
15697TIP3    H168582   6.079   3.392  15.648 -1.4268  1.3948 -1.6759
15697TIP3    H268583   5.956   3.357  15.729 -0.8333  0.6445 -1.0864
15698TIP3   OH268584   1.757   2.347   1.518  0.0620  0.0186 -0.1737
15698TIP3    H168585   1.802   2.352   1.602 -0.0457 -0.5038 -0.0854
15698TIP3    H268586   1.720   2.259   1.515  1.7439 -0.6610 -1.6352
15699TIP3   OH268587   3.627   1.557  11.472 -0.6836 -0.2871 -0.2045
15699TIP3    H168588   3.684   1.607  11.414  1.1187  0.2204  1.9580
15699TIP3    H268589   3.542   1.602  11.467 -0.1329  0.6495 -1.2913
15700TIP3   OH268590   3.450   1.683  13.714  0.0562  0.3721 -0.0057
15700TIP3    H168591   3.472   1.631  13.791 -1.7915  1.1920  1.1077
15700TIP3    H268592   3.433   1.619  13.646 -1.8276 -0.5046  1.2438
15701TIP3   OH268593   2.861   5.208  13.482  0.1830 -1.0035  0.5548
15701TIP3    H168594   2.867   5.178  13.391 -0.8733 -1.3498  0.5844
15701TIP3    H268595   2.871   5.303  13.476 -2.4674 -0.7317 -0.2482
15702TIP3   OH268596   6.229   2.206   5.393  0.8508 -0.1176  0.1468
15702TIP3    H168597   6.135   2.218   5.407  0.9357  0.5888  0.0986
15702TIP3    H268598   6.239   2.205   5.298  1.1603  1.9556  0.1330
15703TIP3   OH268599   4.054   4.036   4.407  0.2655  0.8688  0.0782
15703TIP3    H168600   4.010   4.049   4.323  1.8669  0.0540 -0.9210
15703TIP3    H268601   4.055   4.123   4.448 -0.2584  1.3343 -0.8963
15704TIP3   OH268602   0.113   5.950   2.433  0.0281 -0.4978  0.0491
15704TIP3    H168603   0.071   5.872   2.470 -1.2799  1.4066  2.8188
15704TIP3    H268604   0.130   6.006   2.509  0.8980  1.9458 -1.8665
15705TIP3   OH268605   5.125   1.472   3.422 -0.4141 -0.0846 -0.4246
15705TIP3    H168606   5.153   1.384   3.396  1.7100 -0.8332  3.8587
15705TIP3    H268607   5.207   1.521   3.432 -1.4166  1.5220  0.0728
15706TIP3   OH268608   1.308   0.787   6.694 -0.1943  0.0797  0.1087
15706TIP3    H168609   1.383   0.756   6.744 -0.2058  0.4515  0.3581
15706TIP3    H268610   1.273   0.708   6.651  0.1235 -0.1508  0.2736
15707TIP3   OH268611   3.071   4.875   2.552  0.1319  0.2255  0.7576
15707TIP3    H168612   3.030   4.805   2.603  0.1563  1.1821  2.1367
15707TIP3    H268613   3.142   4.832   2.504 -0.2570 -0.8069  1.0888
15708TIP3   OH268614   6.572   4.031  11.336 -0.3546  0.0185  0.0803
15708TIP3    H168615   6.496   3.980  11.307  0.4030 -0.6743 -0.7284
15708TIP3    H268616   6.643   3.967  11.342 -0.1998  0.3880  2.3337
15709TIP3   OH268617   1.828   3.350  15.997 -0.2306 -0.1276 -0.5412
15709TIP3    H168618   1.866   3.362  15.911  1.8223 -1.0991  0.1957
15709TIP3    H268619   1.835   3.256  16.013  1.4842  0.3287  1.5927
15710TIP3   OH268620   0.929   3.799   3.783  0.1777 -0.5609 -0.0252
15710TIP3    H168621   0.934   3.878   3.730  0.4075 -0.5210  0.0540
15710TIP3    H268622   0.843   3.803   3.825 -0.2485 -0.8932 -0.8571
15711TIP3   OH268623   6.105   5.689   0.729  0.5301 -0.3580 -0.3806
15711TIP3    H168624   6.110   5.742   0.809 -0.5422  0.1106 -0.6123
15711TIP3    H268625   6.103   5.753   0.658  1.7146 -0.7824 -0.7969
15712TIP3   OH268626   6.737   2.098  16.698  0.3287 -0.0146 -0.0061
15712TIP3    H168627   6.676   2.138  16.760  0.0206  1.7141 -1.3749
15712TIP3    H268628   6.803   2.166  16.683  0.7521 -0.6559 -1.0639
15713TIP3   OH268629   4.718   5.000   5.958 -0.5756  0.1999 -0.2746
15713TIP3    H168630   4.735   4.976   5.867 -1.7975  3.3763 -1.3843
15713TIP3    H268631   4.673   4.924   5.995 -0.1990 -1.0599 -2.3545
15714TIP3   OH268632   5.413   3.931  15.951  0.1464  0.4538  0.5231
15714TIP3    H168633   5.409   3.836  15.939  2.8344  0.2204  1.0135
15714TIP3    H268634   5.403   3.967  15.863 -1.8498 -0.2307  0.4571
15715TIP3   OH268635   4.714   6.068  14.642  0.0211 -0.2598  0.2533
15715TIP3    H168636   4.723   5.990  14.586 -1.8126 -0.4466  0.1778
15715TIP3    H268637   4.702   6.033  14.730 -1.3062 -0.0958  0.1496
15716TIP3   OH268638   1.016   6.806  16.062 -0.0719 -0.1570  0.1588
15716TIP3    H168639   0.978   6.789  16.149 -1.3973  2.3198  0.1013
15716TIP3    H268640   1.107   6.779  16.071 -0.5503 -1.2870  1.8940
15717TIP3   OH268641   3.714   2.102   0.988  0.0765  0.0752 -0.3447
15717TIP3    H168642   3.655   2.151   0.930  0.3651 -0.5549 -1.1817
15717TIP3    H268643   3.661   2.086   1.066 -0.5921  0.2378 -0.7492
15718TIP3   OH268644   5.576   3.686  10.274  0.3449 -0.0110 -0.5209
15718TIP3    H168645   5.491   3.690  10.317  0.4359  0.4912 -0.3810
15718TIP3    H268646   5.581   3.767  10.222  0.3511 -0.4801 -1.2573
15719TIP3   OH268647   6.768   1.316  12.702 -0.7078  0.2795 -0.1878
15719TIP3    H168648   6.746   1.247  12.639 -0.8255  0.4750 -0.3616
15719TIP3    H268649   6.848   1.285  12.744 -0.5269  0.2319 -0.5625
15720TIP3   OH268650   4.001   6.270   2.887 -0.5593  0.0271  0.2458
15720TIP3    H168651   3.954   6.297   2.808  1.8781  2.8186 -0.3273
15720TIP3    H268652   3.944   6.297   2.959 -0.9575  1.1181 -0.4675
15721TIP3   OH268653   6.688   4.575   1.579  0.6686  0.2046  0.1691
15721TIP3    H168654   6.618   4.552   1.640  0.8262 -1.4038 -0.2281
15721TIP3    H268655   6.692   4.670   1.582 -1.0153  0.2760  0.7752
15722TIP3   OH268656   3.123   3.361  13.701  0.2389  0.0087 -0.2506
15722TIP3    H168657   3.058   3.431  13.707  0.2568 -0.0394  0.6519
15722TIP3    H268658   3.078   3.283  13.735  0.9609  0.1222  1.0038
15723TIP3   OH268659   0.484   4.923  16.765 -0.3555 -0.3236 -0.1063
15723TIP3    H168660   0.402   4.889  16.800 -0.3950 -0.7493 -0.6040
15723TIP3    H268661   0.462   4.959  16.680  0.5432 -3.5395 -1.7910
15724TIP3   OH268662   3.117   0.766   4.752  0.8853  0.6014  0.2242
15724TIP3    H168663   3.158   0.839   4.705  0.5394  0.8968  0.3818
15724TIP3    H268664   3.174   0.692   4.733  1.0516  0.8346 -0.2198
15725TIP3   OH268665   3.833   0.154   0.353  0.1638  0.9092  0.1821
15725TIP3    H168666   3.825   0.081   0.415 -1.5306  0.1166 -0.9229
15725TIP3    H268667   3.756   0.208   0.371 -0.0396  0.9613 -0.8593
15726TIP3   OH268668   0.166   6.440   4.885 -0.1005 -0.0166  0.1637
15726TIP3    H168669   0.231   6.424   4.818 -0.5403  0.7890 -0.4695
15726TIP3    H268670   0.084   6.453   4.837 -0.7323 -1.0537  0.9446
15727TIP3   OH268671   1.545   2.793  16.448 -0.0241  0.5838  0.3335
15727TIP3    H168672   1.597   2.868  16.478  1.5345  0.1177 -1.1345
15727TIP3    H268673   1.492   2.827  16.377 -0.3823  0.6255  0.6196
15728TIP3   OH268674   0.341   6.361  12.862  0.2367 -0.1020 -0.0893
15728TIP3    H168675   0.320   6.317  12.944  1.2434 -1.0984 -0.3552
15728TIP3    H268676   0.325   6.454  12.880  2.7541 -0.0323  1.9848
15729TIP3   OH268677   5.661   4.110  14.338  0.0648 -0.2323 -0.0099
15729TIP3    H168678   5.738   4.064  14.370  0.4239  0.5172  0.2340
15729TIP3    H268679   5.645   4.179  14.404 -1.1599 -0.7446  0.2511
15730TIP3   OH268680   3.956   3.695  10.880 -0.3861 -0.2832 -0.0529
15730TIP3    H168681   3.997   3.712  10.795 -2.0578  0.3519 -0.7477
15730TIP3    H268682   3.934   3.781  10.915 -0.2891 -0.5712  0.7289
15731TIP3   OH268683   2.025   2.832  16.151  0.2092  0.2812  0.4976
15731TIP3    H168684   2.036   2.843  16.245 -2.1080  0.0626  0.8281
15731TIP3    H268685   2.084   2.759  16.128  0.6725  0.2390  1.7886
15732TIP3   OH268686   2.851   6.021  12.713 -0.1056  0.7805  0.5635
15732TIP3    H168687   2.783   5.982  12.659  1.2379 -0.5170 -0.2179
15732TIP3    H268688   2.852   6.113  12.687 -1.4130  0.7619  0.4379
15733TIP3   OH268689   6.298   5.289   1.591  0.8262  0.9986  0.0237
15733TIP3    H168690   6.366   5.237   1.635  1.4580 -0.5793 -2.6861
15733TIP3    H268691   6.346   5.346   1.532 -0.1681  0.4196 -1.3615
15734TIP3   OH268692   0.941   6.424   5.253  0.3548  0.0138  0.3464
15734TIP3    H168693   0.866   6.476   5.223  0.8699 -0.5160 -1.9154
15734TIP3    H268694   0.932   6.423   5.349 -1.4244  1.5953  0.2266
15735TIP3   OH268695   5.641   2.934  12.197  0.1835  0.8057  0.1711
15735TIP3    H168696   5.586   2.961  12.270  0.4592  0.4124  0.5278
15735TIP3    H268697   5.725   2.976  12.213  0.4466  0.1811  0.4402
15736TIP3   OH268698   5.440   4.526   3.457  0.0999 -0.0862  0.2102
15736TIP3    H168699   5.383   4.513   3.533 -0.0504  1.4595  0.3668
15736TIP3    H268700   5.380   4.551   3.386  0.4264  0.1495  0.0180
15737TIP3   OH268701   2.216   4.849  10.511 -0.2098 -0.1240  0.2423
15737TIP3    H168702   2.305   4.853  10.475 -0.2088 -3.2269 -0.3238
15737TIP3    H268703   2.210   4.923  10.571  3.2848 -0.7305  1.4512
15738TIP3   OH268704   5.919   1.055   0.223 -0.0001 -0.7506  0.4078
15738TIP3    H168705   5.841   1.020   0.265  1.4748 -1.5525  2.5267
15738TIP3    H268706   5.942   1.132   0.274  0.6677 -0.5670 -0.1540
15739TIP3   OH268707   6.365   3.337  12.307 -0.1046  0.2702  0.0474
15739TIP3    H168708   6.299   3.353  12.239  1.4811  0.4470 -1.4583
15739TIP3    H268709   6.390   3.246  12.295  0.8423  0.5623 -0.1912
15740TIP3   OH268710   2.803   0.072   2.328 -0.6848 -0.1022 -0.4268
15740TIP3    H168711   2.863   0.082   2.255 -0.6209 -0.2820 -0.3998
15740TIP3    H268712   2.774  -0.019   2.323  0.3385 -0.4820  0.5599
15741TIP3   OH268713   2.147   2.452   5.005 -0.1519 -0.4626  0.1904
15741TIP3    H168714   2.231   2.431   4.964  0.1151  1.5515 -0.3587
15741TIP3    H268715   2.170   2.494   5.087 -0.5356  2.3608 -1.0905
15742TIP3   OH268716   6.265   6.547   0.994 -0.1856 -0.3677  0.8576
15742TIP3    H168717   6.171   6.553   1.012 -0.3264  3.0154 -0.5589
15742TIP3    H268718   6.306   6.564   1.078 -0.8548 -0.3126  1.1806
15743TIP3   OH268719   6.117   0.104  11.611  0.2587 -0.0835  0.1313
15743TIP3    H168720   6.111   0.111  11.516 -2.3213 -1.3283  0.1631
15743TIP3    H268721   6.183   0.169  11.636  0.9362  0.2759 -2.4857
15744TIP3   OH268722   2.033   0.814  11.961  0.2625  0.1116  0.3389
15744TIP3    H168723   1.983   0.889  11.930  1.1211 -0.5124 -2.6697
15744TIP3    H268724   2.017   0.745  11.896  2.3993 -1.1380  1.0772
15745TIP3   OH268725   5.963   0.828   3.207  1.1556 -0.2031  0.3584
15745TIP3    H168726   6.002   0.904   3.163 -0.1419  1.2299  1.6571
15745TIP3    H268727   6.032   0.798   3.266  1.7646 -0.2027 -0.3360
15746TIP3   OH268728   1.269   6.718  16.097 -0.7852 -0.3749  0.8534
15746TIP3    H168729   1.273   6.805  16.138 -0.5661 -0.2978  0.6699
15746TIP3    H268730   1.337   6.668  16.142  1.3035  0.4970 -1.2557
15747TIP3   OH268731   2.757   0.106   2.986 -0.5670  0.8393 -0.2907
15747TIP3    H168732   2.667   0.138   2.973 -0.9302 -0.3822 -0.9095
15747TIP3    H268733   2.746   0.024   3.034 -0.0747 -1.2331 -3.5284
15748TIP3   OH268734   0.331   0.463  16.358  0.1285 -0.0376 -0.3978
15748TIP3    H168735   0.382   0.510  16.424  1.3977 -1.5888 -0.2299
15748TIP3    H268736   0.336   0.371  16.384 -1.9691 -0.3358 -0.9382
15749TIP3   OH268737   4.283   4.432  12.940  0.1528 -0.0987  0.0305
15749TIP3    H168738   4.191   4.413  12.958 -0.0227  0.2621 -0.4600
15749TIP3    H268739   4.285   4.450  12.846  0.9499 -1.4227 -0.2063
15750TIP3   OH268740   3.791   6.340  15.573  0.3454 -0.1655  0.2172
15750TIP3    H168741   3.778   6.368  15.663  0.9220 -0.5779  0.4328
15750TIP3    H268742   3.703   6.319  15.542  0.0232  0.9436  0.3521
15751TIP3   OH268743   0.737   0.930  12.205  0.1739  0.1377  0.7243
15751TIP3    H168744   0.795   0.908  12.132  0.8622 -1.1030  1.6293
15751TIP3    H268745   0.679   0.997  12.170  1.9811  1.2153 -0.2962
15752TIP3   OH268746   3.751   4.669  13.090  0.1429  0.3866  0.0702
15752TIP3    H168747   3.686   4.699  13.026  0.1429 -0.8473 -0.5294
15752TIP3    H268748   3.797   4.748  13.117  0.3076  0.8993 -1.6510
15753TIP3   OH268749   1.507   2.249  14.940 -0.2810 -0.2125 -0.9549
15753TIP3    H168750   1.499   2.257  15.035 -0.8126 -1.8020 -0.8514
15753TIP3    H268751   1.601   2.249  14.924 -0.1893  0.2512 -0.4488
15754TIP3   OH268752   2.534   3.084   3.575 -0.2417  0.3532  0.0593
15754TIP3    H168753   2.483   3.131   3.641 -1.9090 -0.0831 -0.8763
15754TIP3    H268754   2.605   3.043   3.624 -1.7391 -0.4103  1.6845
15755TIP3   OH268755   0.127   1.552   4.969 -0.1272 -0.4620  0.6692
15755TIP3    H168756   0.060   1.493   5.003  0.2506 -1.2839 -0.0182
15755TIP3    H268757   0.178   1.577   5.047 -1.3095  0.2875  1.2185
15756TIP3   OH268758   0.242   5.658  11.843  0.4164  0.5375  0.3394
15756TIP3    H168759   0.278   5.697  11.763 -1.1165  2.1254  0.4045
15756TIP3    H268760   0.165   5.610  11.813  0.2847  0.4795  0.7714
15757TIP3   OH268761   4.565   2.378  11.875 -1.0355  0.3401  0.4093
15757TIP3    H168762   4.471   2.372  11.863 -1.0308 -1.8805  1.1815
15757TIP3    H268763   4.599   2.404  11.789 -2.1256 -1.5345 -0.6156
15758TIP3   OH268764   1.424   0.987  14.318  0.0015  0.2237 -0.2530
15758TIP3    H168765   1.451   1.032  14.398  0.4127  2.0434 -1.3925
15758TIP3    H268766   1.330   1.005  14.312 -0.2297 -0.7657  0.3510
15759TIP3   OH268767   5.482   2.258  14.806  0.2357  0.8389 -0.0963
15759TIP3    H168768   5.488   2.271  14.901  0.6483 -0.3718  0.0615
15759TIP3    H268769   5.573   2.240  14.779 -0.3249 -2.3845 -0.1299
15760TIP3   OH268770   6.446   2.776  13.254 -0.1063  0.2916  0.0334
15760TIP3    H168771   6.447   2.690  13.298 -0.8051  0.2670  0.0120
15760TIP3    H268772   6.356   2.786  13.223  0.0905  0.8264 -0.3848
15761TIP3   OH268773   4.182   2.362   4.866  0.1822 -0.4576 -0.2502
15761TIP3    H168774   4.091   2.367   4.836  0.9037  0.0768 -2.4449
15761TIP3    H268775   4.210   2.274   4.841  0.4913 -0.3651 -0.2203
15762TIP3   OH268776   5.923   3.998  12.510  0.5477  0.1044  0.3166
15762TIP3    H168777   5.877   3.931  12.459 -0.3562  0.4951  0.6062
15762TIP3    H268778   5.976   4.045  12.446 -2.6882  2.4024 -0.7947
15763TIP3   OH268779   0.833   2.493  16.190 -0.0482 -0.8387 -0.2987
15763TIP3    H168780   0.771   2.426  16.216 -0.8648  0.3490  0.8359
15763TIP3    H268781   0.787   2.544  16.123  1.0023 -2.1026 -2.0504
15764TIP3   OH268782   5.279   2.515   4.744 -0.0220 -0.3137  0.3179
15764TIP3    H168783   5.230   2.597   4.749  0.2030 -0.1907  0.5113
15764TIP3    H268784   5.328   2.511   4.827  0.5292 -0.2886 -0.0055
15765TIP3   OH268785   6.362   0.053   1.617 -0.1009  0.1309  0.5756
15765TIP3    H168786   6.420   0.125   1.593 -1.1594  0.9601  0.4752
15765TIP3    H268787   6.419  -0.024   1.616  0.2359  0.3202 -3.2314
15766TIP3   OH268788   5.150   4.926  16.884 -0.3972  0.0463  0.5518
15766TIP3    H168789   5.055   4.926  16.899 -0.4349 -0.6650  0.3187
15766TIP3    H268790   5.171   4.835  16.863 -0.0450  0.6487 -1.8869
15767TIP3   OH268791   0.506   4.147  12.418 -0.6002 -0.1178 -0.4913
15767TIP3    H168792   0.463   4.141  12.503 -0.9818  0.1923 -0.6593
15767TIP3    H268793   0.525   4.056  12.394 -0.3008 -0.1907  0.0192
15768TIP3   OH268794   2.221   3.451  12.303  0.6839  0.4190  0.0592
15768TIP3    H168795   2.197   3.369  12.346  1.3857 -0.3307 -0.9424
15768TIP3    H268796   2.313   3.439  12.279  1.7663  2.7316  2.7318
15769TIP3   OH268797   4.376   1.892  16.285  0.1744  0.1844 -0.2709
15769TIP3    H168798   4.315   1.953  16.326  0.2018 -0.7841  1.2686
15769TIP3    H268799   4.462   1.931  16.299  0.0420  0.8109 -1.1343
15770TIP3   OH268800   2.929   2.879   1.335  0.1858 -0.0895  0.1550
15770TIP3    H168801   2.876   2.801   1.320  1.7049 -1.2451  0.5994
15770TIP3    H268802   2.895   2.916   1.417  0.9386 -1.6000  1.1736
15771TIP3   OH268803   4.686   2.827   4.985 -0.1617  0.4428 -0.2394
15771TIP3    H168804   4.717   2.863   4.902  0.6269  1.6425  0.5550
15771TIP3    H268805   4.761   2.780   5.021 -0.7412 -0.7594 -0.5639
15772TIP3   OH268806   6.369   5.937  12.968 -0.7006 -0.2865  0.1055
15772TIP3    H168807   6.338   5.868  12.910  1.0746 -1.5220  0.5856
15772TIP3    H268808   6.437   5.982  12.917 -1.4095  0.7357  0.0328
15773TIP3   OH268809   3.887   0.509   3.466 -0.0431  0.0432 -0.5491
15773TIP3    H168810   3.894   0.426   3.515 -3.5677  0.1399  0.2312
15773TIP3    H268811   3.916   0.576   3.528  3.0015 -0.5575 -1.2423
15774TIP3   OH268812   5.689   1.030   1.560 -0.1610  0.1140  0.3922
15774TIP3    H168813   5.724   1.080   1.485 -1.7731  1.3683  0.4336
15774TIP3    H268814   5.601   1.006   1.533 -0.5234  0.0122  1.6407
15775TIP3   OH268815   1.797   2.660   3.974  0.4567 -0.2417  0.1282
15775TIP3    H168816   1.779   2.584   3.919  0.5516  0.1306 -0.4267
15775TIP3    H268817   1.889   2.651   3.998  0.0596 -1.1163  1.3512
15776TIP3   OH268818   6.204   1.029   4.617  0.2942  0.8037  0.0186
15776TIP3    H168819   6.183   0.944   4.577 -0.2146  0.4039  1.0973
15776TIP3    H268820   6.143   1.091   4.577  1.5918  0.9373 -1.7925
15777TIP3   OH268821   1.897   4.485   4.405 -0.0639 -0.0043  0.2092
15777TIP3    H168822   1.960   4.473   4.335  0.9741 -1.0141  1.2994
15777TIP3    H268823   1.949   4.496   4.484 -1.2201  0.7780  0.8867
15778TIP3   OH268824   4.561   6.430   0.200  0.1044  0.3130 -0.3932
15778TIP3    H168825   4.564   6.402   0.108 -2.5364  0.7119 -0.6346
15778TIP3    H268826   4.521   6.357   0.246 -1.7063  1.4447 -0.1293
15779TIP3   OH268827   5.940   2.700  16.269 -0.5965  0.4568  0.1266
15779TIP3    H168828   5.941   2.753  16.349 -0.4911  0.6737 -0.0178
15779TIP3    H268829   5.994   2.624  16.291  0.7661  1.2830 -0.2509
15780TIP3   OH268830   1.933   5.669  14.241 -0.7718  0.2929  0.0607
15780TIP3    H168831   1.930   5.575  14.255  1.1904  0.2589  0.3671
15780TIP3    H268832   1.976   5.679  14.156 -0.2348  0.9201  0.3982
15781TIP3   OH268833   1.495   5.688   1.175 -0.6189 -0.1374 -0.4060
15781TIP3    H168834   1.495   5.608   1.122 -1.7442  0.6844 -1.6883
15781TIP3    H268835   1.470   5.757   1.113  1.2676  1.3623  0.4509
15782TIP3   OH268836   2.016   0.274  17.030 -0.3769 -0.4982  0.0020
15782TIP3    H168837   2.043   0.343  16.969 -1.2699 -1.1706 -1.1829
15782TIP3    H268838   1.957   0.317  17.092 -1.5937 -0.3576 -1.2318
15783TIP3   OH268839   6.200   2.563   0.319  0.3624  0.4141  0.0675
15783TIP3    H168840   6.279   2.512   0.301 -0.3286 -0.8666  0.6237
15783TIP3    H268841   6.216   2.647   0.276  2.6577  0.7169  1.4598
15784TIP3   OH268842   3.240   6.310   5.340 -0.1758  0.3311 -0.3386
15784TIP3    H168843   3.198   6.383   5.386 -0.3285  0.2199 -0.3008
15784TIP3    H268844   3.185   6.234   5.361 -0.9064  0.4854 -1.6178
15785TIP3   OH268845   5.328   0.258  14.641 -0.0112 -0.1861 -0.1679
15785TIP3    H168846   5.423   0.256  14.628  0.0157 -1.0995  0.1394
15785TIP3    H268847   5.311   0.183  14.699 -0.6994  0.9855  1.1749
15786TIP3   OH268848   2.659   1.464  17.232  0.4749  0.2674 -0.1163
15786TIP3    H168849   2.574   1.426  17.254  1.0375 -1.7820 -1.3551
15786TIP3    H268850   2.685   1.512  17.311 -2.5697  2.3452 -0.3105
15787TIP3   OH268851   4.894   3.255  16.368 -0.4358 -0.2307  0.1554
15787TIP3    H168852   4.866   3.277  16.457  0.6412  0.9022  0.2372
15787TIP3    H268853   4.841   3.311  16.312  0.1129  0.3313  0.1908
15788TIP3   OH268854   2.634   6.429  14.171  0.4819  0.3894  0.0728
15788TIP3    H168855   2.553   6.379  14.165  1.4325 -1.2115  0.4548
15788TIP3    H268856   2.606   6.516  14.199 -1.1167 -0.0953  0.0230
15789TIP3   OH268857   1.819   2.586  16.381 -0.5273  0.3306 -0.2091
15789TIP3    H168858   1.902   2.538  16.389  0.1597  1.7185  1.2980
15789TIP3    H268859   1.839   2.674  16.413 -1.9235  1.4696 -2.3399
15790TIP3   OH268860   3.070   0.589   5.595 -0.0721  0.3310 -0.5950
15790TIP3    H168861   3.089   0.647   5.668 -0.3308 -0.8965  0.4647
15790TIP3    H268862   2.978   0.608   5.573 -0.6148 -0.7095  0.7183
15791TIP3   OH268863   1.058   4.657   4.021 -0.1732 -0.4262 -0.3067
15791TIP3    H168864   1.145   4.617   4.020  0.1444  0.2721 -0.5083
15791TIP3    H268865   1.043   4.680   4.113  0.0906 -0.0334 -0.3608
15792TIP3   OH268866   1.434   3.822  12.640  0.0123 -0.0569 -0.2751
15792TIP3    H168867   1.522   3.834  12.675 -0.1378 -1.5927  0.6594
15792TIP3    H268868   1.382   3.791  12.714 -1.5075  1.5685 -0.6202
15793TIP3   OH268869   3.004   2.308   3.648 -0.2005 -0.4528 -0.7370
15793TIP3    H168870   3.088   2.297   3.693 -1.3811 -1.0901  1.3624
15793TIP3    H268871   2.989   2.402   3.647 -0.4051 -0.4631  0.6852
15794TIP3   OH268872   1.617   1.289  15.218  0.1618 -0.5977 -0.1493
15794TIP3    H168873   1.540   1.297  15.275  0.2036 -0.3422 -0.1285
15794TIP3    H268874   1.609   1.363  15.157  1.7083  0.9314  1.4448
15795TIP3   OH268875   4.641   6.447   1.766 -0.0065  0.4217  0.4259
15795TIP3    H168876   4.601   6.533   1.776 -1.3633 -0.1212 -0.0949
15795TIP3    H268877   4.733   6.460   1.787 -0.0880  2.1098 -0.1563
15796TIP3   OH268878   4.580   1.117  15.924 -0.5129  0.4152  0.1793
15796TIP3    H168879   4.633   1.164  15.988 -0.0558 -0.8659  0.7643
15796TIP3    H268880   4.499   1.097  15.970 -0.1894 -0.4941  0.3632
15797TIP3   OH268881   4.456   0.605   6.300 -0.1922 -0.3984 -0.2111
15797TIP3    H168882   4.533   0.556   6.271 -0.8682 -0.8277 -1.3482
15797TIP3    H268883   4.388   0.580   6.237 -1.6050 -1.0297  1.5160
15798TIP3   OH268884   3.840   5.955   1.471 -0.6247 -0.4384  0.3995
15798TIP3    H168885   3.933   5.958   1.450 -0.2787 -3.4963  1.1454
15798TIP3    H268886   3.805   5.885   1.414 -2.2088 -0.1160  0.9508
15799TIP3   OH268887   6.544   4.554  12.941  0.2251  0.0806 -0.4652
15799TIP3    H168888   6.528   4.627  12.881 -1.6693 -1.2209 -1.5807
15799TIP3    H268889   6.493   4.576  13.019 -0.5702 -0.1636 -0.9077
15800TIP3   OH268890   2.074   4.385  13.752  0.0948 -0.1119  0.8536
15800TIP3    H168891   2.092   4.437  13.831 -0.9521 -0.1057  1.0900
15800TIP3    H268892   2.128   4.426  13.684 -0.9684  1.5093  0.9593
15801TIP3   OH268893   4.522   2.515   2.184 -0.0812  0.0639  0.3275
15801TIP3    H168894   4.614   2.529   2.160 -0.0166 -1.0278 -0.0946
15801TIP3    H268895   4.522   2.430   2.229 -1.1573 -0.7691 -1.2303
15802TIP3   OH268896   0.308   4.540  11.498  0.8689 -0.3658  0.1627
15802TIP3    H168897   0.246   4.547  11.426  0.0541 -0.4211  0.8486
15802TIP3    H268898   0.389   4.578  11.465  0.3282  0.1242 -0.5847
15803TIP3   OH268899   2.700   0.960   4.314  0.3206 -0.2199  0.1849
15803TIP3    H168900   2.638   1.029   4.291 -1.9463 -2.0390  0.6397
15803TIP3    H268901   2.762   0.959   4.241  0.0413  1.8604 -0.1257
15804TIP3   OH268902   3.663   1.385   2.843 -0.5164  0.3122  0.6368
15804TIP3    H168903   3.721   1.386   2.767  1.3956  0.6021  2.0683
15804TIP3    H268904   3.594   1.323   2.819 -0.1944  0.7544 -1.5097
15805TIP3   OH268905   6.774   0.539   2.819 -0.2102  0.4185  0.3959
15805TIP3    H168906   6.832   0.499   2.754 -0.6606  0.4720 -0.0394
15805TIP3    H268907   6.829   0.606   2.861  0.6581 -0.9036  1.4023
15806TIP3   OH268908   4.814   2.899  14.485  0.9318 -0.7760  0.2486
15806TIP3    H168909   4.772   2.816  14.464 -0.5445 -0.0116  0.1275
15806TIP3    H268910   4.747   2.949  14.533  1.4393  0.7414 -0.5768
15807TIP3   OH268911   5.824   4.379   4.261 -0.2656 -0.0189  0.2677
15807TIP3    H168912   5.870   4.434   4.325  0.2604 -1.1197  0.8624
15807TIP3    H268913   5.871   4.296   4.264 -0.5331 -0.2349 -1.2251
15808TIP3   OH268914   2.824   2.392  13.586  0.3832  0.4102  0.0363
15808TIP3    H168915   2.805   2.484  13.571  1.5566  0.1344 -3.6189
15808TIP3    H268916   2.920   2.386  13.582  0.2275 -1.3831 -3.1435
15809TIP3   OH268917   0.550   6.480  15.717  0.4600  0.7696  0.7800
15809TIP3    H168918   0.589   6.505  15.633  0.1866 -0.0979  0.3905
15809TIP3    H268919   0.608   6.411  15.751 -0.5865 -0.3684  0.3004
15810TIP3   OH268920   1.585   4.343  12.831  0.2372 -0.1334 -0.0919
15810TIP3    H168921   1.574   4.435  12.853  0.3975  0.2272 -1.4539
15810TIP3    H268922   1.503   4.320  12.787 -0.6752 -1.2221  2.1048
15811TIP3   OH268923   0.429   2.227   5.886  0.2116  0.0381  0.0264
15811TIP3    H168924   0.433   2.169   5.962 -0.1730  1.1021  0.8765
15811TIP3    H268925   0.446   2.170   5.811 -0.0250 -1.1404  0.8555
15812TIP3   OH268926   2.905   4.396  15.563  0.3136 -0.0765  0.0030
15812TIP3    H168927   2.820   4.376  15.523 -1.1485 -0.1372  3.0277
15812TIP3    H268928   2.921   4.488  15.539 -0.2665 -0.2745 -1.1788
15813TIP3   OH268929   3.484   3.158   3.964 -0.0821 -0.0516  0.1174
15813TIP3    H168930   3.443   3.123   4.043  0.4619  0.6535  0.7117
15813TIP3    H268931   3.411   3.189   3.911 -0.5373 -1.5365 -0.1641
15814TIP3   OH268932   0.703   3.580   1.880  0.1682  0.1694 -0.1487
15814TIP3    H168933   0.733   3.671   1.871 -0.6462  0.4946  0.3771
15814TIP3    H268934   0.722   3.558   1.971  0.3042 -0.1702 -0.2587
15815TIP3   OH268935   6.812   6.611  16.897 -0.4601  0.3872  0.3674
15815TIP3    H168936   6.859   6.552  16.838 -2.5492 -1.0360  0.0686
15815TIP3    H268937   6.807   6.564  16.980 -0.0578  1.1568  0.8312
15816TIP3   OH268938   1.374   6.591   3.131  0.0260 -0.0360 -0.1683
15816TIP3    H168939   1.443   6.548   3.081 -0.0143 -3.3659  2.4725
15816TIP3    H268940   1.302   6.602   3.069  1.3321 -0.5164 -1.8089
15817TIP3   OH268941   1.999   3.658   3.194  0.3755 -0.3118 -0.0622
15817TIP3    H168942   2.025   3.698   3.276 -0.0986  0.7005 -0.4050
15817TIP3    H268943   1.948   3.581   3.220  2.3698 -1.4711  0.6047
15818TIP3   OH268944   5.593   1.710   4.595 -0.5337  0.1916  0.6161
15818TIP3    H168945   5.612   1.688   4.504 -1.3336  1.9027 -0.0004
15818TIP3    H268946   5.634   1.641   4.646  1.2064  0.0160 -0.9777
15819TIP3   OH268947   0.517   2.468  17.292  0.0316  0.1618  0.5280
15819TIP3    H168948   0.466   2.494  17.368  0.6079  2.2329  0.2513
15819TIP3    H268949   0.568   2.393  17.321 -1.1669 -0.2476  1.6012
15820TIP3   OH268950   1.259   2.718   1.187  0.4353 -0.2924  0.3314
15820TIP3    H168951   1.348   2.691   1.165  1.1092  0.9523  1.4396
15820TIP3    H268952   1.228   2.652   1.249  0.3924 -1.0146 -0.4596
15821TIP3   OH268953   2.080   3.055  12.601 -0.3427 -0.6558  0.4237
15821TIP3    H168954   2.025   2.977  12.604 -2.0213  0.5097  0.2372
15821TIP3    H268955   2.099   3.074  12.693 -0.7094 -0.7337  0.5158
15822TIP3   OH268956   5.454   1.439   3.253 -0.0505 -0.2930  0.1962
15822TIP3    H168957   5.377   1.393   3.220 -0.1849  1.1473 -1.5353
15822TIP3    H268958   5.490   1.484   3.177  0.5727  1.7817  1.6568
15823TIP3   OH268959   0.671   0.210  17.078 -0.4338  0.1035 -0.3395
15823TIP3    H168960   0.754   0.220  17.031 -1.4067  1.4088 -1.7998
15823TIP3    H268961   0.660   0.115  17.086  0.6589 -0.0976 -1.0907
15824TIP3   OH268962   4.134   3.668  16.122  0.4593  0.2432  0.4089
15824TIP3    H168963   4.127   3.697  16.213  0.1435  1.9577 -0.1370
15824TIP3    H268964   4.223   3.694  16.095 -0.4890  2.4953 -0.6648
15825TIP3   OH268965   0.902   3.708   5.619  0.5240  0.8364  0.3918
15825TIP3    H168966   0.933   3.785   5.667  0.7558  1.0637 -0.1243
15825TIP3    H268967   0.902   3.735   5.528  1.9479 -0.2345  0.0704
15826TIP3   OH268968   5.706   3.617  13.746 -0.3318  0.0248  0.3247
15826TIP3    H168969   5.650   3.611  13.824 -0.4579 -0.6617  0.1845
15826TIP3    H268970   5.790   3.581  13.774  0.1009  1.2231  0.5896
15827TIP3   OH268971   4.574   5.976   4.076  0.6169  0.2172  0.3811
15827TIP3    H168972   4.497   5.963   4.130  0.7201 -0.6316  0.3201
15827TIP3    H268973   4.627   6.039   4.124  1.1377 -1.2151  1.7075
15828TIP3   OH268974   3.958   6.025  15.830 -0.3103 -0.0978 -0.4378
15828TIP3    H168975   3.931   6.062  15.914  0.4430 -0.1992 -0.1478
15828TIP3    H268976   3.949   5.930  15.841  0.6047 -0.1576 -0.1822
15829TIP3   OH268977   4.181   0.118  12.837 -0.3494  0.3014  0.3029
15829TIP3    H168978   4.242   0.174  12.884 -1.9577  2.5020 -0.1472
15829TIP3    H268979   4.127   0.079  12.906  0.5821 -0.5131  0.5951
15830TIP3   OH268980   5.088   4.575  10.888  0.1432  0.5597  0.4759
15830TIP3    H168981   5.016   4.549  10.946  0.9272  2.4188  2.3705
15830TIP3    H268982   5.048   4.579  10.801 -1.3175 -1.3097  1.0276
15831TIP3   OH268983   3.614   4.732  14.075  0.3478  0.2696  0.5383
15831TIP3    H168984   3.618   4.640  14.098  0.3327  0.5523  1.6849
15831TIP3    H268985   3.572   4.734  13.988 -0.9209 -0.6910  1.1203
15832TIP3   OH268986   2.988   3.890  16.490  0.5223 -0.1471  0.1358
15832TIP3    H168987   2.970   3.979  16.461  1.0458 -0.2750 -0.6063
15832TIP3    H268988   3.042   3.900  16.568  1.0672  0.1860 -0.2781
15833TIP3   OH268989   5.380   3.127  16.282 -0.1684 -0.9184 -0.0130
15833TIP3    H168990   5.306   3.118  16.342  0.9188 -0.6821  1.3799
15833TIP3    H268991   5.346   3.178  16.209 -1.3431 -0.7143  0.6703
15834TIP3   OH268992   6.661   4.412   5.491 -0.0619  0.0348  0.2978
15834TIP3    H168993   6.705   4.337   5.450 -2.7891 -1.7921  0.5704
15834TIP3    H268994   6.730   4.455   5.541  1.1014 -3.7154  2.1051
15835TIP3   OH268995   2.831   0.893  17.205 -0.0045  0.2851  0.0938
15835TIP3    H168996   2.868   0.981  17.196  0.8200  0.3028  3.2874
15835TIP3    H268997   2.744   0.900  17.166  0.1387  2.4386  0.1082
15836TIP3   OH268998   5.797   2.580   5.160  0.3964  0.2493 -0.0441
15836TIP3    H168999   5.791   2.633   5.240 -0.8694  3.2221 -2.0217
15836TIP3    H269000   5.766   2.493   5.187 -0.5168  1.3221  2.5596
15837TIP3   OH269001   5.192   2.588  14.177  0.0995  0.0118 -0.1274
15837TIP3    H169002   5.146   2.506  14.161  1.9936 -0.7327 -2.1398
15837TIP3    H269003   5.152   2.651  14.117 -1.8258  0.7737  1.9155
15838TIP3   OH269004   3.218   4.590   2.482 -0.5185 -0.9810  0.0486
15838TIP3    H169005   3.177   4.518   2.435  0.4243 -1.1619 -0.5068
15838TIP3    H269006   3.303   4.602   2.439  0.0656 -0.6919  1.2560
15839TIP3   OH269007   3.009   5.888   5.432 -0.5800 -0.2112 -0.4880
15839TIP3    H169008   2.933   5.945   5.414 -0.9062 -0.4664  0.0487
15839TIP3    H269009   2.971   5.810   5.473 -0.0485 -0.4468 -0.4397
15840TIP3   OH269010   4.352   0.482   1.336  0.5130 -0.1564  0.1342
15840TIP3    H169011   4.372   0.572   1.311 -1.9437 -0.4455 -3.2873
15840TIP3    H269012   4.261   0.485   1.367  1.4154 -0.9724  3.0273
15841TIP3   OH269013   5.845   5.537   4.904 -0.0516 -1.0144  0.2734
15841TIP3    H169014   5.846   5.617   4.957  1.7369 -1.2776  0.6707
15841TIP3    H269015   5.855   5.467   4.968 -1.9548 -1.6039 -0.0401
15842TIP3   OH269016   3.345   3.818  14.878 -0.4683 -0.3528 -0.2567
15842TIP3    H169017   3.406   3.796  14.807  1.3241 -0.5754  1.3387
15842TIP3    H269018   3.273   3.863  14.834  1.1933  0.6033 -2.0600
15843TIP3   OH269019   4.928   0.439   2.537 -0.5429 -0.3190 -0.3930
15843TIP3    H169020   4.901   0.418   2.627 -1.7259 -0.1601 -0.7095
15843TIP3    H269021   5.013   0.395   2.528 -1.2435 -1.8492  0.2065
15844TIP3   OH269022   3.828   6.205  16.864  0.4277 -0.4706  0.1195
15844TIP3    H169023   3.906   6.259  16.875  0.1668  0.2120 -1.2654
15844TIP3    H269024   3.757   6.259  16.898  0.0944  0.2952 -1.7352
15845TIP3   OH269025   1.176   5.732  15.303  0.0177 -0.4665  0.4461
15845TIP3    H169026   1.190   5.774  15.218  1.7944  0.0658  0.9773
15845TIP3    H269027   1.253   5.756  15.354 -1.5795  0.2256  2.6263
15846TIP3   OH269028   0.139   4.964   0.655  0.1742 -0.5394 -0.2245
15846TIP3    H169029   0.147   5.033   0.589  1.1256  0.7968  1.2637
15846TIP3    H269030   0.212   4.905   0.636  0.9084  0.2496  0.0653
15847TIP3   OH269031   0.269   5.374   5.870 -0.3431 -0.1738  0.3373
15847TIP3    H169032   0.202   5.424   5.824  0.3936  0.4329 -0.0843
15847TIP3    H269033   0.236   5.366   5.960 -0.4419  1.1244  0.4258
15848TIP3   OH269034   4.818   3.239  13.571 -0.0215  0.1591 -0.2205
15848TIP3    H169035   4.908   3.261  13.597 -0.2174 -0.6080  1.1233
15848TIP3    H269036   4.795   3.307  13.508 -0.3106  3.3404  3.1559
15849TIP3   OH269037   5.214   1.687   3.059  0.4188 -0.9039  0.8871
15849TIP3    H169038   5.247   1.631   2.989  0.8766 -1.9906  1.9562
15849TIP3    H269039   5.172   1.760   3.014  1.3472 -1.2228 -0.5080
15850TIP3   OH269040   1.819   1.408  12.712  0.1669 -0.1525 -1.0670
15850TIP3    H169041   1.732   1.433  12.681  0.9288  1.3808 -2.0786
15850TIP3    H269042   1.877   1.428  12.638  1.8757  2.5402  0.8775
15851TIP3   OH269043   5.741   5.127  14.716 -0.0958 -0.1356 -0.0203
15851TIP3    H169044   5.830   5.124  14.682 -0.4215 -1.8274 -0.7300
15851TIP3    H269045   5.745   5.081  14.800 -0.3825 -0.5147 -0.2154
15852TIP3   OH269046   5.021   3.081   2.941  0.1613  0.3254 -0.1111
15852TIP3    H169047   5.023   3.170   2.976  2.1386  0.1167  0.3925
15852TIP3    H269048   5.114   3.056   2.933 -0.3678 -2.1746  1.0304
15853TIP3   OH269049   4.809   1.507  12.284  0.6167  0.0692  0.2418
15853TIP3    H169050   4.841   1.422  12.253  0.3931  0.1346 -0.1824
15853TIP3    H269051   4.885   1.548  12.325 -0.0956 -1.7389  3.5287
15854TIP3   OH269052   2.961   1.541  12.192  0.1367 -0.0718  0.2868
15854TIP3    H169053   2.869   1.567  12.193  0.4094  0.8775  0.7097
15854TIP3    H269054   2.990   1.551  12.282  0.7721  0.0329  0.0727
15855TIP3   OH269055   5.694   4.927  14.987  0.8984  0.1479  0.6497
15855TIP3    H169056   5.651   4.889  15.064 -0.7374  1.1766  0.2773
15855TIP3    H269057   5.656   4.879  14.913 -0.2634  1.6598  0.2606
15856TIP3   OH269058   3.551   0.359   2.914 -0.0237 -0.1746 -0.1250
15856TIP3    H169059   3.533   0.386   2.824  2.6528  2.1352 -0.0570
15856TIP3    H269060   3.479   0.397   2.965 -0.2723  0.5593 -1.0032
15857TIP3   OH269061   0.505   0.064   1.859 -0.9925 -0.5515  0.3330
15857TIP3    H169062   0.535  -0.007   1.801 -1.4277 -1.6717  1.4715
15857TIP3    H269063   0.410   0.052   1.865 -1.0164 -0.1182  0.8582
15858TIP3   OH269064   2.339   5.198  13.457  0.4493 -0.1645  0.9270
15858TIP3    H169065   2.403   5.132  13.430  0.3904 -1.6330  4.1109
15858TIP3    H269066   2.375   5.235  13.538 -0.5855  2.2059  0.3620
15859TIP3   OH269067   5.233   4.114   5.453 -0.0972  0.7448 -0.3060
15859TIP3    H169068   5.145   4.138   5.424  0.4193  3.5959  0.3330
15859TIP3    H269069   5.221   4.089   5.545 -0.2142  1.5343 -0.0946
15860TIP3   OH269070   0.307   2.368   5.344 -0.4147  0.3287  0.5872
15860TIP3    H169071   0.321   2.295   5.405  1.6089 -1.0234 -1.3900
15860TIP3    H269072   0.354   2.342   5.265 -1.4234  2.8715 -0.9115
15861TIP3   OH269073   6.301   4.538  16.716 -0.0400  0.2654 -0.1581
15861TIP3    H169074   6.256   4.457  16.694 -0.3758  0.2033  0.7121
15861TIP3    H269075   6.385   4.509  16.752 -0.1839  0.2926  0.2084
15862TIP3   OH269076   0.602   1.505   5.680  0.2553  0.2329  0.0788
15862TIP3    H169077   0.621   1.565   5.752  0.3577  0.3281 -0.0284
15862TIP3    H269078   0.685   1.460   5.664  0.0454 -0.3201  0.5143
15863TIP3   OH269079   1.089   3.309   1.673  0.4101 -0.3528  0.5344
15863TIP3    H169080   1.091   3.401   1.646 -0.4493 -0.3847  0.3357
15863TIP3    H269081   1.095   3.312   1.769 -1.7747  0.0408  0.6917
15864TIP3   OH269082   4.281   6.334  13.001 -0.7873 -0.1297 -0.5937
15864TIP3    H169083   4.314   6.392  13.069  0.9217  1.0996 -2.4309
15864TIP3    H269084   4.350   6.269  12.989 -1.5443 -0.9757 -0.4185
15865TIP3   OH269085   0.971   6.405  14.458  0.1644 -0.1903 -0.6060
15865TIP3    H169086   0.922   6.407  14.376 -2.9070  0.5493  1.1799
15865TIP3    H269087   0.953   6.318  14.495 -0.2982  0.2907  0.3290
15866TIP3   OH269088   1.289   1.593   5.914 -0.4054  0.0126  0.0584
15866TIP3    H169089   1.353   1.531   5.949  0.6600  0.3296 -1.3039
15866TIP3    H269090   1.208   1.574   5.962  0.4581 -1.0160  1.1296
15867TIP3   OH269091   3.169   0.788  12.185 -0.5968 -0.0117 -0.2652
15867TIP3    H169092   3.116   0.860  12.219 -0.1212  0.3056 -0.1988
15867TIP3    H269093   3.223   0.761  12.259 -1.5804 -1.1951  0.0464
15868TIP3   OH269094   2.356   3.556   2.196  0.3683  0.6496 -0.2296
15868TIP3    H169095   2.381   3.566   2.288  0.9090 -0.2581 -0.2695
15868TIP3    H269096   2.438   3.533   2.152 -0.2901 -1.0889 -0.5776
15869TIP3   OH269097   1.928   2.270  11.658 -0.6582 -0.2330  0.0303
15869TIP3    H169098   1.852   2.310  11.617  0.1425 -0.4844 -1.7527
15869TIP3    H269099   1.961   2.208  11.593  1.8337  0.8158  0.2150
15870TIP3   OH269100   2.509   6.514   2.350 -0.1929  0.4548 -0.1087
15870TIP3    H169101   2.573   6.574   2.389 -0.8919  1.0947  0.0588
15870TIP3    H269102   2.563   6.448   2.306  0.5866  1.1017 -0.1460
15871TIP3   OH269103   1.555   6.236  15.062  0.0738  0.2349  0.6810
15871TIP3    H169104   1.466   6.269  15.063  0.0153  0.0958  0.2109
15871TIP3    H269105   1.604   6.296  15.119  0.3710  2.2654 -1.6157
15872TIP3   OH269106   3.038   0.044  12.289 -0.0619 -0.0759  0.0933
15872TIP3    H169107   3.078   0.108  12.231  1.4807  0.2277  1.4441
15872TIP3    H269108   3.061  -0.041  12.251 -0.0978  0.1408 -0.4112
15873TIP3   OH269109   4.192   6.449   6.335 -0.0188 -0.4579  0.2663
15873TIP3    H169110   4.174   6.388   6.263  1.2285 -1.1433  0.5223
15873TIP3    H269111   4.144   6.414   6.409  1.1320 -1.4596  0.5584
15874TIP3   OH269112   3.766   5.015   2.724  0.0954  0.0588  0.8351
15874TIP3    H169113   3.823   5.038   2.797 -1.4052  2.1704  1.3748
15874TIP3    H269114   3.800   5.066   2.650  0.5746 -0.7923  0.4536
15875TIP3   OH269115   5.270   2.916  10.653  0.4778  0.4161  0.1132
15875TIP3    H169116   5.346   2.881  10.607 -1.7276 -1.2493 -2.4306
15875TIP3    H269117   5.284   3.011  10.655  0.9004  0.4755 -3.5781
15876TIP3   OH269118   6.265   5.016  11.183  0.6637 -0.0812  0.1883
15876TIP3    H169119   6.206   5.091  11.184  1.9304  0.9587 -1.4836
15876TIP3    H269120   6.272   4.991  11.276 -0.5125  1.2414  0.6638
15877TIP3   OH269121   0.353   3.944  14.226  0.2367  0.1433 -0.3427
15877TIP3    H169122   0.391   3.967  14.141  0.6615 -0.3423 -0.2850
15877TIP3    H269123   0.429   3.935  14.284 -0.0199 -0.0473 -0.0355
15878TIP3   OH269124   2.437   5.394  14.078 -0.0780 -0.4194  0.2536
15878TIP3    H169125   2.347   5.370  14.056 -1.0946  0.1088  3.4510
15878TIP3    H269126   2.473   5.432  13.998 -3.4212  1.3704 -0.4804
15879TIP3   OH269127   6.812   3.719  15.167 -0.0301  0.7991 -0.1425
15879TIP3    H169128   6.851   3.793  15.121 -1.8672  2.0503  0.2722
15879TIP3    H269129   6.730   3.753  15.202 -0.7922 -1.3765  0.2472
15880TIP3   OH269130   0.593   6.283   4.219  0.2150  0.0867  0.5361
15880TIP3    H169131   0.497   6.279   4.214  0.0552  2.7119  0.9264
15880TIP3    H269132   0.621   6.193   4.204 -2.3387 -0.8243  0.9087
15881TIP3   OH269133   1.579   1.081  15.039  0.1572  0.5887 -0.2025
15881TIP3    H169134   1.634   1.075  14.961 -1.1198  1.0161 -1.1580
15881TIP3    H269135   1.611   1.159  15.085  1.2362  0.0534 -0.0317
15882TIP3   OH269136   3.203   3.219   4.549  0.2999 -0.1958  0.6709
15882TIP3    H169137   3.143   3.228   4.623 -1.0283  0.8402 -0.4983
15882TIP3    H269138   3.178   3.290   4.489  0.2944 -1.9645 -1.4792
15883TIP3   OH269139   2.545   1.800   2.563 -0.1917 -0.3353 -0.2436
15883TIP3    H169140   2.467   1.749   2.539  0.2775 -0.2723 -1.9740
15883TIP3    H269141   2.517   1.891   2.555 -0.0848 -0.3129 -0.3508
15884TIP3   OH269142   3.390   1.904   4.314 -0.1753  0.4080  0.3706
15884TIP3    H169143   3.421   1.902   4.404  0.0263 -3.9446  0.3182
15884TIP3    H269144   3.298   1.931   4.321 -0.7876 -1.9880  2.1298
15885TIP3   OH269145   5.767   5.946   1.641 -0.5915 -0.3235  0.0786
15885TIP3    H169146   5.807   6.018   1.594 -0.8798  0.3352  0.8277
15885TIP3    H269147   5.837   5.911   1.696 -0.3646 -0.8302 -0.5256
15886TIP3   OH269148   6.046   6.629  13.345 -0.2677 -0.1409 -0.5846
15886TIP3    H169149   6.129   6.582  13.348  0.5934  1.3248 -0.5678
15886TIP3    H269150   5.980   6.566  13.373  1.3385 -0.2461  3.2083
15887TIP3   OH269151   2.916   2.954  16.695  0.1152  0.4875 -0.1306
15887TIP3    H169152   2.961   3.021  16.644  2.9584 -1.0318  0.2613
15887TIP3    H269153   2.852   2.916  16.634  1.0604  1.0527 -1.4920
15888TIP3   OH269154   4.047   1.402  16.433 -0.2621  0.1347 -0.7053
15888TIP3    H169155   4.129   1.387  16.386 -0.0574  1.6842 -0.8796
15888TIP3    H269156   3.979   1.400  16.365 -0.2840 -0.4029 -0.6683
15889TIP3   OH269157   1.151   0.531  16.109  0.0561 -0.1764  0.2283
15889TIP3    H169158   1.077   0.479  16.139  0.1057 -0.3026  0.1332
15889TIP3    H269159   1.118   0.577  16.031 -0.4684  1.1586  1.2243
15890TIP3   OH269160   0.535   0.898  13.106 -0.0471  0.0005 -0.1518
15890TIP3    H169161   0.627   0.923  13.093 -0.2909  0.7921 -0.3516
15890TIP3    H269162   0.485   0.977  13.085 -0.8528 -0.7826 -1.1949
15891TIP3   OH269163   0.539   5.645   5.257 -0.3243 -0.5893 -0.1343
15891TIP3    H169164   0.472   5.711   5.269 -1.5520 -1.6457 -0.9768
15891TIP3    H269165   0.590   5.647   5.338  1.6326  3.5136 -1.3385
15892TIP3   OH269166   4.458   6.476   6.327 -0.2710 -0.0463 -0.0068
15892TIP3    H169167   4.366   6.454   6.344 -0.3902 -0.1045 -0.7263
15892TIP3    H269168   4.492   6.400   6.280  0.1074  0.0461  0.1198
15893TIP3   OH269169   6.657   0.787  17.093 -0.4085  0.0634 -0.0854
15893TIP3    H169170   6.653   0.697  17.127  0.6653  1.3598  3.8493
15893TIP3    H269171   6.743   0.792  17.051  1.0390  0.1727  2.7688
15894TIP3   OH269172   0.440   1.642  15.090 -1.1540 -0.4299  0.4589
15894TIP3    H169173   0.347   1.624  15.105 -0.8459 -1.3024  1.3238
15894TIP3    H269174   0.469   1.572  15.032 -1.0858 -0.0206 -0.0062
15895TIP3   OH269175   0.657   0.777   0.490  0.5196  0.0585  0.4955
15895TIP3    H169176   0.627   0.687   0.483 -0.0003  0.0700  2.3893
15895TIP3    H269177   0.703   0.781   0.574  1.5307  1.2737 -0.0967
15896TIP3   OH269178   0.383   4.066   5.303 -0.3226  0.0338 -0.0052
15896TIP3    H169179   0.309   4.083   5.245  0.3097  0.7051 -0.6209
15896TIP3    H269180   0.345   4.017   5.376 -1.5580  1.1762  0.1501
15897TIP3   OH269181   0.257   0.036   5.534  0.3134 -0.3608 -0.2454
15897TIP3    H169182   0.181   0.025   5.591  0.6422  0.4129  0.3675
15897TIP3    H269183   0.253   0.128   5.506 -1.0377 -1.2943 -3.2388
15898TIP3   OH269184   0.128   1.188   6.528  0.1426 -0.4137  0.1103
15898TIP3    H169185   0.129   1.261   6.591 -0.9637 -0.6841  0.4381
15898TIP3    H269186   0.121   1.110   6.582 -1.1091 -0.6329 -0.3657
15899TIP3   OH269187   0.992   0.397   1.853  0.1772 -0.2027 -0.0734
15899TIP3    H169188   1.038   0.342   1.917  1.4409  0.7827 -0.1213
15899TIP3    H269189   0.902   0.365   1.855  0.9531 -2.4953 -0.3363
15900TIP3   OH269190   6.013   2.284   6.248  0.4825 -0.1661 -0.4425
15900TIP3    H169191   5.926   2.251   6.269  0.0361  1.1761 -0.0995
15900TIP3    H269192   6.071   2.242   6.312  0.0600 -0.9058 -0.5411
15901TIP3   OH269193   1.979   3.105   3.872  0.3801  0.2353 -0.3729
15901TIP3    H169194   2.033   3.026   3.871 -1.8105 -1.3089  0.6566
15901TIP3    H269195   1.934   3.104   3.787 -1.6742 -1.0589  0.7256
15902TIP3   OH269196   0.782   4.426  15.835  0.3817  0.0844 -0.4650
15902TIP3    H169197   0.742   4.418  15.922  1.3371  1.1149  0.0888
15902TIP3    H269198   0.737   4.500  15.795  1.3820  0.9662 -0.0099
15903TIP3   OH269199   4.622   3.500   2.707 -0.2445 -0.3403  0.3943
15903TIP3    H169200   4.605   3.447   2.785 -2.3857 -0.8593 -0.3829
15903TIP3    H269201   4.565   3.463   2.640  0.4262  1.0804 -0.9882
15904TIP3   OH269202   2.474   0.053   5.347  0.0937 -0.3583 -0.2518
15904TIP3    H169203   2.432   0.029   5.264 -0.9086 -0.0012  0.1352
15904TIP3    H269204   2.441  -0.012   5.409 -0.3616  0.2738  0.1810
15905TIP3   OH269205   1.163   2.054   5.000 -0.1340  0.1324  0.2657
15905TIP3    H169206   1.203   2.019   4.920 -1.0911 -1.2443  0.3661
15905TIP3    H269207   1.127   2.139   4.973  2.3924  1.1600  0.0629
15906TIP3   OH269208   5.548   4.485  12.634  0.0084 -0.2811 -0.4527
15906TIP3    H169209   5.574   4.510  12.546 -1.2206 -2.4398 -1.4659
15906TIP3    H269210   5.458   4.516  12.642  0.0373 -0.3025 -0.0298
15907TIP3   OH269211   5.963   2.365   3.591 -0.3428  0.2156  0.1591
15907TIP3    H169212   5.995   2.439   3.641  0.5032 -0.2204  0.2606
15907TIP3    H269213   5.986   2.288   3.643 -0.8597 -0.1437 -0.1359
15908TIP3   OH269214   3.879   4.854   2.073  0.4579 -0.1089  0.3151
15908TIP3    H169215   3.952   4.799   2.104  0.7147 -0.8506 -1.5244
15908TIP3    H269216   3.873   4.834   1.979 -2.9316 -1.0001  0.6711
15909TIP3   OH269217   0.110   2.355   4.958 -0.4531 -0.2385  0.4166
15909TIP3    H169218   0.143   2.283   5.011 -2.3801 -0.7293  1.0057
15909TIP3    H269219   0.188   2.394   4.918  0.8869 -0.8804  2.3202
15910TIP3   OH269220   2.112   5.392  12.663  0.5357 -0.3624  0.1307
15910TIP3    H169221   2.023   5.412  12.635  0.6739  1.7514  1.1293
15910TIP3    H269222   2.106   5.382  12.758  1.1430 -1.5873  0.0588
15911TIP3   OH269223   6.502   4.118   4.995 -0.0857 -0.3535 -0.2774
15911TIP3    H169224   6.454   4.057   5.051  0.1400 -0.9252 -0.6969
15911TIP3    H269225   6.478   4.093   4.906  1.8225 -1.3674 -0.5323
15912TIP3   OH269226   6.743   0.193   2.129  0.2964 -0.1147 -0.3091
15912TIP3    H169227   6.777   0.281   2.115 -0.2236  0.5515  2.2661
15912TIP3    H269228   6.699   0.170   2.047 -0.3457  2.3974 -0.7100
15913TIP3   OH269229   4.989   3.036   4.779  0.5481  0.2774 -0.2164
15913TIP3    H169230   5.007   3.118   4.825 -0.6967  0.0426  0.7206
15913TIP3    H269231   4.894   3.026   4.785  0.5420 -0.5028 -1.5794
15914TIP3   OH269232   4.845   6.020   2.890  0.0221 -0.4408  0.0839
15914TIP3    H169233   4.752   6.012   2.869  0.0939  2.4707 -1.6022
15914TIP3    H269234   4.889   5.980   2.815  0.1605 -1.0645  0.4922
15915TIP3   OH269235   1.703   2.452  10.698  0.1923 -0.1845  0.9256
15915TIP3    H169236   1.627   2.488  10.653  2.2938  0.5350 -2.1591
15915TIP3    H269237   1.667   2.384  10.755 -2.7685  0.3994 -0.1820
15916TIP3   OH269238   2.960   4.492   4.595 -0.0159  0.5014 -0.2470
15916TIP3    H169239   3.037   4.544   4.570  0.2047  0.7787  0.9480
15916TIP3    H269240   2.900   4.500   4.521  0.8631  0.7751 -0.9381
15917TIP3   OH269241   1.813   3.860  11.842  0.6027 -0.5135 -0.0259
15917TIP3    H169242   1.757   3.784  11.857  0.5011 -0.1784  1.2783
15917TIP3    H269243   1.753   3.935  11.845  0.9100 -0.2674 -0.0286
15918TIP3   OH269244   4.024   1.920  14.137  0.0312  0.1872 -0.3166
15918TIP3    H169245   4.070   1.862  14.076  2.2080  1.7220 -0.2199
15918TIP3    H269246   4.017   2.004  14.091 -1.3478  0.4006  0.2607
15919TIP3   OH269247   6.589   2.050  11.635  0.7945  0.0608 -0.4606
15919TIP3    H169248   6.685   2.046  11.638  0.7121 -1.3907  0.8609
15919TIP3    H269249   6.569   2.144  11.641  2.0844  0.2529  1.4904
15920TIP3   OH269250   6.621   2.644   3.635  0.1632 -0.1162  0.8759
15920TIP3    H169251   6.632   2.717   3.575 -1.2721 -0.4414  0.1860
15920TIP3    H269252   6.642   2.566   3.582 -3.5566 -0.6128  0.0019
15921TIP3   OH269253   5.525   3.834   3.664 -0.6723 -0.0542 -0.2930
15921TIP3    H169254   5.538   3.918   3.620  0.3408 -0.3872 -0.6298
15921TIP3    H269255   5.431   3.832   3.685 -0.8996  0.6824 -1.2399
15922TIP3   OH269256   5.805   3.157   3.638 -0.1130 -0.5620 -0.2059
15922TIP3    H169257   5.850   3.108   3.569 -1.5837  0.0626 -1.6343
15922TIP3    H269258   5.780   3.240   3.597 -0.7209 -0.0448  1.1703
15923TIP3   OH269259   1.256   2.449  16.330  0.5144  0.3756 -0.5232
15923TIP3    H169260   1.202   2.464  16.408 -0.0004  1.3345 -1.0640
15923TIP3    H269261   1.345   2.467  16.359  0.5177 -0.8213  0.2666
15924TIP3   OH269262   6.160   4.695   3.240 -0.2518  0.5604 -0.0031
15924TIP3    H169263   6.138   4.659   3.326 -1.2940 -0.1918 -0.5653
15924TIP3    H269264   6.209   4.775   3.259  1.7017 -0.8872  1.2759
15925TIP3   OH269265   5.608   3.310   4.878 -0.0377 -0.7419 -0.0173
15925TIP3    H169266   5.663   3.233   4.866  0.8933 -0.1971  0.6646
15925TIP3    H269267   5.609   3.354   4.792  0.8975 -0.5448  0.0873
15926TIP3   OH269268   5.378   4.934   1.195 -1.2120 -0.2215 -0.3061
15926TIP3    H169269   5.391   4.855   1.247 -0.9168  0.0538  0.0476
15926TIP3    H269270   5.417   5.004   1.249  0.4480 -0.1508 -1.5469
15927TIP3   OH269271   4.383   5.551   4.064  0.3897  0.3809 -0.3971
15927TIP3    H169272   4.314   5.570   4.128  1.2146  1.0207  0.3094
15927TIP3    H269273   4.336   5.541   3.981 -0.2735  4.0267 -0.5387
15928TIP3   OH269274   1.100   3.846  11.240  0.0897  0.4022  0.0806
15928TIP3    H169275   1.020   3.808  11.202 -0.8150  0.8927  1.4627
15928TIP3    H269276   1.069   3.923  11.288  1.1262 -0.6092  2.4009
15929TIP3   OH269277   0.772   6.447   2.165  0.7930 -0.6496 -0.0493
15929TIP3    H169278   0.771   6.387   2.240 -2.5461 -0.6046  0.0482
15929TIP3    H269279   0.725   6.401   2.096 -2.6652  2.0676  0.3234
15930TIP3   OH269280   3.037   1.301  16.145  0.0304 -0.1907  0.3094
15930TIP3    H169281   3.107   1.283  16.082  0.4875 -0.5566  0.9139
15930TIP3    H269282   3.054   1.390  16.175 -1.1888  0.6194 -1.3445
15931TIP3   OH269283   6.377   6.282   1.610 -0.3234 -0.5866 -0.1513
15931TIP3    H169284   6.295   6.324   1.583 -0.7055 -1.6143 -0.6328
15931TIP3    H269285   6.437   6.296   1.537 -0.1809 -0.1491  0.0477
15932TIP3   OH269286   0.733   2.108  13.202  0.2002 -0.3333  0.0252
15932TIP3    H169287   0.718   2.015  13.185  2.5157 -0.2453 -2.7453
15932TIP3    H269288   0.803   2.133  13.143 -0.5330  3.2713  0.5529
15933TIP3   OH269289   6.515   5.535  14.334 -0.4095 -0.0487 -0.2503
15933TIP3    H169290   6.603   5.571  14.320  0.2766 -1.4897  0.2916
15933TIP3    H269291   6.467   5.605  14.377  0.4687  0.7582 -0.5680
15934TIP3   OH269292   2.424   1.416   0.976  0.1973  0.0555 -0.1828
15934TIP3    H169293   2.342   1.366   0.985  0.8356 -0.9100  0.3530
15934TIP3    H269294   2.470   1.374   0.904  0.8095 -0.2192  0.3703
15935TIP3   OH269295   4.711   2.213  15.324 -0.5024 -0.2532 -0.1391
15935TIP3    H169296   4.761   2.185  15.248 -2.3962  0.4791 -1.7204
15935TIP3    H269297   4.680   2.132  15.364 -1.1600 -0.5991 -1.3261
15936TIP3   OH269298   1.712   0.584  13.834 -0.0568  0.1630 -0.2124
15936TIP3    H169299   1.793   0.560  13.877  0.1233  0.1281 -0.5671
15936TIP3    H269300   1.646   0.583  13.903  0.4850  1.4631  0.3481
15937TIP3   OH269301   0.195   3.302  11.474 -0.3265  0.8932 -0.3370
15937TIP3    H169302   0.172   3.293  11.382  1.8281  0.1636 -0.8300
15937TIP3    H269303   0.270   3.361  11.474 -1.1333  1.9655  1.0919
15938TIP3   OH269304   2.563   6.586  16.076 -0.0232 -0.4865 -0.3670
15938TIP3    H169305   2.491   6.566  16.017  0.1570 -0.3121 -0.6474
15938TIP3    H269306   2.553   6.679  16.096  0.2878 -0.3952 -0.6334
15939TIP3   OH269307   6.036   5.883   1.401 -0.2121 -0.4200  0.3800
15939TIP3    H169308   5.950   5.860   1.365 -1.0875 -1.7045  3.1848
15939TIP3    H269309   6.024   5.969   1.439  0.6656  0.8538 -2.1137
15940TIP3   OH269310   4.871   3.444   3.441  1.2568  0.3434  0.2671
15940TIP3    H169311   4.817   3.516   3.474  1.7111  0.4546  0.7705
15940TIP3    H269312   4.845   3.436   3.349  0.6662  0.6544  0.4012
15941TIP3   OH269313   4.121   4.765  16.012 -0.9289  0.1471 -0.0286
15941TIP3    H169314   4.061   4.698  15.980  0.7169 -1.6901  0.6105
15941TIP3    H269315   4.206   4.720  16.017  0.1444  2.2050  0.7014
15942TIP3   OH269316   3.439   2.097  16.978  0.2609  0.5197 -0.0474
15942TIP3    H169317   3.392   2.175  17.008  2.3120  2.3531 -1.4283
15942TIP3    H269318   3.476   2.059  17.057  1.0891  2.2193  0.4136
15943TIP3   OH269319   5.904   1.241   2.765  0.1708 -0.6547 -0.3790
15943TIP3    H169320   6.000   1.243   2.770  0.1016 -0.1532  0.7975
15943TIP3    H269321   5.883   1.148   2.753  0.7692 -0.8771  0.2496
15944TIP3   OH269322   1.922   4.818   1.375 -0.1811  0.0717  0.6604
15944TIP3    H169323   1.913   4.723   1.370  2.1800 -0.2915  2.4078
15944TIP3    H269324   1.985   4.840   1.307  0.7575  0.1198  1.5298
15945TIP3   OH269325   0.977   4.617  14.498  0.1484 -0.1377 -0.0339
15945TIP3    H169326   0.978   4.555  14.426  2.0037  0.0097 -0.1681
15945TIP3    H269327   1.013   4.568  14.572  0.7490  0.4940  0.0959
15946TIP3   OH269328   3.613   1.641  12.882 -0.2382  0.1569 -0.0035
15946TIP3    H169329   3.669   1.703  12.837  1.3970 -0.6421  0.8533
15946TIP3    H269330   3.611   1.672  12.973 -0.0267 -0.5924  0.2664
15947TIP3   OH269331   1.809   1.823  13.570 -0.4075  0.7549 -0.7418
15947TIP3    H169332   1.831   1.755  13.506  0.5691  0.5549 -0.1998
15947TIP3    H269333   1.879   1.818  13.635 -1.2166  1.1897  0.1608
15948TIP3   OH269334   5.357   3.131  11.403  0.1499  0.6596  0.1103
15948TIP3    H169335   5.267   3.127  11.372  0.0024 -0.1888  0.6368
15948TIP3    H269336   5.410   3.118  11.324 -0.2042 -0.2015  0.0129
15949TIP3   OH269337   1.207   5.010  16.868 -0.3366 -0.1590 -0.3686
15949TIP3    H169338   1.302   5.019  16.872 -0.3112 -1.1395  2.1434
15949TIP3    H269339   1.192   4.938  16.807  0.7520 -2.5525  2.0845
15950TIP3   OH269340   5.773   5.909  14.947 -0.0674 -0.3482 -0.1759
15950TIP3    H169341   5.852   5.940  14.990  0.1869 -0.9149 -0.2280
15950TIP3    H269342   5.795   5.821  14.916 -0.2604  0.0338 -1.4288
15951TIP3   OH269343   4.823   3.154   2.741  0.1835  0.7015  0.6492
15951TIP3    H169344   4.841   3.124   2.830 -0.8102 -1.0057  0.2995
15951TIP3    H269345   4.909   3.163   2.700  0.6015  0.7335  1.5349
15952TIP3   OH269346   6.043   2.273  13.158  0.0831 -0.2968 -0.0627
15952TIP3    H169347   6.022   2.236  13.073 -0.7473 -0.7149  0.3258
15952TIP3    H269348   6.072   2.362  13.138  1.3490 -0.8824 -0.9203
15953TIP3   OH269349   0.106   1.058  13.374  0.1667  0.0347  0.6834
15953TIP3    H169350   0.021   1.100  13.363 -0.4592 -1.3650  0.0330
15953TIP3    H269351   0.170   1.127  13.354 -0.8495  0.5300 -0.9678
15954TIP3   OH269352   0.382   4.177  12.125 -0.6672  0.0235  0.0155
15954TIP3    H169353   0.401   4.253  12.181  0.4136  0.7829 -1.3678
15954TIP3    H269354   0.464   4.128  12.122 -0.7404 -0.0537 -0.8405
15955TIP3   OH269355   5.568   3.407   3.733  0.1528 -0.0482 -0.3512
15955TIP3    H169356   5.533   3.320   3.747  0.9895 -0.3096  0.1082
15955TIP3    H269357   5.527   3.461   3.800  1.0209 -0.4615  0.5207
15956TIP3   OH269358   1.546   6.432   2.009  0.2431 -0.1249 -0.1781
15956TIP3    H169359   1.611   6.430   1.939  0.6049 -2.7046  0.1730
15956TIP3    H269360   1.462   6.438   1.963  0.5068 -1.2998 -0.8242
15957TIP3   OH269361   6.133   3.404  14.624  0.3744  0.2439 -0.0688
15957TIP3    H169362   6.078   3.342  14.671 -1.3966  0.5012 -1.7601
15957TIP3    H269363   6.084   3.486  14.624  1.6951  1.0631  0.2053
15958TIP3   OH269364   4.265   4.538   5.221  0.2164 -0.0348 -0.4663
15958TIP3    H169365   4.285   4.618   5.269  1.2853 -0.5958  0.0335
15958TIP3    H269366   4.245   4.473   5.288  1.2460 -0.6920 -0.7742
15959TIP3   OH269367   5.495   4.175  12.853  0.2721  0.9432 -0.0631
15959TIP3    H169368   5.569   4.231  12.829 -0.9384  2.2115 -0.9073
15959TIP3    H269369   5.451   4.222  12.923 -0.4515  0.7788 -0.4077
15960TIP3   OH269370   4.272   1.897   1.934 -0.2280  0.5735  0.5482
15960TIP3    H169371   4.271   1.920   2.027  0.5008  1.2041  0.4084
15960TIP3    H269372   4.214   1.961   1.893  0.3603  1.0353  0.4165
15961TIP3   OH269373   3.877   0.999  12.525 -0.1078 -0.6175  0.2065
15961TIP3    H169374   3.853   1.084  12.489  1.2837  0.0811  0.9169
15961TIP3    H269375   3.953   0.971  12.474 -1.3011 -2.0209 -0.8576
15962TIP3   OH269376   6.142   4.224  11.100  0.0590  0.3234  0.1803
15962TIP3    H169377   6.123   4.289  11.032 -1.1247  2.5211  2.4958
15962TIP3    H269378   6.064   4.169  11.103 -1.5732  2.6431  2.3329
15963TIP3   OH269379   4.950   4.138  12.348  0.5056  0.6458  0.3017
15963TIP3    H169380   4.898   4.102  12.420 -0.2479  1.0881 -0.0131
15963TIP3    H269381   5.028   4.084  12.345 -0.0675 -0.2070  0.5988
15964TIP3   OH269382   0.128   2.937  12.718  0.3113 -0.4269  0.2548
15964TIP3    H169383   0.052   2.938  12.777  0.5283  0.7379  0.5303
15964TIP3    H269384   0.182   2.865  12.750  0.9881  0.9025  2.2562
15965TIP3   OH269385   0.624   6.395  16.527  0.6451  0.1770 -0.3570
15965TIP3    H169386   0.553   6.433  16.578  1.5973  0.0679  1.0753
15965TIP3    H269387   0.594   6.307  16.505 -0.0893  0.4978 -0.6253
15966TIP3   OH269388   0.353   0.314   3.630  0.1263 -0.1021  0.0574
15966TIP3    H169389   0.360   0.408   3.618  0.1546 -0.1115  0.0005
15966TIP3    H269390   0.318   0.304   3.719  0.6190 -0.0470  0.2618
15967TIP3   OH269391   4.125   2.783  14.418  0.4736  0.6087  0.7664
15967TIP3    H169392   4.076   2.794  14.500  2.2771 -2.4996  2.3279
15967TIP3    H269393   4.093   2.700  14.382  1.5099  0.7170 -0.4237
15968TIP3   OH269394   1.554   5.627  13.354 -0.2799 -0.3596  0.4818
15968TIP3    H169395   1.592   5.711  13.328 -0.0481 -0.8050 -0.6692
15968TIP3    H269396   1.556   5.574  13.274  0.7090 -1.8871  1.5003
15969TIP3   OH269397   6.652   6.156   3.018 -0.2296 -0.0303 -0.5148
15969TIP3    H169398   6.720   6.089   3.030  1.8944  2.0333 -0.7433
15969TIP3    H269399   6.666   6.190   2.930  0.8228  2.9539  0.7348
15970TIP3   OH269400   0.770   4.835   2.922 -0.1343 -0.5235 -0.1568
15970TIP3    H169401   0.837   4.771   2.946  1.8583  1.2257 -0.9493
15970TIP3    H269402   0.807   4.883   2.848 -2.3502  0.3391 -0.7569
15971TIP3   OH269403   6.335   5.944   0.748 -0.4195 -0.1646  0.1916
15971TIP3    H169404   6.377   5.929   0.663  0.5545  0.3947  0.5703
15971TIP3    H269405   6.241   5.942   0.728 -0.2007  0.1074 -0.9279
15972TIP3   OH269406   5.662   4.418  12.882 -0.8074  0.2713  0.2800
15972TIP3    H169407   5.641   4.439  12.791  0.0743  1.4210  0.3271
15972TIP3    H269408   5.608   4.477  12.934 -0.1535  0.7047  0.4704
15973TIP3   OH269409   2.152   6.013  11.648  0.2725  0.3045 -0.2201
15973TIP3    H169410   2.057   6.007  11.663  0.4676  0.8143  1.1851
15973TIP3    H269411   2.184   6.072  11.715  1.8010 -0.9138  0.1540
15974TIP3   OH269412   5.422   0.195  12.412  0.0712 -0.2014 -0.1341
15974TIP3    H169413   5.483   0.151  12.472  0.5267  0.5456 -0.0456
15974TIP3    H269414   5.467   0.276  12.388 -1.4500  0.9659  0.9354
15975TIP3   OH269415   5.289   5.229   5.649  0.0287  0.3745  0.1891
15975TIP3    H169416   5.254   5.317   5.661 -0.2921  0.0850  1.5535
15975TIP3    H269417   5.364   5.225   5.708  0.6515  0.0637 -0.6214
15976TIP3   OH269418   1.315   2.164  12.364 -0.0239  0.0734 -0.4518
15976TIP3    H169419   1.242   2.203  12.317  1.6837 -0.3790 -3.5897
15976TIP3    H269420   1.327   2.078  12.323  1.8856 -0.0948  0.4032
15977TIP3   OH269421   6.563   1.624  12.080 -0.1776 -0.0114  0.3751
15977TIP3    H169422   6.536   1.533  12.074 -1.8380  0.5644 -1.5727
15977TIP3    H269423   6.498   1.665  12.137 -0.9250  0.4739 -0.8136
15978TIP3   OH269424   4.696   0.010   0.910 -0.0866 -0.4645  0.1339
15978TIP3    H169425   4.759   0.067   0.865 -0.9364  1.7280  1.6345
15978TIP3    H269426   4.611   0.050   0.892 -1.1228 -3.4289 -1.9054
15979TIP3   OH269427   3.106   3.025   3.790 -0.2783 -0.3257 -0.5521
15979TIP3    H169428   3.042   3.093   3.811 -1.1043 -1.5070  0.7997
15979TIP3    H269429   3.053   2.947   3.773  0.7997 -1.5156  1.3493
15980TIP3   OH269430   4.108   4.723   5.396  0.2517 -0.2455 -0.5800
15980TIP3    H169431   4.122   4.790   5.463 -0.5432 -0.3063 -0.3509
15980TIP3    H269432   4.054   4.657   5.440 -1.0267  0.1337 -1.5495
15981TIP3   OH269433   4.460   1.536  14.240 -0.3137  0.3009  0.0098
15981TIP3    H169434   4.448   1.514  14.148 -0.2317  0.6107 -0.0760
15981TIP3    H269435   4.376   1.516  14.281 -0.1784 -0.3504 -0.0302
15982TIP3   OH269436   6.719   4.302  11.862  0.0325 -0.4511 -0.0676
15982TIP3    H169437   6.746   4.393  11.846 -0.3072  0.0430  1.9969
15982TIP3    H269438   6.625   4.308  11.878 -0.2993 -1.4120 -1.6722
15983TIP3   OH269439   3.183   4.948  12.439  0.7983  0.3286 -0.0387
15983TIP3    H169440   3.272   4.940  12.407  0.8863 -1.6055  0.6161
15983TIP3    H269441   3.164   4.864  12.480 -0.9505  1.0842  0.7958
15984TIP3   OH269442   4.897   4.175   2.284  0.4975  0.2339  0.7655
15984TIP3    H169443   4.982   4.171   2.241  0.2922  1.2138  0.2558
15984TIP3    H269444   4.882   4.086   2.317  0.2360 -0.8055 -1.9989
15985TIP3   OH269445   3.156   3.421  15.402 -0.0636 -0.2766 -0.4247
15985TIP3    H169446   3.217   3.483  15.363  0.9404 -0.8718  0.1843
15985TIP3    H269447   3.076   3.472  15.417  1.7856  1.7583  3.0907
15986TIP3   OH269448   3.663   4.373  14.342  0.3151  0.1038 -0.6860
15986TIP3    H169449   3.605   4.300  14.365 -1.7253  1.7284 -0.5138
15986TIP3    H269450   3.630   4.402  14.257  0.6450  1.2911 -0.4047
15987TIP3   OH269451   3.655   3.601  14.262  0.1430 -0.1925  0.0967
15987TIP3    H169452   3.730   3.642  14.304 -0.3897 -0.6884  1.5867
15987TIP3    H269453   3.601   3.674  14.233  0.1622  0.1688  0.9596
15988TIP3   OH269454   2.809   5.391   4.077  0.1834  0.2594 -0.6934
15988TIP3    H169455   2.746   5.454   4.043 -0.8978  0.8095  2.1888
15988TIP3    H269456   2.859   5.440   4.143  0.3597 -1.4696  0.4904
15989TIP3   OH269457   4.500   6.452   2.729 -0.0745 -0.2834 -0.4248
15989TIP3    H169458   4.458   6.465   2.814  0.2102 -3.2378  0.2375
15989TIP3    H269459   4.576   6.510   2.731  0.0733 -0.5095  1.4502
15990TIP3   OH269460   5.180   0.353   4.140 -0.2523 -0.4368  0.1823
15990TIP3    H169461   5.126   0.398   4.205 -0.2299  0.6949 -0.5726
15990TIP3    H269462   5.126   0.278   4.112 -1.0384  0.1314  0.1468
15991TIP3   OH269463   0.424   2.451  11.362  0.5698 -0.1359  0.2451
15991TIP3    H169464   0.382   2.387  11.419  1.6852 -0.7929  0.3426
15991TIP3    H269465   0.355   2.515  11.343 -0.2941 -0.8558  0.9012
15992TIP3   OH269466   2.694   1.574  12.235 -0.3498 -0.0269 -0.2870
15992TIP3    H169467   2.712   1.576  12.329  0.1816 -0.5075 -0.3706
15992TIP3    H269468   2.599   1.566  12.229 -0.3290 -0.7194  0.2203
15993TIP3   OH269469   2.036   2.852   1.614  0.1601 -0.6491 -0.1720
15993TIP3    H169470   2.077   2.928   1.573 -0.6625 -0.0248  0.1605
15993TIP3    H269471   2.103   2.818   1.673 -0.0082  0.7539  0.8598
15994TIP3   OH269472   4.231   3.856   1.850  0.0728 -0.0578  0.1975
15994TIP3    H169473   4.289   3.822   1.917 -0.1519 -0.1712  0.3343
15994TIP3    H269474   4.184   3.779   1.817  0.4140 -0.0513 -0.3127
15995TIP3   OH269475   2.447   6.183  14.186 -0.9363 -0.0818  0.3085
15995TIP3    H169476   2.440   6.088  14.175 -1.8068  0.1400 -1.1541
15995TIP3    H269477   2.369   6.218  14.143 -0.6292  1.2974  0.8493
15996TIP3   OH269478   1.580   6.054   3.341 -0.2273  0.2130 -0.0774
15996TIP3    H169479   1.516   6.120   3.370 -1.5200 -2.5359  3.6693
15996TIP3    H269480   1.643   6.104   3.289 -3.6982  3.5668 -1.2791
15997TIP3   OH269481   0.969   0.417  11.520 -0.1420  0.1995  0.4687
15997TIP3    H169482   1.030   0.460  11.460  0.4366  0.8783  1.5202
15997TIP3    H269483   0.894   0.477  11.526  0.0726  0.4257  0.9001
15998TIP3   OH269484   1.373   0.593  15.078  1.0937 -0.7346  0.2769
15998TIP3    H169485   1.467   0.582  15.064  1.8495  1.5611  3.0895
15998TIP3    H269486   1.367   0.657  15.149 -2.6214  0.7345 -1.2620
15999TIP3   OH269487   1.416   2.430   0.823 -0.1330 -0.4128  0.1592
15999TIP3    H169488   1.429   2.382   0.905  1.6012 -1.9027 -0.9508
15999TIP3    H269489   1.339   2.485   0.839  0.6652 -0.0512  3.0560
16000TIP3   OH269490   5.013   0.736  11.755 -0.3792  0.0401  0.1437
16000TIP3    H169491   4.924   0.767  11.735 -0.4693 -1.0806 -1.2949
16000TIP3    H269492   5.004   0.640  11.761  0.9401 -0.1731 -1.1102
16001TIP3   OH269493   3.535   4.016  14.659 -0.7294 -0.4980 -0.5085
16001TIP3    H169494   3.462   4.071  14.688 -0.5675 -0.3642 -0.3558
16001TIP3    H269495   3.585   3.999  14.739  0.0370  0.3404 -0.8073
16002TIP3   OH269496   3.016   2.525   2.208 -0.0672  0.2064 -0.6262
16002TIP3    H169497   3.037   2.567   2.125 -0.6478  0.6298 -0.5637
16002TIP3    H269498   3.069   2.446   2.209  0.3635  0.4844 -1.1483
16003TIP3   OH269499   4.903   5.855  16.543  0.4475  0.1392 -0.0692
16003TIP3    H169500   4.956   5.827  16.468  0.7720  0.6506 -0.0266
16003TIP3    H269501   4.951   5.823  16.620 -1.6296 -3.4980 -0.1458
16004TIP3   OH269502   0.277   0.014   2.116 -0.0365 -0.3290 -0.1376
16004TIP3    H169503   0.362  -0.010   2.154 -0.0842  1.2123  0.9679
16004TIP3    H269504   0.218  -0.055   2.146  0.2559  0.0517  1.3707
16005TIP3   OH269505   0.452   2.965   3.590 -0.3938 -0.0003  0.1305
16005TIP3    H169506   0.405   2.908   3.651  0.5842  0.1580  1.0405
16005TIP3    H269507   0.383   3.006   3.538 -1.0970 -3.7790 -2.1670
16006TIP3   OH269508   2.470   1.673  14.843 -0.1810  0.6590 -0.0409
16006TIP3    H169509   2.515   1.654  14.925 -0.5333 -1.2743 -0.2748
16006TIP3    H269510   2.468   1.768  14.838 -0.3990  0.8076  2.3462
16007TIP3   OH269511   3.958   1.527  11.981  0.6981  0.0970  0.0145
16007TIP3    H169512   4.040   1.481  11.999  0.2114 -0.5517  0.6502
16007TIP3    H269513   3.941   1.511  11.888  0.7088 -0.7435  0.1482
16008TIP3   OH269514   3.306   1.471   1.792 -0.0040  0.4661 -0.1774
16008TIP3    H169515   3.362   1.486   1.716 -0.5757 -0.0791 -0.7086
16008TIP3    H269516   3.237   1.536   1.785 -0.0009  0.4826 -0.0624
16009TIP3   OH269517   6.758   6.556   6.182  0.1033  0.0767 -0.6379
16009TIP3    H169518   6.819   6.629   6.184 -0.4238  0.4982  2.2214
16009TIP3    H269519   6.682   6.589   6.135  0.4574  0.8706 -0.6616
16010TIP3   OH269520   5.283   0.066   3.670 -0.1740 -0.2795  0.4279
16010TIP3    H169521   5.220   0.027   3.731  0.6769  1.0419  2.1948
16010TIP3    H269522   5.353   0.002   3.663  0.6076  0.3128  2.3269
16011TIP3   OH269523   3.572   5.993   0.576  0.3946  0.0595  0.3728
16011TIP3    H169524   3.606   6.000   0.666 -0.0972 -2.5123  0.8276
16011TIP3    H269525   3.650   5.980   0.522  0.5179 -1.4343  0.8589
16012TIP3   OH269526   2.800   1.727  10.754 -0.2875  0.4098  1.0415
16012TIP3    H169527   2.765   1.815  10.769  0.1728  0.8730 -0.5174
16012TIP3    H269528   2.749   1.694  10.680  1.4233  0.4612 -0.1887
16013TIP3   OH269529   6.499   5.176   2.818 -0.1964  0.1885 -0.2337
16013TIP3    H169530   6.456   5.152   2.736  0.3321 -0.2135 -0.3955
16013TIP3    H269531   6.477   5.105   2.878  0.2079  0.0049 -0.3035
16014TIP3   OH269532   2.815   3.003  14.512 -0.3428  0.1891  0.5222
16014TIP3    H169533   2.796   2.928  14.568  2.6364  0.5197  2.0424
16014TIP3    H269534   2.829   2.965  14.425  0.0977 -0.9038  1.0633
16015TIP3   OH269535   5.202   0.052   6.116 -0.3095  0.6971  0.1057
16015TIP3    H169536   5.280   0.023   6.163  1.4401  2.1421 -1.8162
16015TIP3    H269537   5.131   0.047   6.180  1.1512 -1.6180  1.5914
16016TIP3   OH269538   5.527   3.566   1.793 -0.7529  0.5257  0.4515
16016TIP3    H169539   5.571   3.608   1.867 -1.1324 -1.0245  1.5995
16016TIP3    H269540   5.588   3.574   1.720  0.0112  1.2869  1.1741
16017TIP3   OH269541   0.473   4.616  16.950  0.5012  0.2601  0.6368
16017TIP3    H169542   0.466   4.651  17.039  2.1838 -1.8341  1.6517
16017TIP3    H269543   0.550   4.661  16.913  1.1153 -0.4522  1.0296
16018TIP3   OH269544   2.634   1.668   5.630  0.6884  0.0199  0.0127
16018TIP3    H169545   2.631   1.703   5.719 -0.8360  1.0381 -0.4056
16018TIP3    H269546   2.579   1.728   5.579  1.4317 -0.6194 -1.5914
16019TIP3   OH269547   0.600   0.302  14.509  0.7254  0.2008 -0.5263
16019TIP3    H169548   0.550   0.251  14.445  0.3709  1.4544 -1.2633
16019TIP3    H269549   0.576   0.393  14.491  0.0368  0.5202  1.8712
16020TIP3   OH269550   1.955   0.773  15.391  0.3923  0.1115 -0.3044
16020TIP3    H169551   1.988   0.696  15.346 -0.7262  0.1515 -1.2090
16020TIP3    H269552   2.003   0.846  15.353  1.4667 -0.1186  0.5653
16021TIP3   OH269553   2.412   0.926   3.799  0.6403 -1.1756  0.2493
16021TIP3    H169554   2.317   0.917   3.806  0.6920 -0.9293  1.4615
16021TIP3    H269555   2.426   1.010   3.756  0.3047 -1.7688 -1.0528
16022TIP3   OH269556   0.852   2.845   6.067 -0.4887 -0.4349  0.2238
16022TIP3    H169557   0.903   2.879   6.141 -2.0515  0.1601  1.0605
16022TIP3    H269558   0.828   2.756   6.093 -0.5612 -0.4286  0.1769
16023TIP3   OH269559   6.301   1.104   4.871 -0.0727 -0.2753 -0.0042
16023TIP3    H169560   6.369   1.042   4.895  0.1159 -0.0645 -0.0007
16023TIP3    H269561   6.309   1.113   4.776  2.5693  2.8819  0.4671
16024TIP3   OH269562   4.271   0.255   0.104 -0.0504 -0.3278 -0.0631
16024TIP3    H169563   4.204   0.248   0.173  0.2781  0.8741  0.3732
16024TIP3    H269564   4.349   0.287   0.149  0.3068 -0.0040 -0.9113
16025TIP3   OH269565   2.734   2.110  11.542 -0.0976  0.0539 -0.3191
16025TIP3    H169566   2.706   2.091  11.452 -0.6296  0.7058 -0.2895
16025TIP3    H269567   2.757   2.203  11.540  0.8572 -0.1683 -0.0263
16026TIP3   OH269568   3.404   5.406   0.838  0.3194  0.1222  0.1059
16026TIP3    H169569   3.490   5.413   0.797 -0.3085  1.5638 -0.9824
16026TIP3    H269570   3.406   5.320   0.881  1.6329 -0.6702 -1.4604
16027TIP3   OH269571   5.841   5.282   3.149 -0.4609 -0.1309 -0.8054
16027TIP3    H169572   5.834   5.252   3.240 -0.3843 -0.2673 -0.8439
16027TIP3    H269573   5.934   5.298   3.136 -0.7512  2.2472 -0.1175
16028TIP3   OH269574   2.761   0.257   2.696  0.2422  0.1135  0.2371
16028TIP3    H169575   2.732   0.204   2.622 -0.2483  1.0208 -0.2315
16028TIP3    H269576   2.751   0.200   2.773 -0.8954 -0.2472 -0.1712
16029TIP3   OH269577   2.549   5.260  11.592  0.1607  0.1699 -0.4121
16029TIP3    H169578   2.589   5.240  11.508 -0.8375 -0.4385 -0.7584
16029TIP3    H269579   2.578   5.189  11.650  1.7470  1.1955  0.0627
16030TIP3   OH269580   2.905   5.375   3.642 -0.2631 -0.8891 -0.5505
16030TIP3    H169581   2.958   5.350   3.567 -0.3726 -0.0085 -0.9293
16030TIP3    H269582   2.929   5.313   3.711  1.5466 -0.2677 -0.6037
16031TIP3   OH269583   0.109   0.944  14.391  0.0378  0.0932 -0.8075
16031TIP3    H169584   0.087   0.907  14.305  0.6645 -2.2163 -0.0112
16031TIP3    H269585   0.160   1.022  14.372 -1.4904  0.6984 -2.5595
16032TIP3   OH269586   6.230   5.069   0.230 -0.4126 -0.2511 -0.1798
16032TIP3    H169587   6.200   4.991   0.277  0.5286  1.2015  2.9808
16032TIP3    H269588   6.158   5.132   0.239 -0.9904 -0.5898 -2.3294
16033TIP3   OH269589   6.416   5.435  15.765 -0.0201  0.2928  0.3433
16033TIP3    H169590   6.489   5.457  15.823 -0.1038  2.1486 -0.2152
16033TIP3    H269591   6.420   5.501  15.695 -2.5112  0.7388  0.5640
16034TIP3   OH269592   4.662   6.715  12.326 -0.3194 -0.0732  0.3441
16034TIP3    H169593   4.755   6.720  12.348 -0.2288 -0.2272  0.0015
16034TIP3    H269594   4.627   6.647  12.384 -0.5476  1.0798  1.5811
16035TIP3   OH269595   5.787   3.808  16.313 -0.0078  0.0888  0.2429
16035TIP3    H169596   5.739   3.761  16.380 -0.4117  0.2168  0.0469
16035TIP3    H269597   5.734   3.798  16.234  0.2082  0.3620  0.0643
16036TIP3   OH269598   2.645   0.716   6.109 -0.8231 -0.0460  0.1772
16036TIP3    H169599   2.691   0.652   6.056 -0.8516 -2.3793  2.8478
16036TIP3    H269600   2.693   0.718   6.192 -3.4929 -0.0374  1.7956
16037TIP3   OH269601   0.298   1.623  15.674  0.1574 -0.1624  0.5454
16037TIP3    H169602   0.314   1.706  15.720 -1.6597  1.0663 -0.9858
16037TIP3    H269603   0.349   1.629  15.594 -0.9383  0.0044 -0.1485
16038TIP3   OH269604   0.747   1.956   6.387  0.2167 -0.4688 -0.0594
16038TIP3    H169605   0.752   2.019   6.459  0.1678 -2.8449  2.0802
16038TIP3    H269606   0.661   1.971   6.348 -0.4149 -0.2242  1.3872
16039TIP3   OH269607   4.117   4.664   2.876  0.3774  0.1426  0.2727
16039TIP3    H169608   4.063   4.603   2.825  1.8617 -1.4032  0.5043
16039TIP3    H269609   4.112   4.746   2.827 -0.5244 -0.5419 -0.8162
16040TIP3   OH269610   1.346   2.059  15.768 -0.6179  0.0470  0.1948
16040TIP3    H169611   1.349   1.971  15.805  1.0397 -0.0702 -0.2034
16040TIP3    H269612   1.426   2.101  15.797 -0.6238  0.8951 -0.9454
16041TIP3   OH269613   5.331   2.508   2.085  0.4666  0.4263 -0.3126
16041TIP3    H169614   5.393   2.540   2.020 -1.5563  0.1983 -2.4228
16041TIP3    H269615   5.264   2.462   2.034 -1.2384  0.3475  1.9054
16042TIP3   OH269616   5.228   0.715  14.412 -0.3823  0.1048  0.1795
16042TIP3    H169617   5.245   0.640  14.468 -0.8347  0.6554  1.0624
16042TIP3    H269618   5.264   0.690  14.327 -0.0435 -0.8888  0.6092
16043TIP3   OH269619   4.273   6.613  12.651  0.0072  0.0400  0.2310
16043TIP3    H169620   4.186   6.648  12.634 -0.1643 -0.9715 -1.0890
16043TIP3    H269621   4.301   6.577  12.566  1.1020 -0.9582  1.0007
16044TIP3   OH269622   3.873   1.179   2.300  0.3304 -0.2070  0.0264
16044TIP3    H169623   3.827   1.118   2.358  0.0491 -2.3287 -2.3536
16044TIP3    H269624   3.834   1.265   2.320 -2.2608 -1.4360  0.4466
16045TIP3   OH269625   3.453   3.797   1.978 -0.1526  0.7528 -0.7442
16045TIP3    H169626   3.534   3.790   2.028 -0.6096  0.5617 -0.0090
16045TIP3    H269627   3.423   3.887   1.994 -1.4251  0.0224  1.1243
16046TIP3   OH269628   0.846   5.763  16.022  0.6782 -0.5677 -0.3973
16046TIP3    H169629   0.904   5.838  16.028 -0.1401  0.0265  0.0994
16046TIP3    H269630   0.776   5.791  15.963  0.2326 -0.8447 -0.0050
16047TIP3   OH269631   4.974   4.880  13.981  0.5904  0.0451  0.4901
16047TIP3    H169632   4.891   4.922  14.003  0.9970  0.8260  0.5457
16047TIP3    H269633   4.954   4.826  13.904  0.2777  1.0663 -0.1584
16048TIP3   OH269634   1.191   4.909  13.255 -1.0507  0.0795 -0.3589
16048TIP3    H169635   1.183   4.907  13.160  2.7372  0.7463 -0.7623
16048TIP3    H269636   1.168   4.821  13.283 -0.6565 -0.5830 -2.0480
16049TIP3   OH269637   3.968   6.132   0.243  0.7263  0.3034 -0.1387
16049TIP3    H169638   4.008   6.217   0.230  1.2995  0.4780  2.4384
16049TIP3    H269639   4.019   6.072   0.188  1.3251  1.3649 -0.7425
16050TIP3   OH269640   2.319   3.100   2.180  0.0778 -0.2993 -0.2245
16050TIP3    H169641   2.368   3.048   2.117 -1.4649 -0.5031 -1.2930
16050TIP3    H269642   2.257   3.039   2.219 -0.6682  0.3882 -0.3308
16051TIP3   OH269643   0.204   4.828  12.593 -0.1101  0.4429  0.0847
16051TIP3    H169644   0.146   4.843  12.668  0.8844  1.8324  0.5926
16051TIP3    H269645   0.290   4.812  12.632 -0.0304 -1.1889 -0.6885
16052TIP3   OH269646   2.084   4.010   1.418 -0.3048 -0.1522 -0.0418
16052TIP3    H169647   2.135   4.073   1.368  0.1550 -0.5407 -0.0688
16052TIP3    H269648   2.145   3.977   1.484 -1.1669  1.0370  1.3745
16053TIP3   OH269649   2.338   0.671  15.677 -0.1475 -0.3153  0.2258
16053TIP3    H169650   2.280   0.747  15.681 -0.8191 -0.8581  0.9261
16053TIP3    H269651   2.426   0.709  15.682 -0.4422  0.4800 -0.4328
16054TIP3   OH269652   5.446   3.512  16.375 -0.2705  0.0872  0.3757
16054TIP3    H169653   5.468   3.435  16.323  0.8081  1.1053 -0.7282
16054TIP3    H269654   5.351   3.521  16.367 -0.4300 -1.2973  0.7570
16055TIP3   OH269655   3.683   3.333  11.639 -0.6686  0.3001 -0.2072
16055TIP3    H169656   3.599   3.375  11.655 -1.0321  0.5029 -2.4995
16055TIP3    H269657   3.742   3.372  11.704 -2.1457  0.6871  0.9324
16056TIP3   OH269658   2.100   6.678  14.111  0.3369 -0.2333  0.2070
16056TIP3    H169659   2.168   6.745  14.100  0.6603 -0.7995 -1.2498
16056TIP3    H269660   2.088   6.642  14.024 -1.5878 -0.3904  0.5316
16057TIP3   OH269661   2.047   3.709  11.551  0.2793  0.6346 -0.3324
16057TIP3    H169662   2.055   3.792  11.597  2.8672 -0.1082  0.5921
16057TIP3    H269663   1.999   3.652  11.612  2.7684 -0.0201  1.0674
16058TIP3   OH269664   4.203   3.919  15.835  0.1016  0.1857  0.0412
16058TIP3    H169665   4.240   3.883  15.755 -0.3228 -0.4156  0.1082
16058TIP3    H269666   4.110   3.934  15.815 -0.3204 -1.2372  0.8165
16059TIP3   OH269667   3.199   3.712   2.502  0.2852  0.3610 -0.5255
16059TIP3    H169668   3.192   3.768   2.426 -0.9387  0.0016 -0.6893
16059TIP3    H269669   3.119   3.729   2.552 -0.0792 -1.1891 -0.5578
16060TIP3   OH269670   6.360   6.552  16.792  0.9554 -0.3083  0.2042
16060TIP3    H169671   6.278   6.505  16.807 -0.1481  1.0105 -1.4846
16060TIP3    H269672   6.348   6.636  16.836  1.6781 -0.3579  0.5049
16061TIP3   OH269673   6.165   2.360  13.793  0.1468 -0.1861 -0.7612
16061TIP3    H169674   6.198   2.282  13.751  0.4761  0.8087 -2.3837
16061TIP3    H269675   6.201   2.357  13.882 -1.3674 -2.7939 -0.2124
16062TIP3   OH269676   3.545   2.968   5.575 -0.2502 -0.7278  0.3412
16062TIP3    H169677   3.578   2.885   5.609 -0.6135 -1.3140 -0.7229
16062TIP3    H269678   3.613   3.032   5.596 -0.6939 -0.9643  2.6218
16063TIP3   OH269679   6.441   4.020  15.399 -0.3666 -0.3856 -0.1196
16063TIP3    H169680   6.431   4.108  15.435 -0.5263 -0.3475 -0.2548
16063TIP3    H269681   6.372   3.969  15.443 -0.0294 -0.5301  0.2404
16064TIP3   OH269682   4.641   2.715  12.661 -0.4800  0.0670  0.2754
16064TIP3    H169683   4.684   2.717  12.746 -0.6743 -0.9732  0.3986
16064TIP3    H269684   4.658   2.627  12.628 -1.6129  0.0107 -0.1447
16065TIP3   OH269685   0.044   3.419  13.267 -0.3185  0.1892 -0.2920
16065TIP3    H169686   0.087   3.499  13.296  2.6005 -1.2992 -0.2851
16065TIP3    H269687   0.013   3.377  13.347  1.0996 -0.2855  0.0165
16066TIP3   OH269688   1.141   4.843  14.700  0.1195 -0.1862  0.1867
16066TIP3    H169689   1.091   4.924  14.704  0.2178 -0.0405 -1.2593
16066TIP3    H269690   1.136   4.816  14.608  1.2124 -1.1068  0.3846
16067TIP3   OH269691   1.452   3.010  12.282  0.1790 -0.0286 -0.4722
16067TIP3    H169692   1.405   3.034  12.362  0.3852  0.4217 -0.4864
16067TIP3    H269693   1.538   2.981  12.313  0.3115  0.2900 -0.5436
16068TIP3   OH269694   3.998   3.500  13.308  0.3053  0.0416  0.4521
16068TIP3    H169695   3.948   3.427  13.273  1.1099 -1.1229  1.6891
16068TIP3    H269696   4.058   3.523  13.237  1.1663 -1.5758  0.6316
16069TIP3   OH269697   5.258   0.014   1.605 -0.2653  0.3014  0.5931
16069TIP3    H169698   5.240   0.015   1.699  1.1476 -1.1840  0.9082
16069TIP3    H269699   5.321   0.085   1.592  0.4985 -0.2967  0.9865
16070TIP3   OH269700   2.966   5.945   0.047  0.3931 -0.2280 -0.3226
16070TIP3    H169701   3.013   5.946   0.130 -1.1176  2.0740  0.5380
16070TIP3    H269702   3.015   6.004  -0.009 -1.0004  1.5771  0.3318
16071TIP3   OH269703   1.760   2.986   6.564  0.2207 -0.1405  0.0752
16071TIP3    H169704   1.791   2.931   6.492  0.0193 -0.3330  0.1348
16071TIP3    H269705   1.790   2.940   6.643  0.2073 -0.0714  0.1201
16072TIP3   OH269706   6.605   4.905  11.284  0.2220 -0.1074  0.2226
16072TIP3    H169707   6.562   4.977  11.329 -1.0934  0.0942 -1.3165
16072TIP3    H269708   6.681   4.944  11.241 -0.7484  0.4392 -0.9865
16073TIP3   OH269709   3.054   1.773   5.417  0.8198  0.1959  0.2084
16073TIP3    H169710   3.017   1.700   5.466 -0.1004 -1.0573 -2.2450
16073TIP3    H269711   2.992   1.845   5.431  0.3374 -0.2766  0.5064
16074TIP3   OH269712   5.883   3.989   0.887  0.1033  0.3036  0.1883
16074TIP3    H169713   5.877   3.963   0.979 -1.2821  1.1759  0.3738
16074TIP3    H269714   5.796   4.026   0.868 -0.3081 -1.7698 -2.0676
16075TIP3   OH269715   3.129   6.346  10.418  0.1450 -0.0309 -0.1759
16075TIP3    H169716   3.213   6.374  10.383  0.6754 -0.0875  1.0423
16075TIP3    H269717   3.102   6.273  10.362  0.3208  0.7735 -1.3203
16076TIP3   OH269718   0.641   5.720   4.558 -0.2017 -0.3930  0.0024
16076TIP3    H169719   0.725   5.700   4.516  0.9715  1.4583  1.3756
16076TIP3    H269720   0.641   5.667   4.637 -0.3243 -0.4067 -0.0067
16077TIP3   OH269721   0.420   3.574   2.183 -0.1844 -0.0966  0.1489
16077TIP3    H169722   0.394   3.662   2.155 -0.7681  0.2009  1.5614
16077TIP3    H269723   0.501   3.556   2.136 -1.1084  0.3992 -1.6676
16078TIP3   OH269724   6.315   1.125   4.036  0.0362 -0.8209 -0.0190
16078TIP3    H169725   6.409   1.121   4.018  0.3638 -0.0229  1.4193
16078TIP3    H269726   6.309   1.169   4.121 -1.6730 -0.2689 -0.4111
16079TIP3   OH269727   1.548   3.864  15.093 -0.3598 -0.2439 -0.2390
16079TIP3    H169728   1.509   3.787  15.050  1.3577  0.0300 -2.3528
16079TIP3    H269729   1.475   3.925  15.102 -0.9981 -0.7226 -1.8670
16080TIP3   OH269730   4.177   5.805   3.990 -0.1355 -0.2761  0.3486
16080TIP3    H169731   4.122   5.855   3.930 -0.9842 -0.9767  0.5299
16080TIP3    H269732   4.243   5.867   4.021  0.3147  0.1002 -1.3105
16081TIP3   OH269733   0.496   2.553   3.452 -0.6311  0.3459  0.4248
16081TIP3    H169734   0.535   2.470   3.424 -1.4186 -0.3796  1.4115
16081TIP3    H269735   0.534   2.618   3.394  1.1654 -0.4993  0.6088
16082TIP3   OH269736   1.854   3.465   2.632  0.4153 -0.1288  0.3344
16082TIP3    H169737   1.759   3.457   2.635  0.3551  0.5160  0.2878
16082TIP3    H269738   1.870   3.559   2.628  1.0645 -0.2204  0.6825
16083TIP3   OH269739   0.021   5.600   3.666  0.0419  0.4449 -0.1136
16083TIP3    H169740   0.032   5.694   3.649  0.6939  1.0277  3.2371
16083TIP3    H269741  -0.074   5.586   3.658 -0.3720  1.9331  1.6303
16084TIP3   OH269742   5.468   1.801   5.267  0.0491  0.1620  0.0196
16084TIP3    H169743   5.409   1.741   5.221  0.4035  0.4442 -0.8001
16084TIP3    H269744   5.456   1.779   5.360 -0.0719 -0.9502 -0.2507
16085TIP3   OH269745   2.157   5.851  15.421  0.1948  1.0007  0.7914
16085TIP3    H169746   2.149   5.946  15.408 -0.2052  1.0500  1.4033
16085TIP3    H269747   2.086   5.829  15.479 -0.1630  0.1954  0.0562
16086TIP3   OH269748   3.869   1.533   1.101 -0.3029 -0.4808 -0.2229
16086TIP3    H169749   3.851   1.465   1.166  1.0298 -0.7407 -0.1003
16086TIP3    H269750   3.872   1.614   1.150  1.2086 -0.7392  0.1493
16087TIP3   OH269751   3.461   2.426   5.753 -0.5626 -0.1601 -0.1838
16087TIP3    H169752   3.394   2.421   5.685  0.6444 -2.7305 -1.2620
16087TIP3    H269753   3.418   2.393   5.832 -0.8515 -0.8932 -0.6419
16088TIP3   OH269754   6.786   1.987   2.064 -0.2639 -1.2384  0.6710
16088TIP3    H169755   6.785   1.968   2.157  1.1468  0.1144  0.9830
16088TIP3    H269756   6.862   1.941   2.030 -0.4461 -1.2641  0.2902
16089TIP3   OH269757   2.659   2.640  15.451 -0.6000 -0.2690  0.1827
16089TIP3    H169758   2.739   2.598  15.483  0.1442  1.1168  0.1636
16089TIP3    H269759   2.688   2.693  15.376 -1.1283  1.9935  1.5305
16090TIP3   OH269760   2.207   3.441   5.538 -0.2766  0.7493  0.3051
16090TIP3    H169761   2.115   3.421   5.553 -0.2948  1.5027  1.2724
16090TIP3    H269762   2.255   3.378   5.592 -0.1769 -0.3772 -1.0547
16091TIP3   OH269763   6.151   6.467  11.842 -0.8104 -0.2316  0.0909
16091TIP3    H169764   6.223   6.464  11.905  1.0918 -1.2837 -2.0348
16091TIP3    H269765   6.136   6.376  11.819  0.3114  0.2548 -2.8445
16092TIP3   OH269766   6.477   1.862   4.108  0.4465  0.0212  0.0982
16092TIP3    H169767   6.487   1.858   4.013 -0.3709 -0.9969  0.0408
16092TIP3    H269768   6.391   1.903   4.121  0.4658 -0.0329  0.3966
16093TIP3   OH269769   1.738   6.673  11.599 -0.4511  0.0498  0.0217
16093TIP3    H169770   1.677   6.682  11.525 -0.0577  1.1305 -0.1683
16093TIP3    H269771   1.817   6.720  11.572 -0.6745  1.3527  1.5379
16094TIP3   OH269772   5.403   0.808   6.131  0.7578  0.0531  0.1344
16094TIP3    H169773   5.489   0.799   6.173  0.8756 -0.2404 -0.1625
16094TIP3    H269774   5.384   0.720   6.097  0.1409  0.0157  0.5720
16095TIP3   OH269775   1.763   2.804  16.047  0.1328  0.0232  0.2208
16095TIP3    H169776   1.857   2.817  16.059  0.6057 -0.6902 -2.5008
16095TIP3    H269777   1.754   2.711  16.024 -1.3677 -0.1985  1.5744
16096TIP3   OH269778   5.633   5.870   3.172  0.0692  0.2991 -0.6677
16096TIP3    H169779   5.719   5.855   3.211  0.2449  0.9598 -0.7844
16096TIP3    H269780   5.653   5.902   3.084 -0.3210 -1.0374 -1.2544
16097TIP3   OH269781   3.024   0.724   5.880 -0.7788 -0.4710 -0.3511
16097TIP3    H169782   3.008   0.634   5.909  0.6472 -0.5395  0.2570
16097TIP3    H269783   3.106   0.718   5.830 -0.2878  0.6186  0.3201
16098TIP3   OH269784   6.336   3.529   0.938  0.1695 -0.3043  0.0532
16098TIP3    H169785   6.424   3.501   0.912 -1.0473 -1.4793 -2.8959
16098TIP3    H269786   6.309   3.465   1.004  0.6383 -1.2445 -0.6633
16099TIP3   OH269787   5.454   4.711  11.527 -0.5846  0.1305  0.0620
16099TIP3    H169788   5.452   4.773  11.453 -3.2281  0.9634  0.7657
16099TIP3    H269789   5.496   4.760  11.598  0.1990  0.0015 -0.3023
16100TIP3   OH269790   0.353   1.056  11.787  0.9190  0.2001  0.2653
16100TIP3    H169791   0.283   1.108  11.826  1.4201  1.2867 -0.2360
16100TIP3    H269792   0.375   0.991  11.853  0.5105  0.8540  1.0535
16101TIP3   OH269793   6.653   6.519  11.409 -0.7422 -0.4180  0.0519
16101TIP3    H169794   6.721   6.480  11.464 -0.8090 -1.4377 -0.5861
16101TIP3    H269795   6.688   6.606  11.387 -0.9818  0.2387  2.1751
16102TIP3   OH269796   3.750   4.258  13.946 -0.0938  0.1755 -0.0381
16102TIP3    H169797   3.797   4.184  13.984 -0.4551 -0.7194 -1.3300
16102TIP3    H269798   3.713   4.224  13.865 -0.2045  1.7955 -0.6705
16103TIP3   OH269799   4.775   2.485  13.302  0.0676 -0.3340  0.4729
16103TIP3    H169800   4.759   2.408  13.248  1.1357  0.3114 -0.8020
16103TIP3    H269801   4.696   2.538  13.292 -0.1456 -0.6806  0.3234
16104TIP3   OH269802   4.850   3.700   0.527 -0.5534  0.2771 -0.6630
16104TIP3    H169803   4.910   3.625   0.521  3.6915  3.4634 -0.2913
16104TIP3    H269804   4.844   3.719   0.620 -1.4311  0.5647 -0.7727
16105TIP3   OH269805   6.763   4.104  16.371  0.6101  0.0168  0.1761
16105TIP3    H169806   6.807   4.150  16.442  0.5624  0.4568 -0.0794
16105TIP3    H269807   6.670   4.116  16.388  0.5274 -2.5975  1.8450
16106TIP3   OH269808   4.292   1.012  16.998 -1.1632  0.0445 -0.8717
16106TIP3    H169809   4.360   1.067  17.036 -2.3545  0.2109  1.0442
16106TIP3    H269810   4.305   0.926  17.037 -1.9281  0.0237 -0.6620
16107TIP3   OH269811   4.452   2.930   3.600 -0.3618  0.9041 -0.3684
16107TIP3    H169812   4.516   2.906   3.667 -0.8774 -1.1863 -0.5613
16107TIP3    H269813   4.503   2.971   3.531  0.3303  2.0825  0.8199
16108TIP3   OH269814   5.373   0.606   2.046 -0.1147  0.3548  0.2761
16108TIP3    H169815   5.382   0.518   2.008  1.6182  1.5444 -2.2010
16108TIP3    H269816   5.444   0.612   2.110  0.1959  0.2153 -0.0564
16109TIP3   OH269817   5.292   4.828  12.496 -0.3653  0.1382  0.5877
16109TIP3    H169818   5.282   4.769  12.571  0.9681 -1.0153 -0.1160
16109TIP3    H269819   5.203   4.841  12.464 -0.8066 -0.4489  1.5475
16110TIP3   OH269820   0.069   5.139   5.027  0.3611  0.0906 -0.5481
16110TIP3    H169821   0.008   5.142   4.953 -1.8599 -3.8663  0.9600
16110TIP3    H269822   0.130   5.068   5.005 -1.4281 -2.3908  2.0891
16111TIP3   OH269823   1.057   3.774  16.517  0.4990  0.0193 -0.1520
16111TIP3    H169824   1.149   3.778  16.491  0.6367 -1.7678  0.0044
16111TIP3    H269825   1.059   3.741  16.607 -0.3608 -2.0739 -0.8582
16112TIP3   OH269826   6.410   3.240   1.025  0.1406 -0.0201  0.7388
16112TIP3    H169827   6.395   3.160   1.076 -0.7536  0.1437  0.7325
16112TIP3    H269828   6.501   3.263   1.044  0.5081 -1.2238  0.4788
16113TIP3   OH269829   0.548   5.444  17.209 -0.4657 -0.5228  0.4421
16113TIP3    H169830   0.559   5.493  17.291  1.2228 -0.1623  0.0128
16113TIP3    H269831   0.463   5.401  17.218 -1.7366  1.9906  1.1070
16114TIP3   OH269832   3.213   4.376  15.069 -0.1944 -0.2521  0.7423
16114TIP3    H169833   3.221   4.285  15.098 -1.4469 -0.6112 -0.0007
16114TIP3    H269834   3.119   4.395  15.073 -0.2191  0.2230 -1.4007
16115TIP3   OH269835   1.230   0.816  15.778  0.2196 -0.8557 -0.2471
16115TIP3    H169836   1.301   0.752  15.782  0.1433 -0.8442  2.3437
16115TIP3    H269837   1.265   0.892  15.824 -0.7472 -0.0938 -0.7608
16116TIP3   OH269838   5.856   3.450  13.241  0.4009 -0.0246 -0.0079
16116TIP3    H169839   5.767   3.420  13.262  0.2838  0.1710 -0.2201
16116TIP3    H269840   5.860   3.539  13.275  0.4793  0.0038 -0.0905
16117TIP3   OH269841   5.034   2.984  13.478  0.4003  0.1777 -0.1120
16117TIP3    H169842   5.000   2.972  13.567 -0.8691 -0.8115 -0.7053
16117TIP3    H269843   5.087   3.063  13.483  0.7153 -0.1181  1.6271
16118TIP3   OH269844   6.080   3.371  14.286  0.2487  0.0723 -0.8785
16118TIP3    H169845   6.133   3.431  14.233  1.3180  0.5767  0.7276
16118TIP3    H269846   6.002   3.421  14.308  0.1735  0.1417 -1.2904
16119TIP3   OH269847   2.471   1.439   5.601 -0.4859  0.9571 -0.9912
16119TIP3    H169848   2.547   1.498   5.605 -0.7157  1.2953 -1.5884
16119TIP3    H269849   2.491   1.380   5.528  0.0164 -0.0928 -0.0223
16120TIP3   OH269850   3.040   5.079  15.215  0.3011  0.1005  0.4389
16120TIP3    H169851   2.974   5.077  15.146  0.8863  0.4759 -0.1364
16120TIP3    H269852   2.992   5.057  15.295 -0.6517  1.0427  0.1359
16121TIP3   OH269853   5.456   5.511   5.649  0.6366  0.1093 -0.6531
16121TIP3    H169854   5.477   5.590   5.698 -0.5031  0.5847 -0.9096
16121TIP3    H269855   5.504   5.441   5.694  0.5590  0.7362  0.4114
16122TIP3   OH269856   3.112   2.393  11.003  0.1420 -0.0119 -0.0092
16122TIP3    H169857   3.155   2.378  11.087  0.5403 -0.8897 -0.3598
16122TIP3    H269858   3.134   2.484  10.980  1.3238 -0.2592  0.0999
16123TIP3   OH269859   1.943   0.845   0.129  0.2201  0.4828  0.4667
16123TIP3    H169860   1.917   0.811   0.044 -2.3301 -0.4670  1.5520
16123TIP3    H269861   2.017   0.903   0.111 -1.4626  1.7910 -2.5987
16124TIP3   OH269862   1.152   2.147   0.877  0.1194 -0.8409 -0.2350
16124TIP3    H169863   1.097   2.091   0.931 -2.1850  1.0354 -0.5294
16124TIP3    H269864   1.111   2.144   0.790  0.3273  0.7353 -0.4051
16125TIP3   OH269865   1.179   6.738  14.741 -0.1620 -0.2223  0.2196
16125TIP3    H169866   1.128   6.705  14.668 -0.9813  0.4941  0.4600
16125TIP3    H269867   1.115   6.781  14.798  0.6266  0.2245  0.7809
16126TIP3   OH269868   2.781   1.034   3.094  0.3022  0.1358  0.0575
16126TIP3    H169869   2.853   0.973   3.083  1.1399  0.8840  1.3313
16126TIP3    H269870   2.742   1.041   3.007  0.1130 -2.2835 -0.0762
16127TIP3   OH269871   0.469   0.600  16.560  0.1580 -0.2774 -0.1963
16127TIP3    H169872   0.520   0.524  16.586  0.2297  0.2657  1.3001
16127TIP3    H269873   0.419   0.623  16.638 -0.1256  1.0060 -0.7450
16128TIP3   OH269874   1.151   2.877   5.678  0.1726 -0.2583 -0.2318
16128TIP3    H169875   1.220   2.877   5.611 -1.3126 -0.5913 -1.8117
16128TIP3    H269876   1.071   2.854   5.630 -1.2034  0.9818  1.3876
16129TIP3   OH269877   0.659   5.416  11.729  0.4822  0.3215 -0.4592
16129TIP3    H169878   0.706   5.488  11.771 -0.2318 -1.2636  3.2722
16129TIP3    H269879   0.645   5.446  11.640  1.7749  4.0559  0.4742
16130TIP3   OH269880   5.998   1.220  13.741  0.2638  0.0052 -0.3536
16130TIP3    H169881   6.036   1.288  13.797  2.4393 -0.1361 -1.6059
16130TIP3    H269882   5.964   1.267  13.665  0.3573 -0.1608 -0.4975
16131TIP3   OH269883   1.401   6.022  13.985  0.4667  0.3232  0.4513
16131TIP3    H169884   1.407   6.077  14.063  1.2529  0.3707  0.3652
16131TIP3    H269885   1.308   6.000  13.978 -0.2170  3.2866 -0.6505
16132TIP3   OH269886   2.912   0.469  10.987 -0.4030  0.9626  0.3967
16132TIP3    H169887   2.949   0.546  11.030  0.4170  0.7753  0.0445
16132TIP3    H269888   2.909   0.492  10.894  0.9895  0.1322  0.1312
16133TIP3   OH269889   2.753   4.113   5.583  0.3188 -0.3734 -0.0828
16133TIP3    H169890   2.679   4.096   5.641  1.1590 -1.0520  0.8088
16133TIP3    H269891   2.815   4.163   5.636  0.7307 -0.2669 -0.6533
16134TIP3   OH269892   3.372   0.662  16.839  0.3600  0.1045  0.1133
16134TIP3    H169893   3.380   0.619  16.754  0.5062 -0.3215  0.3432
16134TIP3    H269894   3.455   0.708  16.851  1.0929 -1.4039  0.8950
16135TIP3   OH269895   0.053   4.732  10.966 -0.7653  0.1552 -0.2847
16135TIP3    H169896   0.031   4.775  10.883  0.3244 -0.9824 -1.1910
16135TIP3    H269897   0.145   4.753  10.980 -0.1075 -2.1054 -0.9346
16136TIP3   OH269898   6.055   4.351   2.555 -0.0386 -0.5521  0.2470
16136TIP3    H169899   6.117   4.367   2.484  0.1358 -1.0940  0.2799
16136TIP3    H269900   6.107   4.315   2.626 -0.2979 -0.4962  0.4686
16137TIP3   OH269901   5.686   0.350  15.558  0.2089  0.2754 -0.3286
16137TIP3    H169902   5.709   0.259  15.578  0.4181  0.0547 -1.5393
16137TIP3    H269903   5.704   0.398  15.639  1.4068 -0.5313 -0.1099
16138TIP3   OH269904   5.039   2.372  14.162  0.1806  0.0622 -0.7840
16138TIP3    H169905   4.947   2.358  14.185  0.0774  1.2697 -0.4406
16138TIP3    H269906   5.055   2.315  14.087 -0.9705  0.1986 -1.1299
16139TIP3   OH269907   1.319   4.385  16.295 -0.0146 -0.6641  0.3293
16139TIP3    H169908   1.295   4.335  16.374 -0.5284 -1.1224 -0.1063
16139TIP3    H269909   1.378   4.326  16.247  0.4883 -0.2889  0.4901
16140TIP3   OH269910   4.404   5.252  15.333  0.6273 -0.7478 -0.2085
16140TIP3    H169911   4.473   5.253  15.399 -0.2296 -1.0862  0.6861
16140TIP3    H269912   4.400   5.160  15.304  1.4982 -0.4693 -1.2692
16141TIP3   OH269913   4.149   1.938  11.732  0.7043 -0.4896  0.3093
16141TIP3    H169914   4.172   1.885  11.808 -0.3309 -0.9426  0.3114
16141TIP3    H269915   4.078   1.891  11.689  0.8957  0.0472 -0.6343
16142TIP3   OH269916   3.347   1.834   3.652  0.2009 -0.2860 -0.6159
16142TIP3    H169917   3.345   1.838   3.557 -0.4459 -1.3575 -0.6544
16142TIP3    H269918   3.391   1.751   3.672  0.8850  0.2265  0.0206
16143TIP3   OH269919   0.001   1.783  15.721  0.5393 -0.1855  0.1838
16143TIP3    H169920   0.079   1.754  15.768 -0.0265  1.5393  2.2705
16143TIP3    H269921   0.036   1.830  15.645  1.5410 -0.2763  0.5684
16144TIP3   OH269922   4.079   1.402   2.176 -0.2686  0.2327 -0.5238
16144TIP3    H169923   3.998   1.357   2.152  0.4924 -1.9604  0.9020
16144TIP3    H269924   4.097   1.374   2.266  0.2649  3.4059  0.4108
16145TIP3   OH269925   0.583   4.838   5.427 -0.1566  0.3544 -0.1832
16145TIP3    H169926   0.614   4.866   5.341 -0.2909  1.9761  0.2874
16145TIP3    H269927   0.645   4.876   5.489 -0.6401  0.0488  0.4982
16146TIP3   OH269928   1.848   0.625  16.057 -0.8131  0.0813 -0.2054
16146TIP3    H169929   1.933   0.626  16.014 -0.9364  1.1513 -0.4462
16146TIP3    H269930   1.861   0.573  16.135  0.6940  2.1510  0.9866
16147TIP3   OH269931   0.047   6.125  15.911  0.6903  0.2324 -0.0109
16147TIP3    H169932   0.118   6.061  15.913 -1.1920 -1.9499 -1.5606
16147TIP3    H269933   0.045   6.156  15.820 -1.0627 -0.5815 -0.2682
16148TIP3   OH269934   2.674   0.557   3.685 -0.5937 -0.0644  0.6912
16148TIP3    H169935   2.651   0.464   3.689 -0.5681 -0.1503 -0.9560
16148TIP3    H269936   2.598   0.599   3.645  1.0661  0.0016 -2.4804
16149TIP3   OH269937   2.962   2.745   5.140 -0.7526  0.0017  0.3502
16149TIP3    H169938   3.017   2.666   5.147  0.0753  0.3321 -2.0472
16149TIP3    H269939   2.909   2.730   5.062 -0.0217  2.1568 -0.5862
16150TIP3   OH269940   3.151   3.948  14.716 -0.5996  0.2553  0.3762
16150TIP3    H169941   3.218   4.011  14.693  0.1092 -0.1792  1.2149
16150TIP3    H269942   3.068   3.995  14.704 -0.2661  0.1920 -2.5050
16151TIP3   OH269943   0.057   4.400  13.878  0.5150  0.1017 -0.4431
16151TIP3    H169944   0.036   4.313  13.912  1.8198  0.0415  0.2530
16151TIP3    H269945   0.026   4.460  13.946  3.6965 -0.0450  1.2681
16152TIP3   OH269946   3.652   6.726   4.177  0.3937  0.3090  0.7808
16152TIP3    H169947   3.708   6.713   4.253 -0.6152 -1.9258  1.1620
16152TIP3    H269948   3.580   6.780   4.210 -0.0711 -0.7002  1.4436
16153TIP3   OH269949   2.617   5.449  12.991 -0.3709  0.3949  0.0203
16153TIP3    H169950   2.563   5.406  13.057 -2.9953 -0.0006 -2.3094
16153TIP3    H269951   2.555   5.496  12.935  1.4946 -1.1866 -3.5673
16154TIP3   OH269952   4.928   1.329   4.076  0.1149 -0.4062  0.0031
16154TIP3    H169953   4.880   1.380   4.141 -0.6094 -0.6174 -0.3547
16154TIP3    H269954   4.934   1.242   4.114  0.8086 -0.2096  0.3439
16155TIP3   OH269955   6.740   3.740  12.748  0.1538  0.5457 -0.8128
16155TIP3    H169956   6.776   3.652  12.761  0.9419  1.0627  0.6184
16155TIP3    H269957   6.691   3.734  12.666 -1.0611 -1.6427  0.0236
16156TIP3   OH269958   0.937   3.055  17.270  0.1474  0.7427 -0.2014
16156TIP3    H169959   0.884   3.034  17.193  1.3446 -0.6450 -0.6834
16156TIP3    H269960   0.891   3.127  17.312 -2.2861 -0.5977 -0.4446
16157TIP3   OH269961   0.706   2.381  14.259 -0.2271 -0.1082 -0.4723
16157TIP3    H169962   0.793   2.421  14.262 -0.1114 -0.3404 -0.6455
16157TIP3    H269963   0.646   2.453  14.241 -0.0416  0.0170 -0.5910
16158TIP3   OH269964   1.298   4.105  12.686  0.1292  0.3020 -0.7573
16158TIP3    H169965   1.283   4.038  12.752 -2.6067 -0.7267 -2.3159
16158TIP3    H269966   1.385   4.086  12.651  0.4571 -0.8078  0.6427
16159TIP3   OH269967   3.045   0.093  14.126 -0.0525 -0.2541  0.3029
16159TIP3    H169968   3.003   0.021  14.172 -0.8609  0.1461  0.2001
16159TIP3    H269969   3.137   0.088  14.152  0.0588 -1.8272 -0.3447
16160TIP3   OH269970   5.668   1.138  17.126  0.5831 -0.8664  0.0747
16160TIP3    H169971   5.666   1.163  17.219  1.2160  0.2464 -0.2016
16160TIP3    H269972   5.758   1.109  17.111  0.9371  0.5395 -0.5874
16161TIP3   OH269973   5.648   4.097   1.751  0.2495  0.5360 -0.4055
16161TIP3    H169974   5.720   4.106   1.812 -0.1579 -0.6252  0.2587
16161TIP3    H269975   5.689   4.075   1.667  0.9025  3.4166 -0.8955
16162TIP3   OH269976   3.707   1.980   0.477 -0.2304  0.4704  0.5629
16162TIP3    H169977   3.626   1.928   0.476 -0.5447  0.9550  0.7557
16162TIP3    H269978   3.710   2.021   0.390  0.2231 -0.1819  0.2669
16163TIP3   OH269979   6.709   3.873   0.149  1.0718  0.0467  0.1265
16163TIP3    H169980   6.705   3.968   0.157  0.3750  0.1683 -1.3921
16163TIP3    H269981   6.688   3.856   0.057 -1.4918 -1.7319  0.9854
16164TIP3   OH269982   0.484   4.516  15.680  0.3187  0.2377 -0.2305
16164TIP3    H169983   0.527   4.559  15.754 -1.5560  1.2979  0.2659
16164TIP3    H269984   0.532   4.548  15.603  1.7197 -0.2068  0.4498
16165TIP3   OH269985   3.796   2.532  15.524 -0.2573  0.2689  0.5066
16165TIP3    H169986   3.786   2.478  15.446 -0.3763 -1.2672  1.5556
16165TIP3    H269987   3.887   2.519  15.550 -0.2027  0.8226  0.5868
16166TIP3   OH269988   4.457   0.909  11.148  0.3296 -0.1579 -0.0489
16166TIP3    H169989   4.456   0.825  11.195  0.8159  0.1631  0.5472
16166TIP3    H269990   4.503   0.889  11.066 -0.2379 -0.6492 -0.2493
16167TIP3   OH269991   3.004   3.801   0.383  0.5091 -0.5026 -0.3903
16167TIP3    H169992   3.078   3.859   0.403  0.5263  0.1429 -2.2356
16167TIP3    H269993   3.043   3.714   0.378  0.9132 -0.3423 -0.0745
16168TIP3   OH269994   6.575   3.589  13.174 -0.0927 -0.6075 -0.0177
16168TIP3    H169995   6.546   3.678  13.156 -1.6382 -1.1635 -0.4104
16168TIP3    H269996   6.547   3.539  13.097 -0.4513 -1.6791  0.7907
16169TIP3   OH269997   1.666   6.483   4.672  0.0508 -0.0661 -0.9816
16169TIP3    H169998   1.650   6.452   4.583  0.2235 -0.4626 -0.8756
16169TIP3    H269999   1.738   6.546   4.662 -0.7955  0.8554 -1.2986
16170TIP3   OH270000   5.689   4.096  11.125  0.3276 -0.3996  0.3239
16170TIP3    H170001   5.647   4.023  11.079  0.4835 -0.3885  0.1627
16170TIP3    H270002   5.779   4.066  11.139  1.0767  0.7237 -1.9004
16171TIP3   OH270003   2.608   5.033   3.458 -0.0806  0.6611  0.0152
16171TIP3    H170004   2.516   5.050   3.480 -0.3599 -1.6847  0.8145
16171TIP3    H270005   2.603   4.976   3.380  0.6666  0.2377  0.2753
16172TIP3   OH270006   5.439   0.491   1.292  0.0027 -0.2580 -0.4469
16172TIP3    H170007   5.468   0.575   1.329 -1.1349 -0.3685  0.7117
16172TIP3    H270008   5.391   0.515   1.213 -0.9563  0.2516  0.2729
16173TIP3   OH270009   0.515   4.183  15.640  0.2328  0.3414 -0.0539
16173TIP3    H170010   0.442   4.241  15.662  0.8089  0.8763  0.4707
16173TIP3    H270011   0.564   4.231  15.573  0.9342  0.6531  0.6662
16174TIP3   OH270012   4.206   4.531   4.418 -0.0121 -0.1573  0.6071
16174TIP3    H170013   4.150   4.562   4.489 -0.6934  1.0526 -0.4569
16174TIP3    H270014   4.148   4.522   4.343  1.1969  1.1627 -0.5229
16175TIP3   OH270015   2.022   1.901  13.722  0.3468 -0.3374 -0.0307
16175TIP3    H170016   2.104   1.861  13.694 -0.1946  0.0472 -2.2650
16175TIP3    H270017   2.038   1.995  13.718 -0.2027 -0.2590 -0.4817
16176TIP3   OH270018   1.671   4.102   1.394 -0.2196 -0.1682  0.0900
16176TIP3    H170019   1.623   4.022   1.415 -0.5099  0.2441  1.0013
16176TIP3    H270020   1.702   4.087   1.304 -1.6852 -0.6128 -0.3692
16177TIP3   OH270021   2.611   2.920   2.214  0.2815 -0.0422 -0.2082
16177TIP3    H170022   2.704   2.938   2.223  0.1300  0.8120 -0.3616
16177TIP3    H270023   2.603   2.826   2.231  1.1117 -0.0395  0.1969
16178TIP3   OH270024   1.348   6.681   3.399  0.2337  0.2754 -0.3352
16178TIP3    H170025   1.254   6.669   3.411  0.1473  0.4601 -0.8418
16178TIP3    H270026   1.364   6.659   3.307  0.4961  1.4484 -0.5730
16179TIP3   OH270027   6.562   3.695   0.324  1.0360 -0.4568  0.2297
16179TIP3    H170028   6.594   3.704   0.234  0.9471  1.2162  0.3517
16179TIP3    H270029   6.562   3.784   0.358 -1.6645 -0.6844  0.9657
16180TIP3   OH270030   3.721   6.567  16.661 -0.3623 -0.4410  0.5210
16180TIP3    H170031   3.727   6.541  16.753  4.2489  1.1616  0.7721
16180TIP3    H270032   3.782   6.508  16.616  0.0369  1.0786 -0.9528
16181TIP3   OH270033   5.571   0.107  10.851 -0.2786 -0.2129 -0.6034
16181TIP3    H170034   5.665   0.097  10.837  0.0067 -0.4935  1.4097
16181TIP3    H270035   5.555   0.201  10.836 -0.0457 -0.5073 -2.8699
16182TIP3   OH270036   3.637   1.271  16.011 -0.4371  0.1606 -0.4638
16182TIP3    H170037   3.564   1.297  16.068 -1.5688 -1.5605 -1.0691
16182TIP3    H270038   3.693   1.348  16.007 -1.9905  1.3779  0.4071
16183TIP3   OH270039   6.453   5.883   2.802 -0.0987 -0.1351  0.7124
16183TIP3    H170040   6.499   5.955   2.758  1.6765 -1.5568  0.1865
16183TIP3    H270041   6.374   5.869   2.750 -0.4788  1.4148  0.8216
16184TIP3   OH270042   5.911   6.578   2.292  0.0156 -0.6485 -0.6740
16184TIP3    H170043   5.969   6.652   2.275 -0.1751 -0.0328  1.2619
16184TIP3    H270044   5.966   6.515   2.339 -0.5878 -0.5007  0.2439
16185TIP3   OH270045   5.668   5.890   5.697  0.7288 -0.0610 -0.3234
16185TIP3    H170046   5.692   5.875   5.605 -0.9556 -0.7789 -0.6678
16185TIP3    H270047   5.616   5.970   5.695 -2.2315 -1.9051 -0.5367
16186TIP3   OH270048   0.289   3.748   0.313 -0.2184  0.2442  0.0279
16186TIP3    H170049   0.249   3.685   0.252 -1.9039 -0.2901  1.6487
16186TIP3    H270050   0.332   3.693   0.379 -0.5107  0.8173  0.6948
16187TIP3   OH270051   3.759   4.922  15.624 -0.2399  0.4071 -0.0291
16187TIP3    H170052   3.838   4.873  15.647 -0.1781 -0.8290 -2.6987
16187TIP3    H270053   3.787   4.984  15.557 -1.6355 -0.4784 -1.4720
16188TIP3   OH270054   1.502   2.649  16.865 -0.2186  0.3936 -0.4566
16188TIP3    H170055   1.494   2.636  16.960 -1.1314  0.7779 -0.4669
16188TIP3    H270056   1.422   2.610  16.829  0.3000 -0.0730 -1.1042
16189TIP3   OH270057   6.388   3.814   1.375  0.1052 -0.1100 -0.3670
16189TIP3    H170058   6.419   3.724   1.386 -1.7400 -0.8589 -0.9341
16189TIP3    H270059   6.399   3.832   1.282 -2.0535 -0.7841 -0.7975
16190TIP3   OH270060   1.911   3.142  16.497 -0.2089  0.3324  0.4184
16190TIP3    H170061   1.858   3.127  16.419 -0.5483 -0.1395  0.7355
16190TIP3    H270062   1.914   3.238  16.505  1.1181  0.4140 -1.0252
16191TIP3   OH270063   3.905   1.067   2.015  0.1719 -0.5024  0.2570
16191TIP3    H170064   3.891   1.095   2.105 -1.4587  2.1084 -0.7542
16191TIP3    H270065   3.824   1.023   1.990 -0.3474  0.9358 -0.6761
16192TIP3   OH270066   3.292   3.599   2.092  0.4495 -0.1833 -0.2866
16192TIP3    H170067   3.270   3.650   2.170  1.3560 -0.3966  0.1192
16192TIP3    H270068   3.312   3.665   2.026  0.8160 -0.0006  0.0014
16193TIP3   OH270069   1.141   3.043  16.211  0.2354  0.4021 -0.5378
16193TIP3    H170070   1.195   3.108  16.167 -1.1395  0.8354 -1.6165
16193TIP3    H270071   1.098   2.994  16.141 -0.7109  0.0077  0.2897
16194TIP3   OH270072   1.516   2.847   3.410  0.1977  0.1667  0.1344
16194TIP3    H170073   1.494   2.767   3.458  0.5214  0.1741  0.2951
16194TIP3    H270074   1.550   2.907   3.477  1.5931 -0.1778 -0.2470
16195TIP3   OH270075   4.774   4.120  10.219  0.6217  0.2608 -0.3581
16195TIP3    H170076   4.706   4.187  10.213 -0.1259 -0.5906 -1.6662
16195TIP3    H270077   4.849   4.158  10.172  0.8682  0.9579  0.5790
16196TIP3   OH270078   1.160   1.929  10.372 -0.4133  0.1600  0.8308
16196TIP3    H170079   1.187   2.014  10.336  0.6276 -0.3290  0.4245
16196TIP3    H270080   1.242   1.891  10.405 -0.7302 -1.0810  0.1853
16197TIP3   OH270081   0.938   1.204  15.856 -0.1142 -0.2377  0.1668
16197TIP3    H170082   0.850   1.187  15.822 -0.4222 -0.8060  1.2355
16197TIP3    H270083   0.947   1.145  15.931  0.3775  1.3120  1.3576
16198TIP3   OH270084   1.629   3.254  13.041  0.0736 -0.6421  0.4627
16198TIP3    H170085   1.641   3.285  13.131 -0.4240  1.4593 -0.1781
16198TIP3    H270086   1.709   3.204  13.023  0.3816 -0.6998  1.9189
16199TIP3   OH270087   0.118   6.599  14.151 -0.4415 -0.3376  0.0030
16199TIP3    H170088   0.179   6.592  14.224 -0.2021 -0.8956 -0.2507
16199TIP3    H270089   0.132   6.688  14.118 -0.8355  0.0557  0.8774
16200TIP3   OH270090   1.940   6.296   0.190  0.3417  0.1931  0.1818
16200TIP3    H170091   1.883   6.219   0.189  0.6878 -0.0726  0.6041
16200TIP3    H270092   1.929   6.332   0.278  0.4026  0.4595  0.0809
16201TIP3   OH270093   2.632   1.886   1.859 -0.4567 -0.4795  0.1227
16201TIP3    H170094   2.568   1.954   1.837  0.7358  0.3105 -0.9960
16201TIP3    H270095   2.632   1.883   1.955  1.6034  3.1990  0.3287
16202TIP3   OH270096   3.017   5.754  13.095  0.4697  0.2993  0.1497
16202TIP3    H170097   2.928   5.724  13.112 -0.2263  2.0332 -0.3717
16202TIP3    H270098   3.019   5.772  13.002  1.4874 -0.0695  0.0918
16203TIP3   OH270099   1.221   4.376  13.248  0.2942 -0.2984 -0.1288
16203TIP3    H170100   1.216   4.354  13.155  0.4553  1.0314 -0.4633
16203TIP3    H270101   1.201   4.295  13.293  0.3688 -0.9942 -1.3317
16204TIP3   OH270102   0.137   2.658  15.336 -0.4680  0.4915  0.1428
16204TIP3    H170103   0.133   2.752  15.323 -0.4956  0.4482 -0.1545
16204TIP3    H270104   0.069   2.640  15.401 -0.8390  0.5993 -0.2179
16205TIP3   OH270105   3.339   5.643  12.678  0.7215  0.4950 -0.0134
16205TIP3    H170106   3.265   5.664  12.736 -0.3762 -1.2017 -0.7528
16205TIP3    H270107   3.410   5.620  12.737 -0.6588 -2.1301  0.6921
16206TIP3   OH270108   0.576   6.803  13.361  0.0252 -0.0441 -0.0669
16206TIP3    H170109   0.612   6.890  13.379  0.6216  0.0118 -1.4455
16206TIP3    H270110   0.631   6.744  13.412 -1.2839  0.4792  2.0337
16207TIP3   OH270111   6.613   4.465   2.936 -0.1325  0.4566 -0.3089
16207TIP3    H170112   6.645   4.500   2.853  0.7915 -1.8234 -0.9461
16207TIP3    H270113   6.517   4.468   2.927 -0.0459  0.2432 -1.4629
16208TIP3   OH270114   1.910   6.219   4.939 -0.1691 -0.0071 -0.5340
16208TIP3    H170115   1.842   6.272   4.981 -0.7057  0.3588 -1.8332
16208TIP3    H270116   1.883   6.129   4.955 -0.8148  0.1350 -0.7940
16209TIP3   OH270117   0.265   4.903   5.523 -0.0657 -0.0247  0.1806
16209TIP3    H170118   0.358   4.884   5.516  0.1673  1.1759 -0.1327
16209TIP3    H270119   0.256   4.947   5.608  0.0725  2.1256 -0.8851
16210TIP3   OH270120   0.223   5.675  16.448 -0.8559 -0.1608  0.5626
16210TIP3    H170121   0.219   5.674  16.352  0.4801 -0.1533  0.5078
16210TIP3    H270122   0.227   5.767  16.471 -0.9409 -0.1724  0.6249
16211TIP3   OH270123   1.175   5.720   5.046  0.3646  0.5560  0.1388
16211TIP3    H170124   1.123   5.768   4.981  0.0134 -1.9053 -1.4410
16211TIP3    H270125   1.247   5.682   4.997  1.0662  0.0627  1.5137
16212TIP3   OH270126   6.657   5.068  14.484  0.5880 -0.5156 -0.2490
16212TIP3    H170127   6.594   5.136  14.507  1.2718  0.2979 -0.7309
16212TIP3    H270128   6.628   4.991  14.533 -0.4442 -0.0019 -0.0231
16213TIP3   OH270129   1.266   2.778  17.251  0.6116 -0.3500 -0.0906
16213TIP3    H170130   1.264   2.724  17.331 -0.0037 -0.1170  0.0587
16213TIP3    H270131   1.272   2.868  17.283  0.7568 -0.2815 -0.3141
16214TIP3   OH270132   3.237   0.605   5.367  0.5359 -0.0831 -0.1379
16214TIP3    H170133   3.280   0.690   5.379  1.0227 -0.2922 -0.3961
16214TIP3    H270134   3.207   0.581   5.455  2.5615 -0.7896  0.4124
16215TIP3   OH270135   2.822   4.275  12.874 -0.3645 -0.2760 -0.0248
16215TIP3    H170136   2.808   4.265  12.969 -2.0174 -0.0963 -0.2361
16215TIP3    H270137   2.909   4.314  12.867 -0.6305  0.6395  1.4848
16216TIP3   OH270138   4.964   6.256  10.521 -0.0499 -0.5130 -0.1812
16216TIP3    H170139   4.974   6.351  10.531  1.2758 -0.6993  0.3302
16216TIP3    H270140   4.869   6.243  10.515 -0.4266  0.5716  2.5134
16217TIP3   OH270141   0.215   2.099  11.805  0.3268 -0.1887  0.2754
16217TIP3    H170142   0.310   2.114  11.810  0.4115 -0.0429 -1.3892
16217TIP3    H270143   0.186   2.099  11.896  2.0475 -1.0169  0.8520
16218TIP3   OH270144   5.942   1.776  11.791 -0.5904 -0.2057 -0.5842
16218TIP3    H170145   5.943   1.764  11.696  0.5199  2.2089 -0.9184
16218TIP3    H270146   5.997   1.704  11.824 -0.8287 -0.9551 -1.7634
16219TIP3   OH270147   1.124   6.004  16.891  0.1488  0.2012 -0.2323
16219TIP3    H170148   1.105   5.943  16.819 -2.3835  0.8623 -0.1594
16219TIP3    H270149   1.163   6.080  16.847 -1.8444  0.8106 -0.9979
16220TIP3   OH270150   5.458   3.881   1.860  0.0879  0.2507  0.2382
16220TIP3    H170151   5.384   3.850   1.806  0.4897 -0.8120  0.2762
16220TIP3    H270152   5.498   3.951   1.808  0.2463 -0.5151 -0.6890
16221TIP3   OH270153   5.051   3.288  15.938 -0.0240 -0.5271  0.3268
16221TIP3    H170154   5.008   3.247  16.013 -1.1512 -2.8131 -1.4844
16221TIP3    H270155   5.109   3.220  15.904  0.6392  0.5476 -0.7282
16222TIP3   OH270156   2.702   4.843  11.142  0.0062  0.7479 -0.1614
16222TIP3    H170157   2.714   4.825  11.235 -0.9368  0.6901 -0.0473
16222TIP3    H270158   2.643   4.919  11.140 -2.8476 -1.3737 -0.7341
16223TIP3   OH270159   5.797   3.619  12.609  0.0985  0.4475  0.1813
16223TIP3    H170160   5.831   3.530  12.620 -2.6186 -0.8320 -1.0538
16223TIP3    H270161   5.795   3.655  12.697  0.5149 -1.0072  0.8006
16224TIP3   OH270162   2.664   2.506   1.440 -0.3234 -0.4736  0.2800
16224TIP3    H170163   2.688   2.529   1.530 -1.8923  1.2645  0.2928
16224TIP3    H270164   2.658   2.590   1.395  0.2094 -1.3160 -1.4053
16225TIP3   OH270165   5.750   5.335   2.373 -0.0463 -0.6095  0.2064
16225TIP3    H170166   5.675   5.349   2.315 -0.8132 -1.4646  0.9687
16225TIP3    H270167   5.795   5.419   2.374 -1.1422 -0.0031 -0.0680
16226TIP3   OH270168   5.376   2.486  13.562 -0.4896 -0.0185  0.2134
16226TIP3    H170169   5.317   2.497  13.636 -0.9393 -0.6364 -0.0516
16226TIP3    H270170   5.357   2.398  13.529 -0.1314  0.1663 -0.4956
16227TIP3   OH270171   3.758   2.295   6.472 -0.5590  0.6702 -0.3391
16227TIP3    H170172   3.823   2.225   6.474 -0.4226  0.7222 -2.1024
16227TIP3    H270173   3.674   2.249   6.477 -0.4379  0.4466 -0.3314
16228TIP3   OH270174   0.333   1.851   3.626 -0.0087 -0.0818  0.5541
16228TIP3    H170175   0.409   1.888   3.671 -0.4592  0.8285  0.5549
16228TIP3    H270176   0.366   1.827   3.540  0.0763  1.1059  0.2496
16229TIP3   OH270177   4.431   6.738   3.041  0.1193  0.3539 -0.0163
16229TIP3    H170178   4.378   6.660   3.022  0.4226 -0.1260  1.0248
16229TIP3    H270179   4.444   6.780   2.956  1.4791 -1.7291 -0.9058
16230TIP3   OH270180   6.452   2.360  10.891  0.0938 -0.0726  0.4421
16230TIP3    H170181   6.464   2.265  10.889 -1.1534 -0.2221 -0.5085
16230TIP3    H270182   6.481   2.389  10.804  0.1324  0.3779  0.6058
16231TIP3   OH270183   1.819   4.739   3.444  0.3926  0.7778  0.4391
16231TIP3    H170184   1.862   4.743   3.359  0.8522  1.3114  0.6905
16231TIP3    H270185   1.883   4.696   3.501 -0.2120 -0.2738  0.3441
16232TIP3   OH270186   3.510   4.363  11.677  0.4281  0.2007  0.2698
16232TIP3    H170187   3.548   4.446  11.706  0.3564  0.8820 -1.5259
16232TIP3    H270188   3.583   4.301  11.683  1.2173  0.9846 -0.8977
16233TIP3   OH270189   5.119   2.581   3.784  0.1816 -0.0165 -0.2356
16233TIP3    H170190   5.176   2.569   3.709 -0.8047 -0.9010 -0.8465
16233TIP3    H270191   5.110   2.676   3.792  1.5472  0.1269 -0.2591
16234TIP3   OH270192   3.919   1.846  11.621 -0.1382  0.1022  0.1172
16234TIP3    H170193   3.885   1.911  11.559 -0.3264  0.6927  0.8272
16234TIP3    H270194   3.840   1.807  11.659 -0.0230 -0.3373 -0.1026
16235TIP3   OH270195   1.605   4.682   1.635  0.1886  0.0215 -0.2310
16235TIP3    H170196   1.660   4.760   1.648 -1.4344  1.1938 -0.2583
16235TIP3    H270197   1.594   4.646   1.723 -0.6054  0.8980  0.0318
16236TIP3   OH270198   3.379   5.990  14.017  0.2020  0.1923 -0.0726
16236TIP3    H170199   3.379   6.069  14.072  1.2816 -1.1446  1.9180
16236TIP3    H270200   3.295   5.948  14.036  1.3031 -1.1493  1.8832
16237TIP3   OH270201   2.977   0.180  14.506 -0.3805  0.1640 -0.8905
16237TIP3    H170202   2.919   0.206  14.435 -1.4436 -0.6584 -0.3365
16237TIP3    H270203   2.920   0.136  14.570  0.7819 -0.3629 -0.1841
16238TIP3   OH270204   5.133   6.321  11.231 -0.1605  0.4614  0.5415
16238TIP3    H170205   5.102   6.321  11.321  0.1752 -0.0852  0.6602
16238TIP3    H270206   5.093   6.243  11.192  1.0833 -0.2737  0.7050
16239TIP3   OH270207   4.045   5.016  14.467 -0.9385  0.3222  0.3543
16239TIP3    H170208   3.990   4.985  14.395 -2.3358  2.7291  0.3280
16239TIP3    H270209   3.992   5.000  14.546  0.8664 -2.9516  0.9968
16240TIP3   OH270210   4.605   2.820   1.430  0.3952  0.4799  0.4756
16240TIP3    H170211   4.625   2.865   1.512 -1.4162  0.6430  0.8622
16240TIP3    H270212   4.536   2.873   1.390  0.0802 -0.5209 -0.3350
16241TIP3   OH270213   3.292   5.754   0.959 -0.3006  0.2939 -0.2600
16241TIP3    H170214   3.296   5.684   1.024 -0.8013  1.8761  1.5218
16241TIP3    H270215   3.383   5.778   0.944 -0.2176  0.4503  0.4681
16242TIP3   OH270216   6.805   5.317   2.171 -0.0186 -0.7830 -0.2348
16242TIP3    H170217   6.800   5.346   2.080  0.2685 -0.6989 -0.2252
16242TIP3    H270218   6.714   5.306   2.198 -0.1669  1.0919  0.0673
16243TIP3   OH270219   6.279   5.604   2.595 -0.6678 -0.2355  0.0842
16243TIP3    H170220   6.221   5.555   2.654  0.3283 -0.3350  0.9807
16243TIP3    H270221   6.248   5.694   2.601 -0.3921 -0.2021  0.9609
16244TIP3   OH270222   5.109   0.905   1.658 -0.0180 -0.7301 -0.1970
16244TIP3    H170223   5.046   0.961   1.704 -1.7931 -0.8991 -2.3540
16244TIP3    H270224   5.155   0.965   1.600  1.0046 -0.8206  0.5066
16245TIP3   OH270225   0.547   5.505   1.906  0.7325 -0.7143 -0.6324
16245TIP3    H170226   0.578   5.588   1.943 -1.2098 -1.3171  2.5287
16245TIP3    H270227   0.488   5.532   1.836 -1.2060  0.6749  1.4634
16246TIP3   OH270228   2.748   3.568   0.728 -0.6290  0.1791  0.1477
16246TIP3    H170229   2.812   3.638   0.714 -0.3789 -0.0736  0.0131
16246TIP3    H270230   2.781   3.520   0.804  1.1457 -1.9590 -1.8824
16247TIP3   OH270231   6.258   5.475  15.311  0.6426  0.0298  0.5634
16247TIP3    H170232   6.172   5.515  15.294  1.8335  1.5579 -2.2460
16247TIP3    H270233   6.319   5.549  15.311  2.2177 -1.2594  0.4236
16248TIP3   OH270234   2.431   2.453   1.139 -0.0563  0.2725  0.6653
16248TIP3    H170235   2.518   2.419   1.117  0.5907  0.9470  2.1065
16248TIP3    H270236   2.376   2.375   1.145  0.4369 -0.1580 -0.3158
16249TIP3   OH270237   6.412   3.404  16.845 -0.3783  0.7151 -0.3939
16249TIP3    H170238   6.414   3.445  16.931  0.4942  0.6212 -0.3620
16249TIP3    H270239   6.490   3.439  16.800  0.0851 -0.4906 -0.5507
16250TIP3   OH270240   5.728   4.901  14.396 -0.4861  0.4412 -0.5797
16250TIP3    H170241   5.794   4.834  14.379 -0.4351  0.0936  0.9390
16250TIP3    H270242   5.717   4.946  14.312  2.1556  0.9332 -0.7093
16251TIP3   OH270243   0.759   2.634   4.068  0.2009 -0.3026  0.0244
16251TIP3    H170244   0.747   2.696   4.140  1.0757 -0.0394 -0.0441
16251TIP3    H270245   0.784   2.688   3.993  0.6416 -0.7006 -0.1223
16252TIP3   OH270246   2.122   6.414   4.292 -0.1742  0.1227 -0.0958
16252TIP3    H170247   2.180   6.398   4.218 -0.0720 -0.5200  0.1245
16252TIP3    H270248   2.131   6.337   4.348  0.1127  0.8079  0.8249
16253TIP3   OH270249   5.238   4.935   1.590 -0.7077 -0.3075 -0.5406
16253TIP3    H170250   5.281   4.861   1.546  0.2224 -0.3752  0.4758
16253TIP3    H270251   5.305   5.004   1.592 -1.2701  0.2490 -0.6548
16254TIP3   OH270252   4.086   0.168   1.736 -0.4343  0.0141  0.0482
16254TIP3    H170253   4.159   0.143   1.679  1.6937  0.9840  2.2635
16254TIP3    H270254   4.122   0.236   1.793 -3.1842  0.7547  0.9674
16255TIP3   OH270255   3.031   1.370   4.840 -0.0893 -0.2496  0.2171
16255TIP3    H170256   2.974   1.381   4.916 -1.2676 -1.5356 -0.4686
16255TIP3    H270257   2.972   1.373   4.765  1.0844  1.2573 -0.7018
16256TIP3   OH270258   1.424   3.837   4.649 -0.3425 -0.0177  0.2655
16256TIP3    H170259   1.396   3.870   4.563 -0.4204  0.4517  0.4672
16256TIP3    H270260   1.520   3.842   4.646 -0.2263 -2.4804 -0.7614
16257TIP3   OH270261   0.760   4.755  14.197  0.5531  0.1378  0.0969
16257TIP3    H170262   0.796   4.810  14.267  0.4965 -1.9086  1.7723
16257TIP3    H270263   0.828   4.754  14.130  0.4841  2.3697 -0.0494
16258TIP3   OH270264   1.357   3.079  15.858  0.2292  0.1535 -0.0729
16258TIP3    H170265   1.373   3.171  15.835 -0.0991  0.4997  1.0586
16258TIP3    H270266   1.410   3.064  15.936  0.7037 -0.7855 -0.5584
16259TIP3   OH270267   4.256   5.224  15.066 -0.0231 -0.1296 -0.0554
16259TIP3    H170268   4.232   5.279  15.141 -0.0461 -1.3767  0.8713
16259TIP3    H270269   4.303   5.150  15.104  0.5614 -0.4385 -1.3456
16260TIP3   OH270270   6.478   4.080  16.436 -0.4988  0.1044 -0.2066
16260TIP3    H170271   6.436   4.036  16.362 -0.6852 -0.9532  0.5203
16260TIP3    H270272   6.438   4.167  16.438 -0.9833 -0.0975 -0.9421
16261TIP3   OH270273   2.400   4.978   4.290  0.3222 -0.2655 -0.7264
16261TIP3    H170274   2.344   4.912   4.251  0.5546 -1.3383  0.6981
16261TIP3    H270275   2.433   5.029   4.216 -2.2648  0.2031 -1.6203
16262TIP3   OH270276   3.379   3.267   5.573  0.0657 -0.1973  0.0692
16262TIP3    H170277   3.470   3.275   5.547  0.5162  0.1190  1.6918
16262TIP3    H270278   3.382   3.234   5.662 -1.3444  1.8534  0.9130
16263TIP3   OH270279   4.492   0.876   5.687 -0.5960  0.6444  0.0558
16263TIP3    H170280   4.586   0.891   5.701 -0.7601  1.1105  0.6539
16263TIP3    H270281   4.484   0.865   5.592  0.3304 -1.2284  0.1811
16264TIP3   OH270282   3.830   6.204  12.497  0.0690  0.4617 -0.5193
16264TIP3    H170283   3.760   6.264  12.474 -1.0901 -1.3432 -1.7538
16264TIP3    H270284   3.886   6.201  12.419  0.7646  0.8050 -0.0429
16265TIP3   OH270285   1.226   5.925  17.154 -0.0845  0.1804 -0.1188
16265TIP3    H170286   1.219   5.844  17.206 -0.7611  0.3598  0.0657
16265TIP3    H270287   1.214   5.896  17.064 -1.5303  0.2470  0.0476
16266TIP3   OH270288   3.288   3.333  16.581  0.5280 -0.3395  0.3399
16266TIP3    H170289   3.316   3.242  16.569 -0.2409 -0.4865 -0.3504
16266TIP3    H270290   3.341   3.382  16.519 -0.8773 -0.6471 -1.1321
16267TIP3   OH270291   4.874   2.755   3.171  0.1162  0.6731  0.4618
16267TIP3    H170292   4.852   2.665   3.149 -1.0017  0.8842  0.6906
16267TIP3    H270293   4.885   2.799   3.087 -1.8269  0.9156  0.2966
16268TIP3   OH270294   0.234   6.803  13.738  0.0255 -0.1578 -0.4701
16268TIP3    H170295   0.270   6.768  13.656  1.2826 -1.0276  0.4287
16268TIP3    H270296   0.164   6.862  13.710  0.6802 -0.1531 -2.1929
16269TIP3   OH270297   6.161   6.683   2.994  0.4809 -0.7915 -0.2184
16269TIP3    H170298   6.094   6.733   3.040 -1.3940 -3.3000 -0.1064
16269TIP3    H270299   6.235   6.680   3.055  0.1037  0.6256  0.3239
16270TIP3   OH270300   3.977   5.318   1.131  0.2422  0.3412 -0.2928
16270TIP3    H170301   3.899   5.373   1.126  0.4492  0.8369  1.5519
16270TIP3    H270302   4.047   5.379   1.155  0.3330 -0.8391  2.5804
16271TIP3   OH270303   4.122   0.817  12.805 -0.2473 -0.0272 -0.5505
16271TIP3    H170304   4.122   0.910  12.784  1.9641  0.3840  1.0930
16271TIP3    H270305   4.196   0.781  12.755 -0.6814 -0.7846 -0.6603
16272TIP3   OH270306   6.714   6.770   1.088  0.0725 -0.5940  0.4541
16272TIP3    H170307   6.678   6.842   1.036  3.0274 -0.6690 -1.8726
16272TIP3    H270308   6.697   6.692   1.035  0.8488 -1.0122  0.8206
16273TIP3   OH270309   0.194   1.968  15.491 -0.2434 -0.0789  0.3965
16273TIP3    H170310   0.134   2.041  15.507  0.2178  0.3036  0.3955
16273TIP3    H270311   0.280   2.009  15.481 -0.1715 -0.5101 -0.8216
16274TIP3   OH270312   3.262   5.668  12.398 -0.1268 -0.0820 -0.3772
16274TIP3    H170313   3.247   5.708  12.484 -0.4606 -1.7213  0.3656
16274TIP3    H270314   3.305   5.736  12.347 -0.1815  1.0244  0.9989
16275TIP3   OH270315   3.599   0.119  14.967 -0.8568  0.2442 -0.1929
16275TIP3    H170316   3.560   0.108  14.881 -2.3558 -1.1344  0.6284
16275TIP3    H270317   3.537   0.173  15.016 -0.2200  0.6764  0.1386
16276TIP3   OH270318   5.103   1.949   1.480  0.1485 -0.0222  0.1194
16276TIP3    H170319   5.175   1.989   1.529  0.7636  1.9142 -2.3162
16276TIP3    H270320   5.024   1.983   1.523  0.6721  2.7217 -0.9983
16277TIP3   OH270321   0.172   5.357  16.786  0.3149  0.0232 -0.0171
16277TIP3    H170322   0.151   5.423  16.851  0.4979  0.3668 -0.3049
16277TIP3    H270323   0.088   5.316  16.765  0.2961 -0.2727  0.6286
16278TIP3   OH270324   3.784   5.216   5.352  0.5565 -0.1746 -0.1003
16278TIP3    H170325   3.741   5.264   5.422  0.5732 -1.5517  0.8598
16278TIP3    H270326   3.715   5.166   5.310  0.2135  1.9283 -2.2125
16279TIP3   OH270327   3.079   5.126   4.720 -0.6225  0.6144  0.1588
16279TIP3    H170328   3.036   5.078   4.649  1.3269  0.0676 -0.6696
16279TIP3    H270329   3.126   5.060   4.769 -0.2673  1.2886  0.7377
16280TIP3   OH270330   3.590   1.984  12.383  0.1761  0.0461  0.0248
16280TIP3    H170331   3.638   1.966  12.302 -0.1943 -1.1828  0.0727
16280TIP3    H270332   3.593   1.902  12.432  0.2319  0.7220  1.1764
16281TIP3   OH270333   2.906   1.076   1.603  0.1668  0.3125  0.3184
16281TIP3    H170334   2.857   1.002   1.568  0.6152  0.1693 -0.0041
16281TIP3    H270335   2.908   1.139   1.532  0.5018  0.2954  0.3123
16282TIP3   OH270336   2.099   5.121   3.699 -0.1419  0.0546 -0.2243
16282TIP3    H170337   2.093   5.027   3.681  1.3538  0.1408 -1.2237
16282TIP3    H270338   2.036   5.160   3.638 -0.3664 -0.2535 -0.1920
16283TIP3   OH270339   1.161   5.697   3.486  0.5261 -0.5014  0.4925
16283TIP3    H170340   1.116   5.656   3.559 -1.4736 -2.6580 -1.8397
16283TIP3    H270341   1.232   5.636   3.465 -1.6162 -2.2139 -2.1113
16284TIP3   OH270342   1.185   0.528  12.203 -0.0316 -0.5408 -0.2299
16284TIP3    H170343   1.276   0.545  12.179  0.0500 -0.0126  0.4172
16284TIP3    H270344   1.172   0.580  12.283 -0.7420 -1.0266 -0.0260
16285TIP3   OH270345   5.542   6.451  16.061 -0.5579 -0.0470  0.0378
16285TIP3    H170346   5.630   6.480  16.038 -0.0089 -1.8641 -0.2687
16285TIP3    H270347   5.513   6.512  16.129  0.8206  0.7538 -0.0884
16286TIP3   OH270348   3.485   1.384  12.840 -0.0024  0.0458 -0.2269
16286TIP3    H170349   3.535   1.465  12.843 -0.2088  0.2106 -1.2899
16286TIP3    H270350   3.448   1.381  12.752 -1.6124 -0.2323  0.4476
16287TIP3   OH270351   0.363   4.244  14.721 -0.1239 -0.2488 -0.4256
16287TIP3    H170352   0.401   4.196  14.647  0.1751 -0.2553 -0.2628
16287TIP3    H270353   0.423   4.231  14.793 -1.3360 -1.7559  0.3339
16288TIP3   OH270354   6.089   5.990  11.433 -0.8600  0.1140  0.3013
16288TIP3    H170355   6.168   5.996  11.378 -0.7856  0.2987  0.4272
16288TIP3    H270356   6.023   5.951  11.376 -0.9315  0.7894 -0.0908
16289TIP3   OH270357   0.968   4.153   2.046  0.1010 -0.6623 -0.1811
16289TIP3    H170358   0.934   4.069   2.077 -0.8645 -0.5806 -0.9726
16289TIP3    H270359   0.918   4.170   1.966 -0.5421  1.2391  0.6057
16290TIP3   OH270360   6.544   3.980  16.045  0.2315  0.1258 -0.5977
16290TIP3    H170361   6.604   3.905  16.040 -1.4494 -1.1339 -2.9402
16290TIP3    H270362   6.470   3.947  16.096  0.1997  0.7158 -0.2666
16291TIP3   OH270363   4.085   1.254  11.534 -0.0823 -0.0205  0.1499
16291TIP3    H170364   4.156   1.292  11.482 -2.1262  2.0292 -1.2439
16291TIP3    H270365   4.028   1.212  11.470 -1.3463  0.3829  0.9832
16292TIP3   OH270366   4.918   2.587   0.902 -0.6694  0.7276 -0.8580
16292TIP3    H170367   4.945   2.650   0.969  0.0920 -0.1163 -0.3536
16292TIP3    H270368   4.833   2.555   0.933 -0.6485  0.8670 -0.6535
16293TIP3   OH270369   3.319   6.262  16.369  0.1696  1.0842  0.4878
16293TIP3    H170370   3.280   6.334  16.417 -0.5134 -0.4771  2.3297
16293TIP3    H270371   3.409   6.258  16.401  0.1506  0.9924  0.5297
16294TIP3   OH270372   2.300   2.960   4.042 -0.0645 -0.5484 -0.1807
16294TIP3    H170373   2.327   2.893   4.105 -2.5390 -1.1764  0.2694
16294TIP3    H270374   2.250   3.023   4.093  0.2515  0.4085 -1.0308
16295TIP3   OH270375   1.404   1.202   5.144 -0.3463 -0.0208  0.2039
16295TIP3    H170376   1.383   1.197   5.237 -0.8013 -0.7481  0.0667
16295TIP3    H270377   1.374   1.289   5.117 -1.0208 -0.1487  0.5379
16296TIP3   OH270378   0.814   5.253  14.356  0.2534  0.1648  0.0919
16296TIP3    H170379   0.881   5.191  14.385 -2.0445 -1.1272  2.8923
16296TIP3    H270380   0.770   5.207  14.284 -1.4486 -1.5505  2.1629
16297TIP3   OH270381   1.255   0.643   0.803 -0.7923  0.0592  0.2116
16297TIP3    H170382   1.247   0.729   0.844  1.3193 -0.3256  1.4559
16297TIP3    H270383   1.243   0.581   0.874  0.6080 -0.6386 -0.1439
16298TIP3   OH270384   3.020   0.540  15.478  0.2749  0.0663  0.4910
16298TIP3    H170385   2.974   0.596  15.415  0.7730  0.7964  0.7745
16298TIP3    H270386   3.101   0.514  15.432  1.5558  2.1426  1.5165
16299TIP3   OH270387   1.438   1.029  15.396  0.1072 -0.3030  0.3537
16299TIP3    H170388   1.381   0.989  15.330 -0.9389  0.9926  0.4436
16299TIP3    H270389   1.429   1.123  15.380  0.2155  0.0054  2.0342
16300TIP3   OH270390   4.030   3.899   2.118 -0.0465  0.7242 -0.6260
16300TIP3    H170391   4.086   3.918   2.193  1.2561 -1.3039 -1.0727
16300TIP3    H270392   4.068   3.949   2.046 -0.9262  2.1630 -0.1216
16301TIP3   OH270393   1.111   1.034   5.474 -0.2377  0.2568  0.1753
16301TIP3    H170394   1.045   1.002   5.412 -0.3593 -0.5710  0.7310
16301TIP3    H270395   1.150   0.955   5.511  0.5053  0.7483  0.4543
16302TIP3   OH270396   3.770   3.451  16.464  0.4226  0.1927 -0.3087
16302TIP3    H170397   3.727   3.522  16.416  0.2476  1.4926  1.7301
16302TIP3    H270398   3.861   3.455  16.436  0.2960  0.8613 -0.6294
16303TIP3   OH270399   0.480   6.034  11.773 -0.2923 -0.3609 -0.1439
16303TIP3    H170400   0.390   6.003  11.763  0.7160 -3.2629 -0.7090
16303TIP3    H270401   0.514   6.040  11.684 -0.0643  1.2783  0.0310
16304TIP3   OH270402   4.910   2.528   5.352  0.2254  0.2548 -0.5168
16304TIP3    H170403   4.837   2.520   5.412  0.4674 -0.1145 -0.2704
16304TIP3    H270404   4.983   2.557   5.407  0.6106 -0.7039 -0.5065
16305TIP3   OH270405   5.478   5.570   6.139 -0.3325  0.1767  0.2868
16305TIP3    H170406   5.396   5.560   6.091 -0.8819  0.3156  1.1771
16305TIP3    H270407   5.546   5.548   6.076 -1.0850 -0.5368 -0.2851
16306TIP3   OH270408   6.554   2.873   4.193  0.0111 -0.0507 -0.0808
16306TIP3    H170409   6.616   2.855   4.123  0.8475 -1.3110  0.9705
16306TIP3    H270410   6.574   2.962   4.221  1.7448 -0.6361  0.6219
16307TIP3   OH270411   2.225   6.013  12.595 -0.1073  0.0534 -0.6517
16307TIP3    H170412   2.151   6.058  12.637  0.5687  0.9939 -0.4401
16307TIP3    H270413   2.239   5.935  12.648 -0.0645  0.5854  0.1334
16308TIP3   OH270414   2.392   3.262  13.347 -0.2280 -0.1919  0.0025
16308TIP3    H170415   2.347   3.338  13.311 -1.2309 -0.5133  0.5545
16308TIP3    H270416   2.402   3.203  13.273  2.7133  1.4408 -0.9892
16309TIP3   OH270417   3.894   3.345   3.900  0.4392 -0.0774 -0.4189
16309TIP3    H170418   3.799   3.347   3.890  0.6361  1.4552 -2.1105
16309TIP3    H270419   3.908   3.357   3.994 -1.0334 -0.6043 -0.1136
16310TIP3   OH270420   5.759   0.118  11.364 -0.0453  0.8470 -0.2979
16310TIP3    H170421   5.698   0.081  11.301 -2.3645  0.6608  1.9731
16310TIP3    H270422   5.812   0.180  11.313 -1.4044  0.2220 -2.5331
16311TIP3   OH270423   4.421   0.865  12.926 -0.7634  0.3449  0.2473
16311TIP3    H170424   4.505   0.908  12.910 -1.2991  1.1016 -0.6092
16311TIP3    H270425   4.377   0.923  12.989 -1.3549  0.9044 -0.6625
16312TIP3   OH270426   0.778   1.685  15.032  0.7639 -0.2362  0.0551
16312TIP3    H170427   0.776   1.647  15.120  1.0007  0.7554  0.5003
16312TIP3    H270428   0.754   1.613  14.974 -0.3406 -0.6653  1.0116
16313TIP3   OH270429   4.004   3.362  11.521 -0.5396 -0.0231 -0.4164
16313TIP3    H170430   3.964   3.405  11.446  0.1217 -1.1036 -1.4093
16313TIP3    H270431   4.057   3.291  11.483  0.4153 -0.1025  1.0093
16314TIP3   OH270432   3.814   5.627   2.516  0.2562 -0.4344 -0.5770
16314TIP3    H170433   3.784   5.578   2.592 -1.8263 -0.0373 -1.1314
16314TIP3    H270434   3.878   5.569   2.475  0.5483 -1.1294  0.8148
16315TIP3   OH270435   6.523   2.141   5.318 -0.4450  0.3075 -0.6963
16315TIP3    H170436   6.518   2.079   5.246 -1.0189  0.1208 -0.5000
16315TIP3    H270437   6.435   2.178   5.323 -0.5716 -0.1156  0.2915
16316TIP3   OH270438   2.835   0.500   5.103 -0.5201 -0.1795  0.5409
16316TIP3    H170439   2.750   0.502   5.060 -0.6329 -0.5885  0.7426
16316TIP3    H270440   2.897   0.526   5.035 -0.5450 -2.0366 -0.2358
16317TIP3   OH270441   1.880   4.727   2.008  0.9849 -0.4695 -0.7300
16317TIP3    H170442   1.900   4.634   1.992  0.7410 -0.5295 -0.6848
16317TIP3    H270443   1.959   4.773   1.979  1.0421 -0.6783 -0.9107
16318TIP3   OH270444   4.832   3.963   5.186 -0.1303 -0.5556 -0.5781
16318TIP3    H170445   4.740   3.970   5.161 -0.3287  0.0478  0.2780
16318TIP3    H270446   4.874   4.038   5.144  0.2176 -1.5083 -1.9723
16319TIP3   OH270447   0.609   1.199   3.147 -0.5190 -0.5111 -0.0168
16319TIP3    H170448   0.684   1.140   3.134 -0.9162 -0.9701 -0.2495
16319TIP3    H270449   0.644   1.286   3.128 -0.8082 -1.0451 -3.3167
16320TIP3   OH270450   3.118   6.034  15.495 -0.5934 -0.1414 -0.1491
16320TIP3    H170451   3.200   6.081  15.480 -1.9748  2.1097 -1.0353
16320TIP3    H270452   3.121   5.960  15.434  1.7901 -1.4867  1.5351
16321TIP3   OH270453   3.760   1.247  14.618  0.4607 -1.1909  0.1518
16321TIP3    H170454   3.690   1.286  14.670 -0.4714 -0.7940 -1.3543
16321TIP3    H270455   3.821   1.320  14.601  0.6179 -1.2546  0.4375
16322TIP3   OH270456   0.386   5.659  12.312 -0.1263  0.2832 -0.0543
16322TIP3    H170457   0.360   5.683  12.401 -0.5536 -0.6313  0.0695
16322TIP3    H270458   0.317   5.695  12.256  0.0920  0.7733 -0.0129
16323TIP3   OH270459   5.779   1.283  11.009 -0.6399  0.1753 -0.6914
16323TIP3    H170460   5.871   1.278  10.983  0.4712 -1.5037  3.2341
16323TIP3    H270461   5.730   1.265  10.928  2.4879 -0.4917 -2.5117
16324TIP3   OH270462   2.480   4.019  16.555 -0.3169  0.0383  0.0990
16324TIP3    H170463   2.403   3.975  16.591  0.2273  0.2240  1.5112
16324TIP3    H270464   2.449   4.106  16.530 -0.4565  0.2814  1.1134
16325TIP3   OH270465   4.807   5.043  12.776 -0.1457 -0.1025 -0.0183
16325TIP3    H170466   4.861   5.005  12.707 -0.0698  0.9483 -0.5491
16325TIP3    H270467   4.720   5.050  12.737 -0.2075  0.0612  0.1486
16326TIP3   OH270468   6.037   6.810   5.941  0.2518 -0.7307 -0.6122
16326TIP3    H170469   6.065   6.808   5.850  0.1948 -2.1668 -0.6094
16326TIP3    H270470   5.943   6.829   5.937  0.2389 -0.8439 -0.8615
16327TIP3   OH270471   5.057   2.199   1.331 -0.0890 -0.1524  0.3711
16327TIP3    H170472   5.037   2.260   1.401 -0.1703 -1.0622  1.1418
16327TIP3    H270473   5.152   2.193   1.330 -0.0901 -0.1808  0.4393
16328TIP3   OH270474   5.554   6.156  12.732 -0.4481 -0.8163  0.0425
16328TIP3    H170475   5.644   6.124  12.719 -0.2744  0.3299 -1.8104
16328TIP3    H270476   5.560   6.217  12.805  0.3656 -0.3970 -0.3696
16329TIP3   OH270477   0.191   3.272   1.449  0.3836 -0.2118  0.1696
16329TIP3    H170478   0.131   3.343   1.426  1.1135  0.3193 -0.0919
16329TIP3    H270479   0.141   3.192   1.432 -0.4062  0.2316  0.3717
16330TIP3   OH270480   3.298   1.000   0.604 -0.3218  0.6983  0.0050
16330TIP3    H170481   3.269   1.003   0.513 -1.7856 -2.1540  0.3424
16330TIP3    H270482   3.385   0.961   0.601 -0.7579 -0.2649 -0.0844
16331TIP3   OH270483   1.447   4.391   2.470  0.3453 -0.4141 -0.1691
16331TIP3    H170484   1.353   4.399   2.453  0.5935 -0.6382 -1.6580
16331TIP3    H270485   1.483   4.351   2.392  1.5501 -1.2474  0.7871
16332TIP3   OH270486   1.184   2.726  11.994 -0.5836  0.1309 -0.0434
16332TIP3    H170487   1.151   2.713  12.083  0.0374  2.1839  0.5151
16332TIP3    H270488   1.105   2.733  11.940 -0.9743 -0.5897  0.4357
16333TIP3   OH270489   2.518   0.457   4.503  0.3401 -0.3972  0.7877
16333TIP3    H170490   2.473   0.477   4.421  1.0140  0.5798  0.6452
16333TIP3    H270491   2.464   0.389   4.544 -0.8439  0.2158  0.2725
16334TIP3   OH270492   5.837   4.241   0.356 -0.7945 -0.3312  0.2247
16334TIP3    H170493   5.838   4.175   0.425  1.7881 -0.8370 -0.2532
16334TIP3    H270494   5.891   4.205   0.287 -0.1998  1.8303 -0.4895
16335TIP3   OH270495   2.816   2.463   3.910  0.0244  0.2078 -0.5250
16335TIP3    H170496   2.883   2.454   3.977 -0.0384  0.2027 -0.4624
16335TIP3    H270497   2.756   2.390   3.926  0.7917 -0.6405 -1.4919
16336TIP3   OH270498   3.644   6.319  11.830 -0.2504 -0.8683 -0.0025
16336TIP3    H170499   3.661   6.237  11.876  0.1577 -1.9736 -2.0606
16336TIP3    H270500   3.730   6.347  11.797 -0.6744 -0.6166 -0.9264
16337TIP3   OH270501   5.080   4.750   3.507 -0.0997  0.5894 -0.0834
16337TIP3    H170502   5.078   4.698   3.427  1.5133  3.2975 -1.9542
16337TIP3    H270503   4.992   4.788   3.513  0.3497  1.9707 -1.7242
16338TIP3   OH270504   0.359   0.709   4.051  1.2814  0.5697  0.5379
16338TIP3    H170505   0.316   0.744   3.973  2.3785 -0.1763 -0.4010
16338TIP3    H270506   0.315   0.626   4.068 -0.5774  1.8192  2.1312
16339TIP3   OH270507   2.229   2.625  15.981 -0.0387  0.1177  0.3957
16339TIP3    H170508   2.301   2.564  15.962 -0.7974 -0.3138 -1.1467
16339TIP3    H270509   2.269   2.711  15.977  0.2809 -0.0885 -1.0801
16340TIP3   OH270510   0.774   0.498  14.910  0.0952 -0.6472 -0.5087
16340TIP3    H170511   0.705   0.440  14.879 -0.7422  1.3794 -2.5839
16340TIP3    H270512   0.804   0.544  14.831  0.8673  1.5442  1.0102
16341TIP3   OH270513   2.208   1.734  12.616  0.3010 -0.2256 -0.4458
16341TIP3    H170514   2.291   1.711  12.574  0.4598  0.3276 -0.4414
16341TIP3    H270515   2.143   1.680  12.570  0.1209  2.1391 -3.1170
16342TIP3   OH270516   2.651   1.061   3.347  0.3451 -0.1867 -0.3685
16342TIP3    H170517   2.689   1.045   3.260  0.3398  0.6814 -0.5379
16342TIP3    H270518   2.557   1.059   3.333  0.3298  2.1911 -0.8327
16343TIP3   OH270519   4.203   3.192  11.336  0.1454 -0.0350  0.0696
16343TIP3    H170520   4.228   3.233  11.253 -0.5994 -0.9578 -0.6202
16343TIP3    H270521   4.135   3.129  11.312 -0.2002 -0.1831  1.4096
16344TIP3   OH270522   5.663   6.345  16.306  0.3113  0.9348 -0.6009
16344TIP3    H170523   5.616   6.356  16.223 -0.4971 -0.5011 -0.3472
16344TIP3    H270524   5.738   6.291  16.284 -0.5703 -0.4787 -0.1788
16345TIP3   OH270525   4.792   1.815   3.310 -0.7335  0.1613 -0.0600
16345TIP3    H170526   4.844   1.754   3.364 -1.1149 -1.5168 -1.5522
16345TIP3    H270527   4.743   1.867   3.374 -0.0769 -0.7951  1.2605
16346TIP3   OH270528   1.221   1.039   5.930  0.1979 -0.2335 -0.4608
16346TIP3    H170529   1.229   0.950   5.895  0.8431 -0.5961  0.5763
16346TIP3    H270530   1.139   1.039   5.978  1.4355 -1.0741  1.7441
16347TIP3   OH270531   1.854   5.228   0.616  0.3801  0.4323  0.3689
16347TIP3    H170532   1.928   5.285   0.592 -1.1156  1.0864 -3.0360
16347TIP3    H270533   1.780   5.263   0.565 -1.2395 -2.8398  0.3874
16348TIP3   OH270534   4.802   2.876  15.541 -0.3986  0.0195 -0.1334
16348TIP3    H170535   4.751   2.951  15.572 -1.0675  0.6055 -2.4995
16348TIP3    H270536   4.737   2.818  15.501  0.0848 -1.9801  1.9016
16349TIP3   OH270537   4.149   1.529   1.728  0.2042 -0.1585  0.3541
16349TIP3    H170538   4.163   1.536   1.633  1.3426  0.3102  0.5483
16349TIP3    H270539   4.069   1.579   1.744  0.7908  0.9727 -0.1662
16350TIP3   OH270540   2.220   1.710   4.331 -0.2521  0.1958  0.9756
16350TIP3    H170541   2.153   1.669   4.278  1.6067  0.2766 -1.5134
16350TIP3    H270542   2.201   1.804   4.325  0.2387  0.2410  0.0248
16351TIP3   OH270543   3.446   0.112  16.138 -0.0752  0.3018 -0.2895
16351TIP3    H170544   3.423   0.073  16.054  0.9886  0.8718 -0.8665
16351TIP3    H270545   3.372   0.092  16.196  0.4985 -2.6796 -0.5034
16352TIP3   OH270546   4.612   1.696   4.215  0.0317 -0.2004  0.0531
16352TIP3    H170547   4.656   1.720   4.297  0.7678 -1.0779 -0.0800
16352TIP3    H270548   4.519   1.693   4.238  0.2592 -0.7122  0.9262
16353TIP3   OH270549   0.984   5.020  14.122  0.5220 -0.2506  0.1827
16353TIP3    H170550   0.896   5.050  14.146  0.7589  1.2324 -0.7690
16353TIP3    H270551   0.992   4.935  14.165 -1.0487 -0.0109  1.0008
16354TIP3   OH270552   2.526   4.759  13.485 -0.0251  0.0564  0.3975
16354TIP3    H170553   2.612   4.796  13.505  0.6993 -1.2424 -0.2347
16354TIP3    H270554   2.542   4.701  13.411 -1.4564 -0.1977  0.2767
16355TIP3   OH270555   0.082   1.363  15.361 -0.4224 -0.0268 -0.3924
16355TIP3    H170556   0.019   1.397  15.425 -0.3940  0.5500 -0.6592
16355TIP3    H270557   0.144   1.313  15.412 -1.2748 -0.8588 -0.1563
16356TIP3   OH270558   2.529   6.118   6.194 -0.6183  0.3732  0.0251
16356TIP3    H170559   2.542   6.143   6.286  3.5575 -0.9359 -0.1206
16356TIP3    H270560   2.528   6.023   6.195  0.7783  0.3217 -1.4082
16357TIP3   OH270561   2.481   5.856  11.460  0.4887  0.1100  0.3807
16357TIP3    H170562   2.437   5.808  11.530  0.9737 -2.4161 -0.9966
16357TIP3    H270563   2.416   5.864  11.390  1.1646 -0.7088 -0.3568
16358TIP3   OH270564   0.832   5.065  16.013  0.4836  0.0692 -0.2751
16358TIP3    H170565   0.834   5.079  15.919  1.2514 -0.1782 -0.2980
16358TIP3    H270566   0.908   5.009  16.031  0.3247  0.0835  0.4841
16359TIP3   OH270567   0.291   1.321  14.708  0.2032  0.3883 -0.5910
16359TIP3    H170568   0.257   1.410  14.703 -0.2602  0.3189  0.9684
16359TIP3    H270569   0.223   1.267  14.669 -0.3010  0.5387  0.0684
16360TIP3   OH270570   6.791   0.606   4.333 -0.5559 -0.0387 -0.1170
16360TIP3    H170571   6.863   0.570   4.385 -1.6388 -1.1764  0.6448
16360TIP3    H270572   6.801   0.700   4.340 -0.7266 -0.1540  2.2784
16361TIP3   OH270573   1.822   3.689  16.774  0.7748 -0.2688 -0.1706
16361TIP3    H170574   1.788   3.630  16.841  0.6929 -1.2962 -1.1122
16361TIP3    H270575   1.744   3.728  16.734  0.8067 -0.1933 -0.1601
16362TIP3   OH270576   6.351   0.453   6.178  0.3020 -0.3004 -0.1742
16362TIP3    H170577   6.358   0.438   6.272 -3.3031  1.3387  0.4425
16362TIP3    H270578   6.385   0.373   6.138 -0.2938 -1.9599  2.5546
16363TIP3   OH270579   5.934   5.553   4.470 -0.3195  0.1916 -0.5016
16363TIP3    H170580   5.919   5.494   4.544  0.2979 -0.1532 -0.6564
16363TIP3    H270581   6.003   5.511   4.419 -0.4820  0.6210 -1.0716
16364TIP3   OH270582   3.617   3.851  12.888 -0.0966  0.0489 -0.6734
16364TIP3    H170583   3.649   3.803  12.812  0.7308 -0.0631 -0.2657
16364TIP3    H270584   3.522   3.850  12.879  0.0491  2.0402 -2.9204
16365TIP3   OH270585   4.883   1.128   1.330  0.1769 -0.4252  0.8291
16365TIP3    H170586   4.896   1.105   1.238 -0.6901 -0.1593  0.6364
16365TIP3    H270587   4.952   1.192   1.349  0.2689 -0.3810  0.3357
16366TIP3   OH270588   4.399   5.061   5.212 -0.3347 -0.3818 -0.5369
16366TIP3    H170589   4.471   5.040   5.271 -1.0402 -0.0734  0.4351
16366TIP3    H270590   4.374   4.977   5.174 -1.7677 -1.0394  1.7707
16367TIP3   OH270591   5.244   6.021   2.237 -0.0353  0.0510  0.2594
16367TIP3    H170592   5.301   6.004   2.163 -1.3262 -0.2362 -0.6830
16367TIP3    H270593   5.302   6.053   2.306  1.6303 -2.6789  0.1809
16368TIP3   OH270594   0.849   2.030  14.552  0.5356  0.0385 -0.1219
16368TIP3    H170595   0.776   2.042  14.613 -0.3225  0.1550 -1.1580
16368TIP3    H270596   0.903   1.962  14.592  1.0292  1.4842  1.7390
16369TIP3   OH270597   6.205   0.597  15.704  0.2246 -0.1607 -0.1720
16369TIP3    H170598   6.246   0.522  15.662 -1.9264 -1.1978 -0.4944
16369TIP3    H270599   6.233   0.592  15.795  0.0839 -1.3784 -0.1889
16370TIP3   OH270600   4.629   1.745  15.154  0.1571 -0.4703 -0.0570
16370TIP3    H170601   4.586   1.795  15.085 -0.4888  2.0734  2.1320
16370TIP3    H270602   4.722   1.745  15.130 -0.2298 -0.7875 -1.6152
16371TIP3   OH270603   0.273   2.114   4.897  0.1360  0.2984 -0.0454
16371TIP3    H170604   0.190   2.092   4.941 -0.8882  2.3370 -0.8806
16371TIP3    H270605   0.305   2.030   4.864 -0.4066 -0.8824  2.2661
16372TIP3   OH270606   4.863   1.085   0.509  0.1358 -0.1436  0.2756
16372TIP3    H170607   4.912   1.090   0.591 -0.5804 -1.6990  0.8169
16372TIP3    H270608   4.861   0.991   0.488  1.6482  0.3794 -2.3446
16373TIP3   OH270609   1.966   0.142   5.151  0.3934  0.3562  0.1973
16373TIP3    H170610   1.931   0.131   5.239 -0.9335  2.4170 -0.0392
16373TIP3    H270611   1.909   0.207   5.110  0.9124 -0.6561 -2.2338
16374TIP3   OH270612   2.098   2.588  13.739 -0.4422  0.2934 -0.2793
16374TIP3    H170613   2.004   2.592  13.722 -0.4576  0.3482 -0.1800
16374TIP3    H270614   2.125   2.680  13.742 -0.3402  0.2728 -0.5680
16375TIP3   OH270615   3.202   3.634   5.151  0.6847  0.0837  0.3742
16375TIP3    H170616   3.216   3.550   5.194 -3.0602  0.3268  2.2687
16375TIP3    H270617   3.246   3.697   5.208  1.4825 -0.3206  0.2119
16376TIP3   OH270618   4.230   2.258  16.863 -0.2213  0.2784 -0.4651
16376TIP3    H170619   4.167   2.325  16.838 -1.9055 -0.9385  0.4025
16376TIP3    H270620   4.315   2.301  16.855 -1.2522  2.4644 -0.0460
16377TIP3   OH270621   3.612   5.485  10.738  0.3706  0.3076  0.0987
16377TIP3    H170622   3.598   5.452  10.649  0.6595  1.9386 -0.5720
16377TIP3    H270623   3.663   5.565  10.726 -0.5662  1.1629  1.6593
16378TIP3   OH270624   0.963   6.315  15.424 -0.0253  0.3675  0.3621
16378TIP3    H170625   0.958   6.233  15.374  0.3073 -0.0297  0.9789
16378TIP3    H270626   1.057   6.334  15.429 -0.1862  1.8640 -1.5128
16379TIP3   OH270627   2.462   1.381  12.906 -1.0468  0.4683  0.3543
16379TIP3    H170628   2.371   1.386  12.936 -1.3604  2.2532 -0.8375
16379TIP3    H270629   2.460   1.417  12.817  0.7708  0.2092  0.1911
16380TIP3   OH270630   6.124   1.999  15.632 -0.3749 -0.0846  0.0349
16380TIP3    H170631   6.195   1.935  15.630 -2.1939 -2.1928  0.8070
16380TIP3    H270632   6.106   2.017  15.539  2.1224  1.6364 -0.1641
16381TIP3   OH270633   5.122   5.995  13.055 -0.1375  0.0417  0.0954
16381TIP3    H170634   5.045   5.950  13.020 -0.9951  2.4165 -1.2307
16381TIP3    H270635   5.125   6.077  13.006  2.9015  0.2697  0.5687
16382TIP3   OH270636   0.319   4.422   5.164  0.1303 -0.0792 -0.1175
16382TIP3    H170637   0.409   4.414   5.133 -0.9983 -0.0724 -3.6127
16382TIP3    H270638   0.276   4.342   5.134 -1.0963  0.0592  1.2342
16383TIP3   OH270639   1.166   4.653   2.550  0.0528  0.3920 -0.3597
16383TIP3    H170640   1.163   4.573   2.498 -1.5337  0.8025 -0.9403
16383TIP3    H270641   1.193   4.721   2.488 -1.0639  0.7429 -0.4726
16384TIP3   OH270642   0.411   4.759  11.951 -0.2216 -0.0653  0.2689
16384TIP3    H170643   0.380   4.850  11.945  0.3013  0.1006  0.0467
16384TIP3    H270644   0.364   4.714  11.881 -1.4808 -0.2570  1.2296
16385TIP3   OH270645   4.168   5.663  13.475  0.1267 -0.2573 -0.7469
16385TIP3    H170646   4.178   5.757  13.465  0.9160 -0.2377  0.1239
16385TIP3    H270647   4.146   5.631  13.387 -2.2740  0.9824 -0.6159
16386TIP3   OH270648   0.122   5.902   6.425 -0.3556 -0.0029 -0.0130
16386TIP3    H170649   0.186   5.924   6.492  0.8529  0.8185 -1.3897
16386TIP3    H270650   0.138   5.809   6.407  0.1448  0.0772 -0.0037
16387TIP3   OH270651   3.843   5.221  14.695  0.0343 -0.1934  0.2342
16387TIP3    H170652   3.921   5.268  14.667  0.1067 -1.0348 -1.0100
16387TIP3    H270653   3.774   5.251  14.636 -0.3517 -0.2389  0.6552
16388TIP3   OH270654   4.083   3.646  13.538 -0.5527  0.7905  0.2857
16388TIP3    H170655   4.081   3.731  13.493  1.4856  0.6360 -0.1146
16388TIP3    H270656   4.050   3.584  13.474 -2.2287  1.2843  0.6389
16389TIP3   OH270657   5.766   6.727  16.194 -0.3750  0.5719 -0.3383
16389TIP3    H170658   5.755   6.733  16.289  0.9766  1.3434 -0.2187
16389TIP3    H270659   5.762   6.818  16.165 -3.5054  0.1470 -1.3566
16390TIP3   OH270660   1.562   2.547  11.527 -0.0299 -0.3332 -0.4465
16390TIP3    H170661   1.648   2.574  11.559 -0.3317 -0.8739  0.8391
16390TIP3    H270662   1.515   2.629  11.514  0.1824 -0.0952  0.2600
16391TIP3   OH270663   5.380   3.772   6.189 -0.3559  0.6667  0.0056
16391TIP3    H170664   5.297   3.803   6.224  1.2977  0.9912  3.9415
16391TIP3    H270665   5.417   3.718   6.259  3.5670  2.0494 -0.8789
16392TIP3   OH270666   3.078   0.810   0.495  0.4256  0.0765  0.1822
16392TIP3    H170667   3.156   0.757   0.482  1.0696  1.2840 -0.8974
16392TIP3    H270668   3.106   0.881   0.553  0.3929  1.0778 -1.0152
16393TIP3   OH270669   1.729   5.562   3.245  0.1700  0.1469 -0.0442
16393TIP3    H170670   1.824   5.550   3.239  0.2672  1.3127 -1.0508
16393TIP3    H270671   1.712   5.567   3.339  1.3784  1.9074  0.1095
16394TIP3   OH270672   0.181   4.304  10.562 -0.3707  0.4055 -0.0996
16394TIP3    H170673   0.144   4.347  10.640  1.5631  0.3123  0.8818
16394TIP3    H270674   0.220   4.223  10.595 -1.4948 -0.7416 -1.5236
16395TIP3   OH270675   4.893   0.896  12.842 -0.1143 -0.0536 -0.3767
16395TIP3    H170676   4.940   0.836  12.899  1.1127  1.5630  0.3469
16395TIP3    H270677   4.920   0.872  12.754 -0.0468 -0.9018 -0.1307
16396TIP3   OH270678   6.199   0.946   1.463 -0.2549 -0.0404 -0.2520
16396TIP3    H170679   6.248   0.864   1.460  0.3605  0.2906  0.6558
16396TIP3    H270680   6.132   0.932   1.529 -1.6820 -0.6474 -1.8085
16397TIP3   OH270681   5.843   0.112  11.623 -0.6357 -0.2173 -0.1302
16397TIP3    H170682   5.936   0.095  11.608 -0.5887 -0.7283  0.7202
16397TIP3    H270683   5.805   0.113  11.536  0.0864 -0.4789 -0.4530
16398TIP3   OH270684   0.748   0.084  11.405  0.5016  1.3390  0.2138
16398TIP3    H170685   0.714  -0.005  11.420  0.8880  1.4126  1.6395
16398TIP3    H270686   0.728   0.102  11.313  1.6554 -0.7665 -0.5034
16399TIP3   OH270687   4.688   6.553   1.258 -0.5026 -0.0423 -0.2548
16399TIP3    H170688   4.596   6.577   1.264 -0.7511 -0.7330 -1.2180
16399TIP3    H270689   4.730   6.631   1.221 -0.7196  0.2258  0.0599
16400TIP3   OH270690   1.107   6.361  14.786 -0.6145  0.5757 -0.8413
16400TIP3    H170691   1.074   6.386  14.699 -0.5307  1.0786 -0.7303
16400TIP3    H270692   1.087   6.436  14.841 -1.7169 -0.2045 -0.1505
16401TIP3   OH270693   3.298   4.716  16.271 -0.4394  0.4357 -0.2013
16401TIP3    H170694   3.220   4.748  16.316 -0.9070  0.1988 -0.8244
16401TIP3    H270695   3.328   4.642  16.324 -0.3086  0.8729  0.3440
16402TIP3   OH270696   1.377   5.296   2.328  0.3949 -0.3042 -0.5830
16402TIP3    H170697   1.303   5.336   2.375  0.9765 -0.1847  0.2428
16402TIP3    H270698   1.440   5.367   2.317 -0.7392  0.3023 -3.7568
16403TIP3   OH270699   2.501   4.917  11.582  0.3567  0.5218  0.6186
16403TIP3    H170700   2.534   4.843  11.532  1.3814  0.9738  0.6282
16403TIP3    H270701   2.410   4.926  11.554  0.9230  0.8020 -1.2191
16404TIP3   OH270702   1.585   2.747  15.485  0.4132  0.0797  0.5706
16404TIP3    H170703   1.671   2.732  15.446 -0.1563 -0.0730 -0.6402
16404TIP3    H270704   1.575   2.675  15.548  0.8732 -0.2983  0.2155
16405TIP3   OH270705   4.093   0.220  12.104 -0.0254  0.0427 -0.1955
16405TIP3    H170706   4.162   0.175  12.153  2.1204  1.7275 -1.5762
16405TIP3    H270707   4.058   0.285  12.165 -0.1035 -0.5428  0.3827
16406TIP3   OH270708   2.606   2.845  13.218  0.3532  0.1920  0.0069
16406TIP3    H170709   2.550   2.851  13.295 -2.3152 -1.6932 -1.6684
16406TIP3    H270710   2.561   2.896  13.151  1.4752 -0.0472 -0.9592
16407TIP3   OH270711   4.935   1.939   3.929 -0.3796  0.0451 -0.8933
16407TIP3    H170712   4.937   1.889   4.011 -1.3537  0.5467 -0.5510
16407TIP3    H270713   4.993   2.013   3.944 -1.2498  0.6292 -0.3127
16408TIP3   OH270714   3.585   3.384  15.281 -0.2342 -0.0883  0.2561
16408TIP3    H170715   3.677   3.368  15.260 -0.0416  0.4230  0.7047
16408TIP3    H270716   3.536   3.341  15.210  0.3623  0.1027 -0.2670
16409TIP3   OH270717   4.574   2.952  14.608 -0.1366  0.2761  0.2261
16409TIP3    H170718   4.529   2.868  14.618 -0.0851  0.2529  0.2595
16409TIP3    H270719   4.514   3.016  14.646 -0.5374  0.3590 -0.5392
16410TIP3   OH270720   0.034   1.424   1.834 -0.2167 -0.0526  0.3103
16410TIP3    H170721   0.043   1.331   1.856  0.6496  0.0719  0.5133
16410TIP3    H270722  -0.059   1.443   1.848 -0.1988 -0.6338  1.2680
16411TIP3   OH270723   3.860   6.617   0.726  0.2436  0.0307  0.2083
16411TIP3    H170724   3.854   6.647   0.817 -1.1815 -1.3940  0.6228
16411TIP3    H270725   3.928   6.550   0.727  2.1836  1.9596 -0.3581
16412TIP3   OH270726   4.973   0.689   3.811 -0.0267 -0.4975 -0.0370
16412TIP3    H170727   5.007   0.712   3.725 -0.2115 -0.1995 -0.0341
16412TIP3    H270728   4.940   0.772   3.846  2.1844 -0.1307  1.2871
16413TIP3   OH270729   2.476   3.380   3.084 -0.3062 -0.3039  0.1642
16413TIP3    H170730   2.499   3.305   3.029  0.1217  0.4081 -0.6365
16413TIP3    H270731   2.493   3.351   3.173 -0.4849 -1.2850 -0.1153
16414TIP3   OH270732   4.260   4.109  14.918 -0.1273  0.6972  0.5623
16414TIP3    H170733   4.197   4.076  14.854  0.1479  0.4821  0.3980
16414TIP3    H270734   4.263   4.204  14.903 -1.0242  0.8195  1.1315
16415TIP3   OH270735   0.366   2.712  13.090  0.3003  0.4328 -0.1447
16415TIP3    H170736   0.425   2.643  13.057 -2.1224 -1.0412 -1.5688
16415TIP3    H270737   0.290   2.664  13.122 -0.5794  2.3660  0.6879
16416TIP3   OH270738   1.985   5.533  16.471  0.1268 -0.2163  0.1335
16416TIP3    H170739   1.905   5.518  16.520 -0.2511  0.4761 -0.2756
16416TIP3    H270740   2.023   5.612  16.509  1.8303 -1.8090  1.9023
16417TIP3   OH270741   1.472   6.352  16.247  0.7156 -0.1687 -0.8557
16417TIP3    H170742   1.504   6.433  16.208 -0.9950  0.6598 -0.5864
16417TIP3    H270743   1.378   6.353  16.230  0.2153 -0.7093  1.6170
16418TIP3   OH270744   3.387   6.079  15.639 -0.1232 -0.1042 -0.3938
16418TIP3    H170745   3.363   5.986  15.649  0.7887 -0.2139  0.9480
16418TIP3    H270746   3.379   6.115  15.728  2.5683  0.3512 -0.3022
16419TIP3   OH270747   6.624   2.300  16.826  0.3043  0.0221  0.2268
16419TIP3    H170748   6.599   2.367  16.763 -1.1265 -0.4962  0.2194
16419TIP3    H270749   6.572   2.320  16.904  0.8632 -0.3025  0.6919
16420TIP3   OH270750   5.727   5.809   5.450 -0.1720 -0.2384  0.4475
16420TIP3    H170751   5.653   5.789   5.393  0.1851  0.8147 -0.3968
16420TIP3    H270752   5.775   5.726   5.458  0.0509 -0.2786 -1.1905
16421TIP3   OH270753   3.488   4.848   1.759 -0.3121 -0.3113  0.1818
16421TIP3    H170754   3.543   4.887   1.692 -0.2675 -2.5615 -1.1334
16421TIP3    H270755   3.398   4.870   1.732 -0.3095 -1.4533 -0.7971
16422TIP3   OH270756   4.263   0.557   5.297 -0.1666 -0.3595  0.1818
16422TIP3    H170757   4.172   0.533   5.281  0.1599 -1.1682 -0.5091
16422TIP3    H270758   4.264   0.588   5.387 -1.1860 -0.0335  0.0861
16423TIP3   OH270759   3.231   0.281  16.326 -0.4896  0.0545  0.4136
16423TIP3    H170760   3.234   0.252  16.234  0.1230  0.3414  0.3427
16423TIP3    H270761   3.273   0.367  16.325  0.6246 -0.4678  1.1592
16424TIP3   OH270762   4.479   5.247   3.950  0.0043  0.0361  0.3050
16424TIP3    H170763   4.435   5.170   3.986  0.9490 -1.0096 -0.7362
16424TIP3    H270764   4.462   5.316   4.014 -1.3597 -0.8735  0.9637
16425TIP3   OH270765   4.931   4.532   3.870 -0.3338  0.2680 -0.1594
16425TIP3    H170766   4.885   4.601   3.823  0.8163 -0.4764 -2.4605
16425TIP3    H270767   5.022   4.561   3.873 -0.2446 -0.0714  0.9523
16426TIP3   OH270768   4.377   3.398   3.699  0.0466 -0.1277  0.2562
16426TIP3    H170769   4.383   3.363   3.610  1.0680  0.2393  0.1643
16426TIP3    H270770   4.284   3.403   3.717 -0.1548 -0.7026 -0.6029
16427TIP3   OH270771   1.117   2.953   2.185  0.0082  0.1795 -1.5263
16427TIP3    H170772   1.187   2.917   2.240 -0.7549 -0.6002 -1.0442
16427TIP3    H270773   1.119   3.047   2.202 -0.6104 -0.1144  0.3388
16428TIP3   OH270774   4.201   1.845  13.678 -0.2563  0.0768 -0.0769
16428TIP3    H170775   4.112   1.820  13.650 -0.0491 -3.1784  1.8673
16428TIP3    H270776   4.258   1.808  13.610 -0.2553 -0.3058  0.1284
16429TIP3   OH270777   2.792   1.574   4.322  0.1266  0.8072  0.9987
16429TIP3    H170778   2.719   1.606   4.269 -0.2030  0.3325  1.1622
16429TIP3    H270779   2.805   1.642   4.388 -0.5900  0.6001  1.3591
16430TIP3   OH270780   0.452   6.115  16.999 -0.4113  0.6090  0.2481
16430TIP3    H170781   0.482   6.129  16.910  2.5157 -1.7493  0.7651
16430TIP3    H270782   0.375   6.059  16.990  0.2591 -0.1654 -0.7802
16431TIP3   OH270783   1.383   3.657  13.242  0.3676 -0.1424 -0.1509
16431TIP3    H170784   1.312   3.694  13.295 -0.3785 -0.7710 -0.6911
16431TIP3    H270785   1.345   3.577  13.204  1.4328 -0.5870 -0.2877
16432TIP3   OH270786   6.082   5.760  16.947 -0.3127  0.1530 -0.1176
16432TIP3    H170787   6.089   5.681  16.893 -1.8958  0.0251 -0.1738
16432TIP3    H270788   6.173   5.785  16.964  0.2183 -1.1676 -0.8380
16433TIP3   OH270789   4.185   4.443   6.138  0.2943  0.1632 -0.4309
16433TIP3    H170790   4.092   4.466   6.133  0.5086  1.2981  0.6017
16433TIP3    H270791   4.185   4.350   6.163 -0.5744  0.3943  0.4903
16434TIP3   OH270792   1.265   1.336  12.987 -0.1968 -0.3930 -0.3033
16434TIP3    H170793   1.189   1.287  13.019 -0.1363 -1.0455 -1.1633
16434TIP3    H270794   1.227   1.409  12.937 -0.2732  0.0369  0.3731
16435TIP3   OH270795   4.610   1.198   2.367 -0.4918  0.3708 -0.3785
16435TIP3    H170796   4.557   1.278   2.363  0.5993  1.0994 -0.5490
16435TIP3    H270797   4.557   1.132   2.321 -1.7590  0.7791  0.4714
16436TIP3   OH270798   1.797   0.373   0.989  0.6581  0.4929 -0.1985
16436TIP3    H170799   1.743   0.389   1.066 -0.5009  1.0743 -1.1144
16436TIP3    H270800   1.834   0.458   0.967 -0.5069  0.7122 -1.3749
16437TIP3   OH270801   5.697   2.559   3.644  0.1751  0.0940 -0.3466
16437TIP3    H170802   5.755   2.492   3.608 -0.1215 -1.6188  2.2285
16437TIP3    H270803   5.616   2.513   3.664 -0.2435  1.3364  0.9150
16438TIP3   OH270804   4.814   6.549   3.385 -0.8498  0.1000  0.4655
16438TIP3    H170805   4.811   6.609   3.310 -0.5524  0.9175  1.1024
16438TIP3    H270806   4.723   6.536   3.409 -0.8353  1.8856  1.5749
16439TIP3   OH270807   4.141   6.671  15.589 -0.1293 -0.3618 -0.0685
16439TIP3    H170808   4.215   6.698  15.643  1.0303  0.0271 -1.7768
16439TIP3    H270809   4.105   6.595  15.634  0.9217 -0.1656  1.1367
16440TIP3   OH270810   0.078   5.533   4.446 -0.2206 -0.3728  0.1299
16440TIP3    H170811   0.139   5.569   4.383 -1.7100  0.0396 -1.1130
16440TIP3    H270812   0.090   5.586   4.525  0.7794 -0.1110 -0.1974
16441TIP3   OH270813   4.961   0.067  13.268  0.2751  0.3964 -0.5322
16441TIP3    H170814   5.045   0.071  13.223  0.1006  1.4840 -0.7669
16441TIP3    H270815   4.943   0.157  13.295  0.9697 -0.3685  2.7883
16442TIP3   OH270816   4.501   0.158   4.332 -0.0148  0.3938  0.1521
16442TIP3    H170817   4.553   0.081   4.357 -1.0791 -0.8248 -1.2605
16442TIP3    H270818   4.410   0.132   4.348 -0.3584  1.5648  0.1632
16443TIP3   OH270819   0.284   4.320  14.436 -0.0357 -0.2962 -0.2425
16443TIP3    H170820   0.219   4.260  14.472  0.6107 -0.2301  1.0927
16443TIP3    H270821   0.343   4.264  14.386  0.7470 -0.8356  1.2647
16444TIP3   OH270822   5.304   3.059   0.773  0.1024 -0.4335  0.1316
16444TIP3    H170823   5.367   3.005   0.819 -0.1693 -1.1812 -0.3609
16444TIP3    H270824   5.347   3.082   0.691  0.5045  0.7185  0.6653
16445TIP3   OH270825   4.430   6.283  16.483  0.3937  0.3033  0.4329
16445TIP3    H170826   4.443   6.365  16.531 -1.4071 -0.0183  1.4880
16445TIP3    H270827   4.352   6.244  16.522  0.3068 -1.1495 -1.1431
16446TIP3   OH270828   1.952   2.155  15.300  0.1670 -0.3227 -0.1839
16446TIP3    H170829   1.880   2.098  15.329 -0.6512  0.1883 -1.2118
16446TIP3    H270830   1.910   2.237  15.277  0.8792 -0.5070 -2.2513
16447TIP3   OH270831   5.889   0.416   2.193  0.1313  0.2387 -0.2756
16447TIP3    H170832   5.927   0.414   2.105 -0.6545 -0.3400 -0.6056
16447TIP3    H270833   5.914   0.331   2.231  0.8173  0.6492  0.2185
16448TIP3   OH270834   4.473   6.622  10.448 -0.2098 -0.4515  0.3068
16448TIP3    H170835   4.407   6.679  10.487 -1.0300 -0.8561 -0.4678
16448TIP3    H270836   4.462   6.539  10.494  0.5595 -0.1765  0.9957
16449TIP3   OH270837   0.987   3.472  12.079 -0.8419  0.0489 -0.1544
16449TIP3    H170838   1.078   3.452  12.102 -0.2936  1.9307 -0.5379
16449TIP3    H270839   0.974   3.562  12.110 -2.2391  0.1718 -1.0282
16450TIP3   OH270840   5.155   4.831   5.245 -0.2649 -0.3621 -0.4805
16450TIP3    H170841   5.111   4.746   5.238 -0.3172 -0.5030  1.3036
16450TIP3    H270842   5.247   4.811   5.230 -0.3673 -0.6095 -0.7953
16451TIP3   OH270843   1.974   5.124   1.248 -0.2393 -0.1801  0.3519
16451TIP3    H170844   1.963   5.041   1.201  1.7521  0.8375 -2.0240
16451TIP3    H270845   1.951   5.191   1.184  0.4518  1.1916  1.5010
16452TIP3   OH270846   1.063   0.960  15.957  0.2523 -0.1771 -0.4699
16452TIP3    H170847   1.113   0.944  16.037  1.1466 -0.1321 -1.0164
16452TIP3    H270848   1.062   0.876  15.912 -1.6459 -0.6303  0.3469
16453TIP3   OH270849   4.077   0.524  13.379 -0.4464  0.8298 -0.0672
16453TIP3    H170850   4.145   0.457  13.378  0.1208  1.4142 -0.4283
16453TIP3    H270851   4.010   0.489  13.438  0.2685  0.3662  0.4681
16454TIP3   OH270852   0.477   3.974   0.559 -0.0444  0.0485  0.0970
16454TIP3    H170853   0.478   4.013   0.646 -0.4645  1.7941 -0.6663
16454TIP3    H270854   0.385   3.972   0.534  0.0628 -0.5503 -0.2692
16455TIP3   OH270855   1.803   2.388   4.386  0.0567  0.4194 -0.1462
16455TIP3    H170856   1.878   2.377   4.328  0.9391 -0.2951  1.0991
16455TIP3    H270857   1.830   2.457   4.447 -1.1965  1.7808 -1.0994
16456TIP3   OH270858   0.095   6.262   1.058 -0.6862  0.7260  0.2856
16456TIP3    H170859   0.088   6.256   1.153  0.2756 -2.1715  0.2300
16456TIP3    H270860   0.150   6.339   1.043  1.8256 -0.5782  2.2550
16457TIP3   OH270861   2.404   4.266   5.587 -0.3710 -0.0407 -0.4684
16457TIP3    H170862   2.486   4.245   5.544  0.2117 -0.4184  0.8200
16457TIP3    H270863   2.340   4.207   5.547  0.0431  0.0227 -1.2325
16458TIP3   OH270864   3.426   0.021   3.704 -0.0344  0.6895 -0.1108
16458TIP3    H170865   3.487   0.036   3.632  1.1533 -0.5939  0.6004
16458TIP3    H270866   3.356  -0.033   3.666 -0.5137  1.7982 -0.8175
16459TIP3   OH270867   1.664   3.191  16.802 -0.1721 -0.6331  0.2801
16459TIP3    H170868   1.608   3.172  16.877  1.0487 -0.7986  1.1626
16459TIP3    H270869   1.718   3.265  16.830 -1.0713  0.6064 -1.1571
16460TIP3   OH270870   1.013   2.303   5.661 -0.7145 -0.0626 -0.1571
16460TIP3    H170871   1.023   2.306   5.756  1.6299 -0.1319 -0.3760
16460TIP3    H270872   1.085   2.248   5.631 -1.6360 -0.3260 -1.9572
16461TIP3   OH270873   6.520   2.423   4.850 -0.5087  0.1783  0.4817
16461TIP3    H170874   6.545   2.355   4.913 -1.4055  0.1955  0.8689
16461TIP3    H270875   6.505   2.501   4.904 -1.5755  0.1153  0.2864
16462TIP3   OH270876   5.751   0.560  12.790 -0.1819  0.3580  0.1019
16462TIP3    H170877   5.812   0.501  12.835  0.3116  1.0614  0.3634
16462TIP3    H270878   5.700   0.503  12.734  0.4787 -0.2914  0.1495
16463TIP3   OH270879   5.122   1.893   2.070 -0.2626  0.4571 -0.1191
16463TIP3    H170880   5.098   1.897   2.163  0.6789  1.2582  0.1024
16463TIP3    H270881   5.047   1.853   2.027 -0.9323  0.5874  0.9186
16464TIP3   OH270882   4.815   3.555  12.446 -0.0151  0.2218 -0.2131
16464TIP3    H170883   4.905   3.523  12.449 -0.0949 -0.3083 -2.3308
16464TIP3    H270884   4.820   3.637  12.397 -0.2415  2.0055  2.6149
16465TIP3   OH270885   1.833   0.277  11.680 -0.5461  0.1759  0.0618
16465TIP3    H170886   1.885   0.336  11.735 -0.8779  0.5331 -0.0014
16465TIP3    H270887   1.846   0.190  11.718  2.9795 -0.3317 -2.0645
16466TIP3   OH270888   1.288   3.000  11.791  0.5202  0.5211  0.0174
16466TIP3    H170889   1.200   3.018  11.826  0.8649  0.7059  0.8035
16466TIP3    H270890   1.283   3.027  11.700  0.0305  1.3986  0.2997
16467TIP3   OH270891   4.332   6.081   2.673  0.6429 -0.3413  0.2203
16467TIP3    H170892   4.372   6.155   2.628 -2.1143  0.9354 -0.2280
16467TIP3    H270893   4.294   6.118   2.753  0.7920 -1.5974  0.8882
16468TIP3   OH270894   4.029   3.697  14.775  0.4948  0.0294 -0.1833
16468TIP3    H170895   4.030   3.688  14.871 -1.5771 -1.9987 -0.3131
16468TIP3    H270896   4.120   3.686  14.749  0.8121 -1.3114  1.4077
16469TIP3   OH270897   1.045   1.174   4.814  0.0676 -0.2099 -0.3717
16469TIP3    H170898   1.130   1.163   4.771  1.4797  0.3057  2.2056
16469TIP3    H270899   0.989   1.214   4.747  1.4044 -1.8605 -2.5639
16470TIP3   OH270900   1.780   1.003   5.433  0.7106 -0.1430 -0.4633
16470TIP3    H170901   1.826   1.084   5.415 -1.2489  1.1645  0.2125
16470TIP3    H270902   1.688   1.028   5.437  0.0706 -2.3970 -0.2192
16471TIP3   OH270903   5.753   0.647  16.828 -0.1582  0.9854 -0.3369
16471TIP3    H170904   5.735   0.578  16.891  1.7345  0.7224 -0.0539
16471TIP3    H270905   5.668   0.668  16.790 -1.2911  0.9263  2.0610
16472TIP3   OH270906   5.748   0.218  12.455 -0.2657 -0.2302 -0.4344
16472TIP3    H170907   5.711   0.183  12.536 -1.7410  0.9216 -0.5920
16472TIP3    H270908   5.676   0.266  12.414  0.2101 -1.5071 -2.8609
16473TIP3   OH270909   2.080   5.699  13.062  0.0038  0.1328  0.1330
16473TIP3    H170910   1.998   5.746  13.047  0.7208  1.7304  1.1386
16473TIP3    H270911   2.076   5.625  13.002 -2.1188  0.2590  0.0728
16474TIP3   OH270912   2.087   3.883   5.836  0.3968 -0.4341 -0.8496
16474TIP3    H170913   2.014   3.909   5.780  0.4789 -1.3312 -1.3785
16474TIP3    H270914   2.128   3.810   5.790  0.9432 -0.6663 -0.0027
16475TIP3   OH270915   0.413   2.398   1.083  0.4573 -0.4652  0.2724
16475TIP3    H170916   0.493   2.446   1.058 -0.3719  0.5401 -0.5080
16475TIP3    H270917   0.347   2.466   1.094 -0.2947 -1.2972  0.9181
16476TIP3   OH270918   2.616   2.003   6.261 -0.1576 -0.1789 -0.4356
16476TIP3    H170919   2.529   2.042   6.274  0.2507  0.0285  1.7074
16476TIP3    H270920   2.597   1.917   6.223 -1.2821 -0.0064 -0.3058
16477TIP3   OH270921   3.529   3.817   0.674 -0.1926 -0.3355 -0.4252
16477TIP3    H170922   3.495   3.731   0.699 -0.9690  0.2455  0.5083
16477TIP3    H270923   3.455   3.877   0.685  0.2367  0.3974 -1.4339
16478TIP3   OH270924   0.052   4.807   5.044  0.3027  0.2235  0.0387
16478TIP3    H170925   0.098   4.769   5.119 -0.4062  1.3023  1.0319
16478TIP3    H270926  -0.018   4.859   5.083 -1.1022 -0.5505 -1.4327
16479TIP3   OH270927   0.431   2.187   4.575 -0.1928 -0.1071  0.2759
16479TIP3    H170928   0.378   2.230   4.508 -0.9876 -0.6290  0.5594
16479TIP3    H270929   0.474   2.258   4.622 -0.9978  0.3389  0.3302
16480TIP3   OH270930   2.404   2.866  15.925 -0.0517  0.1729  0.0601
16480TIP3    H170931   2.481   2.890  15.978  0.7363 -4.0449  0.9539
16480TIP3    H270932   2.432   2.878  15.835  0.5697  1.6922  0.4331
16481TIP3   OH270933   2.386   3.750  17.162  0.2961  0.3358  0.2418
16481TIP3    H170934   2.424   3.693  17.230  1.4163  1.8178  0.8760
16481TIP3    H270935   2.460   3.801  17.129 -0.6081  1.0635 -0.6838
16482TIP3   OH270936   6.617   1.758   2.004  0.0326 -0.8114 -0.3728
16482TIP3    H170937   6.643   1.780   1.914 -2.8430 -0.8365 -1.2432
16482TIP3    H270938   6.659   1.825   2.058  0.9268 -0.1807 -1.8175
16483TIP3   OH270939   5.287   6.266  15.775  0.4483 -0.1904 -0.5255
16483TIP3    H170940   5.216   6.281  15.838  0.5494 -0.9757 -0.2282
16483TIP3    H270941   5.362   6.240  15.828  0.6145 -0.5693 -0.9405
16484TIP3   OH270942   2.339   3.865   1.024  0.3390 -0.5192 -0.3298
16484TIP3    H170943   2.418   3.880   1.075 -0.6705 -2.0954  1.8108
16484TIP3    H270944   2.367   3.807   0.953  1.6003  1.0179 -1.1028
16485TIP3   OH270945   6.725   6.547   3.894 -0.2635  0.0401 -0.9709
16485TIP3    H170946   6.727   6.519   3.802  2.5414  1.2210 -1.3199
16485TIP3    H270947   6.715   6.642   3.890 -3.0147 -0.1603  0.0612
16486TIP3   OH270948   0.760   5.288   0.460 -0.5264 -0.5854 -0.7223
16486TIP3    H170949   0.737   5.203   0.422  0.5588 -0.8721 -0.7537
16486TIP3    H270950   0.741   5.279   0.553  0.3075 -1.1171 -0.6034
16487TIP3   OH270951   2.572   5.366   1.157  0.3779  0.4436  0.0435
16487TIP3    H170952   2.664   5.341   1.160  0.5877  1.1832 -0.0199
16487TIP3    H270953   2.563   5.431   1.227  0.0275  0.7496 -0.2849
16488TIP3   OH270954   0.853   2.054   0.766  0.6539 -0.4478 -0.7063
16488TIP3    H170955   0.872   2.132   0.714  0.6731 -0.9521 -1.4657
16488TIP3    H270956   0.786   2.082   0.828  2.8531  1.0082  1.1185
16489TIP3   OH270957   6.423   5.171   0.048 -0.1836 -0.1006  0.1020
16489TIP3    H170958   6.460   5.108  -0.013  0.6154  0.0820  0.3909
16489TIP3    H270959   6.356   5.123   0.096 -0.2055 -0.4795 -0.3146
16490TIP3   OH270960   2.367   5.688  12.988 -0.4121 -0.3599 -0.1492
16490TIP3    H170961   2.274   5.670  13.002 -0.2759 -1.2305 -0.3135
16490TIP3    H270962   2.408   5.663  13.071 -0.3238 -0.0213 -0.0937
16491TIP3   OH270963   0.039   6.003  11.548  0.1211  0.3725  0.4886
16491TIP3    H170964   0.011   5.931  11.492  1.1411  1.3218 -1.3109
16491TIP3    H270965  -0.009   5.991  11.629 -1.4360 -1.0178 -0.6118
16492TIP3   OH270966   4.682   5.909   0.778  0.2535 -0.2125  0.6497
16492TIP3    H170967   4.598   5.947   0.804 -0.8059 -2.8153  1.1829
16492TIP3    H270968   4.726   5.890   0.861 -0.0839 -1.9279  0.4566
16493TIP3   OH270969   5.620   6.687   0.535 -0.1217  0.2136  0.4087
16493TIP3    H170970   5.600   6.730   0.618  0.3324 -0.7347  1.0184
16493TIP3    H270971   5.622   6.593   0.556  0.0728 -0.0268 -0.6512
16494TIP3   OH270972   5.951   1.838   1.530 -0.5819  0.1662  0.0593
16494TIP3    H170973   5.857   1.832   1.548 -0.3683 -2.3272  0.5282
16494TIP3    H270974   5.986   1.887   1.605 -1.1078 -1.5067  1.4218
16495TIP3   OH270975   6.195   2.262  13.398  0.2526  0.0696  0.2628
16495TIP3    H170976   6.123   2.307  13.443 -0.0956 -0.9599  0.7345
16495TIP3    H270977   6.164   2.250  13.309 -0.3601 -0.8276  0.5953
16496TIP3   OH270978   2.494   4.729   1.715  0.5295  0.8890  1.1964
16496TIP3    H170979   2.413   4.731   1.665  0.4364  1.1758  1.3561
16496TIP3    H270980   2.497   4.641   1.754  0.5067  0.7347  0.8465
16497TIP3   OH270981   5.344   1.707  15.839  0.5396  0.8134 -0.0343
16497TIP3    H170982   5.378   1.635  15.892  1.0348  1.2631  0.2660
16497TIP3    H270983   5.249   1.692  15.837  0.7159 -0.2629 -0.6132
16498TIP3   OH270984   6.317   3.025   2.184  0.2146  0.0599 -0.6023
16498TIP3    H170985   6.327   3.117   2.158  1.8544  0.0506 -0.1214
16498TIP3    H270986   6.324   2.976   2.102 -0.9035  0.3714 -0.8903
16499TIP3   OH270987   0.932   5.756  12.983 -0.2731 -0.4781  0.3102
16499TIP3    H170988   1.010   5.808  13.002 -1.8591  1.6372  1.1646
16499TIP3    H270989   0.956   5.666  13.006  2.2840 -0.0503 -0.5548
16500TIP3   OH270990   0.735   0.066   5.769  0.0698 -0.3749  0.1059
16500TIP3    H170991   0.750   0.049   5.862  0.0511  1.2817  0.4365
16500TIP3    H270992   0.779  -0.005   5.723 -1.4596 -2.2212  1.4263
16501TIP3   OH270993   3.061   5.787  16.165  0.3641  0.4240 -0.6720
16501TIP3    H170994   2.976   5.795  16.208 -0.3052  0.6100 -2.0166
16501TIP3    H270995   3.124   5.802  16.236 -0.6959 -0.5881  0.5168
16502TIP3   OH270996   1.489   4.390  16.889  0.1283 -0.2169 -0.3590
16502TIP3    H170997   1.584   4.393  16.903 -0.0563 -0.4956  0.9407
16502TIP3    H270998   1.460   4.481  16.900 -0.0512 -0.4696  1.3840
16503TIP3   OH270999   3.277   5.304   4.944  0.1534 -0.0282  0.0016
16503TIP3    H171000   3.183   5.305   4.923  0.2186 -0.6672 -0.3331
16503TIP3    H271001   3.301   5.212   4.939  1.1996  0.3057 -1.6776
16504TIP3   OH271002   2.537   3.334   5.018 -0.0175 -0.3532  0.3854
16504TIP3    H171003   2.501   3.423   5.019  1.2006  0.1586  3.3287
16504TIP3    H271004   2.598   3.333   4.944 -0.8931  0.9129 -0.3521
16505TIP3   OH271005   0.586   0.178   2.107  0.7536 -0.2758 -0.0808
16505TIP3    H171006   0.530   0.190   2.030  2.8037  0.9640 -1.4332
16505TIP3    H271007   0.567   0.089   2.137 -0.4309 -0.6110 -1.7318
16506TIP3   OH271008   5.969   4.339  13.415  0.6076  0.0599 -0.1487
16506TIP3    H171009   5.889   4.379  13.448  1.1288  1.0406 -0.0583
16506TIP3    H271010   6.038   4.373  13.471  1.2451  0.2006 -0.9994
16507TIP3   OH271011   5.080   4.857  16.339  0.7721  0.3157 -0.5228
16507TIP3    H171012   5.153   4.884  16.394  0.0215 -0.7997  1.0626
16507TIP3    H271013   5.026   4.936  16.331  2.0387  1.0885 -1.5560
16508TIP3   OH271014   2.839   1.337   6.598 -0.0645 -0.2431  0.1439
16508TIP3    H171015   2.911   1.279   6.624  1.7089  1.3705 -0.9821
16508TIP3    H271016   2.863   1.422   6.635 -1.1388  0.4345 -0.6815
16509TIP3   OH271017   5.798   2.238   6.012 -0.0637  0.2571 -0.7311
16509TIP3    H171018   5.843   2.154   6.012  0.4820  0.5473 -0.1166
16509TIP3    H271019   5.723   2.224   6.071 -1.4028 -0.5372 -2.5471
16510TIP3   OH271020   1.206   5.078   5.014 -0.4475  0.1715 -0.1991
16510TIP3    H171021   1.266   5.152   5.018  0.6132 -0.6667 -0.2500
16510TIP3    H271022   1.164   5.085   4.929 -0.2866  0.6727 -0.2354
16511TIP3   OH271023   3.261   5.501   1.051  0.2919  0.0481 -0.0704
16511TIP3    H171024   3.294   5.480   0.963 -1.0511  2.9204 -1.3056
16511TIP3    H271025   3.215   5.421   1.078  2.8806 -1.7787 -0.8875
16512TIP3   OH271026   5.812   0.818  12.648  0.6580 -0.5317  0.0103
16512TIP3    H171027   5.800   0.735  12.695  0.9376 -0.5072  0.1282
16512TIP3    H271028   5.763   0.882  12.700  1.0366 -0.4895  0.3160
16513TIP3   OH271029   4.949   0.202   3.795  0.8648  0.0525  1.0869
16513TIP3    H171030   5.007   0.127   3.801 -0.9179 -1.3296  1.4560
16513TIP3    H271031   5.008   0.278   3.795  2.6029 -1.2347  2.9701
16514TIP3   OH271032   3.517   1.208   3.140  0.9545  0.0312 -0.1799
16514TIP3    H171033   3.570   1.160   3.204 -0.4930 -0.0710  0.9561
16514TIP3    H271034   3.493   1.289   3.186  0.2428  0.1415 -0.7467
16515TIP3   OH271035   2.982   0.847  14.100  0.0146  0.1745  0.1132
16515TIP3    H171036   3.016   0.935  14.115 -0.4905  0.2576  0.7729
16515TIP3    H271037   2.905   0.860  14.045  0.2181  0.1074 -0.1866
16516TIP3   OH271038   4.107   5.685   1.583  0.0401  0.0402 -0.3538
16516TIP3    H171039   4.022   5.645   1.601 -0.0253 -0.1124 -0.9800
16516TIP3    H271040   4.092   5.779   1.597 -0.3519  0.0609 -0.8787
16517TIP3   OH271041   6.212   5.082   5.501  0.4887  0.2304  0.2502
16517TIP3    H171042   6.213   5.046   5.589 -0.8944  1.0602  0.6391
16517TIP3    H271043   6.148   5.028   5.453  1.0390 -0.0543 -0.1658
16518TIP3   OH271044   1.421   4.765   4.197  0.1632  0.4284 -0.0639
16518TIP3    H171045   1.449   4.741   4.286 -0.6007 -0.8642 -0.1547
16518TIP3    H271046   1.357   4.835   4.210 -2.4892 -2.0480  0.6412
16519TIP3   OH271047   2.037   1.804   4.017  0.2233  0.0840  0.1157
16519TIP3    H171048   2.041   1.721   4.064 -0.1488  0.5874  1.0503
16519TIP3    H271049   2.033   1.779   3.924 -0.3981 -0.9517  0.4125
16520TIP3   OH271050   5.920   2.850   1.283 -0.1578 -0.5059  0.2064
16520TIP3    H171051   6.009   2.881   1.265  0.1543 -1.1892  0.5571
16520TIP3    H271052   5.931   2.758   1.307 -1.0639 -0.8659 -0.7216
16521TIP3   OH271053   4.305   3.635  12.255  0.1624 -0.3570  0.2473
16521TIP3    H171054   4.222   3.653  12.299  1.0504 -0.2980  1.9552
16521TIP3    H271055   4.307   3.697  12.182 -1.5098 -0.7112 -0.1117
16522TIP3   OH271056   5.483   6.395   5.964  0.2836 -0.0078 -0.4611
16522TIP3    H171057   5.518   6.478   5.933  0.0523  0.0300 -0.6214
16522TIP3    H271058   5.388   6.406   5.962  0.2527  0.9431  2.7915
16523TIP3   OH271059   3.837   5.950  11.137  0.1254 -0.3408 -0.4872
16523TIP3    H171060   3.747   5.983  11.133 -0.5698 -2.1719 -0.8402
16523TIP3    H271061   3.872   5.966  11.050 -0.1917 -0.5030 -0.6461
16524TIP3   OH271062   2.439   2.446   5.059 -0.3982  0.4936  0.7689
16524TIP3    H171063   2.516   2.485   5.017 -0.9921  0.2778 -0.5362
16524TIP3    H271064   2.450   2.352   5.046 -0.9989  0.4758  0.3643
16525TIP3   OH271065   0.125   5.281  12.290  0.2657  0.0506  0.4203
16525TIP3    H171066   0.134   5.227  12.369  0.9693 -0.3778  0.0604
16525TIP3    H271067   0.114   5.217  12.220 -1.8975  0.4814  0.3595
16526TIP3   OH271068   2.157   0.446   5.691  0.1473  0.2400 -0.5085
16526TIP3    H171069   2.078   0.394   5.709 -0.3463  0.3275 -2.3122
16526TIP3    H271070   2.226   0.381   5.679  0.2886  0.1494  0.6838
16527TIP3   OH271071   0.043   4.679  16.138  0.8008 -0.0218  0.3385
16527TIP3    H171072   0.039   4.727  16.221  1.3606  0.6029  0.0142
16527TIP3    H271073   0.064   4.589  16.162  1.0604  0.1806  0.8743
16528TIP3   OH271074   2.271   3.534  14.556 -0.2130 -0.2381 -0.0150
16528TIP3    H171075   2.213   3.503  14.486 -2.5707  1.0493  1.2749
16528TIP3    H271076   2.329   3.596  14.513 -1.1946  0.0437 -0.9740
16529TIP3   OH271077   4.186   0.428  13.987  0.1276 -0.2033 -0.0619
16529TIP3    H171078   4.139   0.430  13.903  0.8218  0.1690 -0.4422
16529TIP3    H271079   4.120   0.401  14.050 -0.5735  0.1647 -0.6224
16530TIP3   OH271080   2.047   0.982  15.237 -0.0796 -0.0497 -0.9428
16530TIP3    H171081   2.037   1.035  15.157  1.9353  0.1042 -1.1282
16530TIP3    H271082   2.091   1.041  15.298 -2.7290  0.2555  0.7654
16531TIP3   OH271083   1.535   3.438   1.352  0.3682  0.2528 -0.0642
16531TIP3    H171084   1.582   3.475   1.277 -0.1970 -1.7208 -1.4471
16531TIP3    H271085   1.543   3.504   1.421  0.2060  2.4856 -2.1245
16532TIP3   OH271086   3.429   5.888  14.821  0.9987 -0.0059  0.3373
16532TIP3    H171087   3.388   5.809  14.787  0.7949 -0.9933  2.7687
16532TIP3    H271088   3.357   5.950  14.831  1.1470  0.4793 -1.4949
16533TIP3   OH271089   0.162   3.321   4.367  0.4624  0.2544  0.5782
16533TIP3    H171090   0.244   3.295   4.408  2.2153  2.3274 -1.4520
16533TIP3    H271091   0.188   3.356   4.281 -2.6924 -0.5061 -0.7633
16534TIP3   OH271092   4.494   3.813   4.233 -0.1173 -0.1310  0.0334
16534TIP3    H171093   4.435   3.863   4.288 -0.8029 -1.3198  0.3993
16534TIP3    H271094   4.559   3.876   4.203 -0.3361  0.7353  1.3667
16535TIP3   OH271095   3.814   2.652  14.363 -0.2741 -0.1061  0.0394
16535TIP3    H171096   3.787   2.713  14.294 -0.2984 -0.8136 -0.5807
16535TIP3    H271097   3.772   2.686  14.442 -0.1281  0.7992 -0.2590
16536TIP3   OH271098   0.682   0.878   1.415 -0.1699  0.2104 -0.5458
16536TIP3    H171099   0.747   0.891   1.347  0.6882  1.8264  0.5666
16536TIP3    H271100   0.722   0.815   1.475 -0.9690 -1.2963 -1.5601
16537TIP3   OH271101   2.132   2.112   2.489 -0.4230  0.1301 -0.3253
16537TIP3    H171102   2.115   2.160   2.571  0.3175  0.4692 -0.3656
16537TIP3    H271103   2.054   2.128   2.436 -0.3351  1.0297 -0.2042
16538TIP3   OH271104   5.204   1.197  15.084  0.8105  0.1898  0.2904
16538TIP3    H171105   5.213   1.262  15.154 -1.1745 -0.4774  1.1987
16538TIP3    H271106   5.242   1.117  15.120  0.1569 -0.0471  0.4613
16539TIP3   OH271107   3.857   2.809  12.608  0.2432 -0.2034  0.2649
16539TIP3    H171108   3.837   2.869  12.680 -0.4378  0.7414 -0.7069
16539TIP3    H271109   3.936   2.763  12.637  0.8796  1.2954  0.9412
16540TIP3   OH271110   2.055   4.319  13.189 -0.0646  0.2191 -0.0513
16540TIP3    H171111   2.045   4.412  13.206  0.3012 -0.1433  2.2551
16540TIP3    H271112   2.042   4.310  13.094 -2.3521  2.2871  0.0357
16541TIP3   OH271113   5.642   0.311  13.951  0.0715 -0.0123 -0.0219
16541TIP3    H171114   5.647   0.292  14.045 -0.6677 -1.7687 -0.3141
16541TIP3    H271115   5.636   0.406  13.946  0.0647  0.0990  1.7105
16542TIP3   OH271116   4.106   6.686   0.940  0.3744  0.0264  0.3209
16542TIP3    H171117   4.157   6.617   0.896  0.4348  0.9665 -1.0965
16542TIP3    H271118   4.144   6.691   1.028  2.2783  0.2277 -0.4866
16543TIP3   OH271119   6.169   3.060  13.273 -0.0507 -0.7189  0.0349
16543TIP3    H171120   6.188   3.054  13.366  0.4020  0.0283 -0.0076
16543TIP3    H271121   6.075   3.080  13.269  0.3366  1.2678  0.3910
16544TIP3   OH271122   2.043   5.532   5.160  0.6358 -0.7023  0.0103
16544TIP3    H171123   1.976   5.464   5.151  2.0028 -1.9463 -1.0712
16544TIP3    H271124   2.125   5.487   5.139  1.6140  1.1941 -0.3207
16545TIP3   OH271125   1.726   4.393  15.798 -0.5321  0.0930 -0.0559
16545TIP3    H171126   1.798   4.398  15.860 -0.6161 -1.0673  0.1337
16545TIP3    H271127   1.697   4.302  15.801 -2.0772  0.5751 -0.0525
16546TIP3   OH271128   1.862   1.988   5.765 -0.1891 -0.0472  0.0076
16546TIP3    H171129   1.817   2.072   5.774 -0.4311 -0.2068  0.2816
16546TIP3    H271130   1.813   1.940   5.698 -0.2340 -0.0929  0.0728
16547TIP3   OH271131   5.242   0.675   1.785  0.2825  0.2295  0.5116
16547TIP3    H171132   5.203   0.762   1.775  1.4026  0.7303  0.4221
16547TIP3    H271133   5.269   0.672   1.876  0.0913 -0.0936  0.5567
16548TIP3   OH271134   4.331   1.360  16.563 -0.0681 -0.1478  0.0773
16548TIP3    H171135   4.308   1.420  16.492  0.4071 -0.1006 -0.0397
16548TIP3    H271136   4.426   1.360  16.565 -0.0783  1.1940  1.8773
16549TIP3   OH271137   6.181   1.785   1.161 -0.6199 -0.4078 -0.0043
16549TIP3    H171138   6.213   1.875   1.169 -1.1733 -0.2667  0.6605
16549TIP3    H271139   6.258   1.735   1.131  0.3865 -0.1472  2.0520
16550TIP3   OH271140   4.808   6.095  11.237  0.4028 -0.5251  0.4490
16550TIP3    H171141   4.804   6.184  11.271 -2.2922 -1.1384  1.9305
16550TIP3    H271142   4.801   6.104  11.142 -0.3326  0.8438  0.6215
16551TIP3   OH271143   2.719   6.177   1.065 -0.4421 -0.1541  0.1358
16551TIP3    H171144   2.674   6.253   1.028 -0.7202  0.5045  1.7584
16551TIP3    H271145   2.649   6.114   1.082 -0.3695 -0.2818 -0.0335
16552TIP3   OH271146   2.442   6.456   3.647 -0.6849 -0.3337 -0.2919
16552TIP3    H171147   2.357   6.495   3.626 -0.3987  0.9475  0.8268
16552TIP3    H271148   2.479   6.514   3.713  0.3612 -1.7994  0.4332
16553TIP3   OH271149   2.757   2.657   5.779 -0.2726  0.0224  0.1282
16553TIP3    H171150   2.835   2.620   5.821 -0.7894 -0.3459  0.7653
16553TIP3    H271151   2.762   2.628   5.688 -0.2405 -0.9166  0.4269
16554TIP3   OH271152   5.585   2.209  15.085 -0.0424  0.0836  0.4825
16554TIP3    H171153   5.614   2.252  15.165  0.8996 -0.7613  0.6042
16554TIP3    H271154   5.589   2.115  15.105  0.7761 -0.1534 -0.7474
16555TIP3   OH271155   6.555   2.288  13.327  0.3423  0.7498  0.0290
16555TIP3    H171156   6.578   2.272  13.419 -0.7968 -2.8122 -0.2570
16555TIP3    H271157   6.632   2.260  13.277 -0.4143 -0.7765 -0.2961
16556TIP3   OH271158   0.046   1.111   1.866 -0.4762  0.2565 -0.5765
16556TIP3    H171159  -0.043   1.080   1.875 -0.6382  0.8800 -0.0205
16556TIP3    H271160   0.093   1.038   1.826 -0.8612 -0.6608  0.6423
16557TIP3   OH271161   0.847   5.853  15.466 -0.0088 -0.3764  0.2400
16557TIP3    H171162   0.914   5.799  15.507 -1.1885 -1.5390  0.6588
16557TIP3    H271163   0.848   5.827  15.374  0.5486  0.0677  0.1163
16558TIP3   OH271164   5.385   5.733   3.551 -0.9366 -0.3676  0.0925
16558TIP3    H171165   5.390   5.794   3.625  1.1112  0.2218 -0.4881
16558TIP3    H271166   5.374   5.789   3.475  1.2416 -0.6745 -0.4791
16559TIP3   OH271167   1.376   2.418  11.728  0.1310 -0.0293 -0.3589
16559TIP3    H171168   1.404   2.505  11.700 -1.6496  0.5605 -0.3814
16559TIP3    H271169   1.350   2.374  11.647  1.0009 -0.5838 -0.3441
16560TIP3   OH271170   3.966   0.669  16.193 -0.1029  0.1564 -0.4027
16560TIP3    H171171   4.024   0.745  16.198  1.4078 -1.1121  2.1596
16560TIP3    H271172   4.011   0.607  16.137  0.7961 -0.6248  1.1696
16561TIP3   OH271173   3.914   0.092  11.413  0.0958  0.0019 -0.5401
16561TIP3    H171174   3.992   0.037  11.422 -0.3334 -0.9530 -2.3300
16561TIP3    H271175   3.840   0.031  11.421 -0.4059  0.4752 -1.4919
16562TIP3   OH271176   5.116   6.025   5.697  0.5346  0.2577 -0.7115
16562TIP3    H171177   5.173   5.987   5.765  1.4628  0.6410 -1.2619
16562TIP3    H271178   5.058   6.084   5.744  0.9533  0.2672 -0.1979
16563TIP3   OH271179   2.932   4.945   1.708 -0.1268  0.8401  0.5140
16563TIP3    H171180   2.865   4.888   1.671  1.1580  0.3758 -1.1627
16563TIP3    H271181   2.886   5.027   1.727 -1.7994 -0.4191  2.1460
16564TIP3   OH271182   2.746   3.233  15.084 -0.0795 -0.4867 -0.1552
16564TIP3    H171183   2.678   3.298  15.100  1.9003  1.0315  2.4896
16564TIP3    H271184   2.703   3.166  15.030 -3.0355  1.4500 -0.3271
16565TIP3   OH271185   4.293   4.413   3.836 -0.4117 -0.6430  0.0679
16565TIP3    H171186   4.280   4.342   3.774  0.7731 -1.0526  0.2822
16565TIP3    H271187   4.237   4.484   3.804 -0.1413 -1.0051 -1.2094
16566TIP3   OH271188   5.832   5.559   5.493  0.1084 -0.7814 -0.1858
16566TIP3    H171189   5.900   5.493   5.497 -0.5994 -1.4878  0.4035
16566TIP3    H271190   5.759   5.521   5.542 -0.3044  0.4259  0.1560
16567TIP3   OH271191   2.451   2.581  14.276 -0.3129  0.2131 -0.8850
16567TIP3    H171192   2.438   2.650  14.341 -1.7714  0.4309 -1.3963
16567TIP3    H271193   2.535   2.602  14.235  1.0175 -0.3743  1.4586
16568TIP3   OH271194   3.748   4.985  14.828  0.0172 -0.5873 -0.6871
16568TIP3    H171195   3.810   5.032  14.772 -1.0592  1.4764 -0.1848
16568TIP3    H271196   3.803   4.928  14.882  1.4526  0.8759 -0.5753
16569TIP3   OH271197   3.771   1.430  13.381  0.3498  0.5745  0.0726
16569TIP3    H171198   3.849   1.424  13.435  0.4353 -0.7735 -0.1645
16569TIP3    H271199   3.707   1.477  13.435  0.3639 -0.9416  1.4472
16570TIP3   OH271200   1.450   3.310   2.459  0.6460  0.0720  0.3442
16570TIP3    H171201   1.398   3.362   2.398 -0.0761  1.0565  1.7689
16570TIP3    H271202   1.431   3.347   2.545  1.1303 -1.7176  1.2565
16571TIP3   OH271203   2.123   1.349   3.454  0.1008 -0.7231  0.8212
16571TIP3    H171204   2.141   1.345   3.360  0.6468 -0.0021  0.8927
16571TIP3    H271205   2.077   1.267   3.473 -0.1137 -0.8198 -0.0958
16572TIP3   OH271206   1.798   1.732  15.488  0.5379  0.6751  0.0466
16572TIP3    H171207   1.788   1.739  15.583 -0.0569 -0.5891  0.0874
16572TIP3    H271208   1.886   1.695  15.477 -0.5930 -2.2301  0.2543
16573TIP3   OH271209   0.923   1.355   0.488 -0.2228 -0.8016 -0.6334
16573TIP3    H171210   0.996   1.311   0.445 -0.6906 -0.6725 -1.5825
16573TIP3    H271211   0.851   1.293   0.483 -1.0053  0.2116 -2.3573
16574TIP3   OH271212   1.425   2.455  16.074  0.1684  0.1760 -0.3098
16574TIP3    H171213   1.330   2.447  16.086  0.2760 -1.4896 -0.3787
16574TIP3    H271214   1.459   2.471  16.162 -0.0555 -0.7423 -0.0430
16575TIP3   OH271215   0.841   1.376  15.020  0.0622  0.7554 -0.3863
16575TIP3    H171216   0.920   1.323  15.008  0.5428  1.2160  0.6566
16575TIP3    H271217   0.805   1.385  14.932  0.9763  0.2277 -0.8267
16576TIP3   OH271218   5.762   1.259  13.221  0.2288  0.6554  0.5121
16576TIP3    H171219   5.734   1.310  13.145 -0.1328  0.4164  0.4823
16576TIP3    H271220   5.845   1.219  13.195  0.4345  1.1031  0.4791
16577TIP3   OH271221   6.001   2.103   6.533  0.3886  0.4279  0.3267
16577TIP3    H171222   5.990   2.009   6.539  1.1936  0.3875  1.2172
16577TIP3    H271223   6.085   2.116   6.489 -0.4800  0.7385 -1.2821
16578TIP3   OH271224   0.535   5.606  11.968  0.7461 -0.4512 -0.2084
16578TIP3    H171225   0.491   5.618  11.884  0.0339 -1.8532 -0.0470
16578TIP3    H271226   0.477   5.547  12.017  1.7665 -0.6273  0.7997
16579TIP3   OH271227   4.989   4.775  11.122 -0.0833 -0.1328  0.1953
16579TIP3    H171228   4.963   4.686  11.097 -4.2881  0.6232  1.3586
16579TIP3    H271229   5.027   4.766  11.209 -0.4130 -0.8550  0.2697
16580TIP3   OH271230   6.319   5.893  17.033 -0.7186  0.2979  0.6952
16580TIP3    H171231   6.385   5.951  16.995 -2.7950  2.2588 -0.0497
16580TIP3    H271232   6.364   5.850  17.106  1.6079  0.9456 -0.3182
16581TIP3   OH271233   5.106   3.835  10.790  0.4947 -0.3143 -0.2025
16581TIP3    H171234   5.074   3.917  10.828 -2.3883 -1.4732 -0.0153
16581TIP3    H271235   5.074   3.836  10.700  3.4781  0.3166 -1.3502
16582TIP3   OH271236   5.569   2.935  15.896 -0.3676 -0.2894 -0.0305
16582TIP3    H171237   5.563   2.841  15.879  3.5378 -0.3582 -1.3381
16582TIP3    H271238   5.596   2.973  15.813  1.8552  1.5157  1.4685
16583TIP3   OH271239   0.505   1.506  14.137  0.2841  0.3695 -0.2249
16583TIP3    H171240   0.562   1.567  14.184  1.7511 -0.1538 -1.2846
16583TIP3    H271241   0.433   1.561  14.105 -0.1142  0.9414  1.5781
16584TIP3   OH271242   0.536   4.897  10.633  0.5601  0.0554 -0.6675
16584TIP3    H171243   0.531   4.976  10.579 -2.5691 -1.3164 -2.5552
16584TIP3    H271244   0.496   4.922  10.716  0.7418  0.8083 -0.8066
16585TIP3   OH271245   3.893   1.719   0.086 -0.5599 -0.6374  0.1788
16585TIP3    H171246   3.904   1.692  -0.005  0.3042  1.0806 -0.2583
16585TIP3    H271247   3.841   1.800   0.081 -0.3500 -0.4339  1.1892
16586TIP3   OH271248   5.564   6.774  11.260 -0.0223 -0.1050 -0.5868
16586TIP3    H171249   5.541   6.747  11.349  1.0933  0.6567 -0.0606
16586TIP3    H271250   5.640   6.720  11.237  0.4557  0.5777 -0.6080
16587TIP3   OH271251   1.246   3.862   3.587 -0.1785  0.0463 -0.0235
16587TIP3    H171252   1.188   3.861   3.663 -2.2341 -0.4801 -1.5569
16587TIP3    H271253   1.271   3.954   3.577  1.8420 -0.1785  2.5318
16588TIP3   OH271254   0.335   0.769  13.840 -0.4081 -0.3807  0.1274
16588TIP3    H171255   0.307   0.689  13.796  0.7636 -0.3952 -0.6188
16588TIP3    H271256   0.411   0.798  13.790 -0.1625  0.6039  1.0591
16589TIP3   OH271257   5.976   2.122  14.099  0.2752 -0.4485 -0.4871
16589TIP3    H171258   5.991   2.119  14.004  0.2038  1.3922 -0.5690
16589TIP3    H271259   5.980   2.215  14.121  2.8643 -1.0407  1.7650
16590TIP3   OH271260   2.067   5.111   1.757 -0.3311 -0.0920 -0.3685
16590TIP3    H171261   1.984   5.080   1.792 -0.1798 -0.5973 -0.4619
16590TIP3    H271262   2.052   5.116   1.662 -0.6498  1.0060 -0.2764
16591TIP3   OH271263   5.986   2.570   1.320 -0.5064 -0.2003 -0.2891
16591TIP3    H171264   5.973   2.482   1.354  1.6462 -0.6187 -0.4711
16591TIP3    H271265   5.968   2.564   1.226 -1.1246 -0.2557 -0.1703
16592TIP3   OH271266   1.473   1.723  14.438 -0.5229  0.1058  0.3400
16592TIP3    H171267   1.543   1.788  14.443 -0.2339 -0.2819  1.4716
16592TIP3    H271268   1.504   1.650  14.493 -2.4209  0.5031  1.9708
16593TIP3   OH271269   3.560   2.846  14.900 -0.0403 -0.5012 -0.1735
16593TIP3    H171270   3.494   2.780  14.921 -0.2191 -0.3836 -0.3632
16593TIP3    H271271   3.516   2.906  14.840 -0.2896  0.5614  1.0489
16594TIP3   OH271272   5.381   2.570  13.846 -0.9334 -0.3158 -0.2562
16594TIP3    H171273   5.409   2.607  13.763 -1.5823 -0.7483 -0.6731
16594TIP3    H271274   5.387   2.642  13.908 -2.5068  0.5800 -1.1261
16595TIP3   OH271275   0.397   0.947  12.352  0.1276  0.4096  0.3129
16595TIP3    H171276   0.421   0.914  12.438  0.4660  0.3796  0.2080
16595TIP3    H271277   0.429   1.038  12.351 -0.7546  0.7288  0.5825
16596TIP3   OH271278   3.246   2.514   0.023 -0.3668  0.1660  0.1071
16596TIP3    H171279   3.264   2.541   0.113  0.3177 -0.2501  0.1008
16596TIP3    H271280   3.178   2.573  -0.007 -1.3508 -0.3528  1.2565
16597TIP3   OH271281   6.685   3.788  12.429 -0.3369 -0.3488 -0.2134
16597TIP3    H171282   6.605   3.775  12.378 -0.1552 -1.5518 -0.2188
16597TIP3    H271283   6.685   3.880  12.453 -1.8515 -0.4033 -0.0082
16598TIP3   OH271284   4.370   6.090  12.542 -0.0351  0.1248 -1.0031
16598TIP3    H171285   4.325   6.119  12.621  0.5038 -0.0539 -0.6282
16598TIP3    H271286   4.304   6.041  12.493 -0.0786 -0.6423 -0.1715
16599TIP3   OH271287   0.500   6.363   5.678 -0.4728 -0.2735 -0.4376
16599TIP3    H171288   0.549   6.317   5.610 -0.9384  0.0710 -1.0099
16599TIP3    H271289   0.421   6.393   5.634  0.4054  2.1848 -0.4222
16600TIP3   OH271290   1.060   3.795   6.560  0.5112  0.1712  0.3234
16600TIP3    H171291   1.037   3.704   6.546 -0.3640  0.2896  0.9391
16600TIP3    H271292   0.994   3.844   6.511 -0.9746  0.5307  2.6200
16601TIP3   OH271293   5.582   5.431   5.421 -0.0375  0.5384  0.0466
16601TIP3    H171294   5.530   5.475   5.488  0.9488  0.0995  1.1424
16601TIP3    H271295   5.631   5.364   5.470  1.0965  0.5633 -1.0282
16602TIP3   OH271296   6.272   2.577   5.852 -0.0838 -0.1247  0.4218
16602TIP3    H171297   6.363   2.549   5.844 -0.4726 -0.6057 -2.6460
16602TIP3    H271298   6.234   2.516   5.915  1.3287 -0.8391  0.6182
16603TIP3   OH271299   5.675   2.666  11.905  0.2483 -0.3017 -0.7725
16603TIP3    H171300   5.592   2.621  11.919 -0.6143  0.8470 -2.0724
16603TIP3    H271301   5.652   2.744  11.854  1.8447  1.0938  0.5941
16604TIP3   OH271302   4.151   3.372   5.467 -0.3968  0.3281  0.2609
16604TIP3    H171303   4.157   3.467   5.453  0.5656  0.4811  1.6719
16604TIP3    H271304   4.147   3.336   5.378  0.4717  1.6050 -0.3231
16605TIP3   OH271305   6.138   6.142   1.797  0.5534  0.3548 -0.0758
16605TIP3    H171306   6.134   6.228   1.838  2.2748  1.0711 -1.3653
16605TIP3    H271307   6.232   6.122   1.793  0.1596 -1.8281  0.6931
16606TIP3   OH271308   6.709   6.089  14.650 -0.6865 -0.0658  0.0867
16606TIP3    H171309   6.801   6.099  14.627 -1.2142  1.5678 -1.3932
16606TIP3    H271310   6.678   6.018  14.595 -0.3927 -0.4425  0.4000
16607TIP3   OH271311   4.730   3.745   3.997  0.0381 -0.1453 -0.1697
16607TIP3    H171312   4.639   3.736   3.968  0.1079 -0.2250 -0.3678
16607TIP3    H271313   4.766   3.813   3.940 -0.2783  0.8658  0.8300
16608TIP3   OH271314   5.069   2.818  13.231 -0.1587  0.1983  0.0438
16608TIP3    H171315   5.025   2.753  13.286 -1.0641  0.4865 -0.3363
16608TIP3    H271316   5.076   2.896  13.286 -1.5403  0.6592 -0.4058
16609TIP3   OH271317   4.511   0.906   6.327  1.0087 -0.3205  0.5144
16609TIP3    H171318   4.471   0.828   6.364 -2.3217  0.4222 -1.3387
16609TIP3    H271319   4.546   0.876   6.242 -0.9828  0.3207 -0.5620
16610TIP3   OH271320   5.281   6.158  14.667  0.5919 -0.7133 -0.2643
16610TIP3    H171321   5.218   6.220  14.702  0.5038  0.3213 -2.2059
16610TIP3    H271322   5.290   6.092  14.735  1.4856  1.9523  2.2763
16611TIP3   OH271323   6.474   5.658  15.639 -0.6322 -0.5171  0.2694
16611TIP3    H171324   6.537   5.657  15.566  0.4580 -1.6385  1.2076
16611TIP3    H271325   6.449   5.750  15.647 -0.7694 -0.3767 -1.5127
16612TIP3   OH271326   4.956   5.164   4.352  0.8307 -0.5496  0.3522
16612TIP3    H171327   4.919   5.250   4.372  2.2716  0.1008  0.2753
16612TIP3    H271328   4.980   5.170   4.259  0.8759 -1.0604  0.3298
16613TIP3   OH271329   1.962   3.512  12.187 -0.1976 -0.1139  0.1396
16613TIP3    H171330   2.046   3.503  12.233 -0.1458 -1.1992 -0.1495
16613TIP3    H271331   1.982   3.569  12.112  0.5145 -1.1135 -0.4532
16614TIP3   OH271332   2.018   0.879   5.016 -0.4763 -0.1757  0.1565
16614TIP3    H171333   1.930   0.881   4.977 -0.7924 -1.0277  0.8132
16614TIP3    H271334   2.077   0.874   4.940 -1.0959 -1.8739 -0.2475
16615TIP3   OH271335   5.086   1.921  12.719  0.5358 -0.5020 -0.3853
16615TIP3    H171336   5.106   2.013  12.736 -4.1436  0.2307  1.9924
16615TIP3    H271337   5.144   1.872  12.778 -0.4252  1.1822  2.0327
16616TIP3   OH271338   0.807   1.629   5.466  0.0370  0.1482 -0.2291
16616TIP3    H171339   0.749   1.589   5.402 -0.6356  0.2284  0.3235
16616TIP3    H271340   0.830   1.559   5.527 -0.8220  0.5006  0.5100
16617TIP3   OH271341   2.283   2.028   0.078 -0.0492  0.5569 -0.0919
16617TIP3    H171342   2.317   1.940   0.063  0.6048  0.9047 -0.6888
16617TIP3    H271343   2.321   2.081   0.008 -1.1590  1.1343 -0.2810
16618TIP3   OH271344   6.614   2.968   5.481 -0.1248 -0.1734 -0.5105
16618TIP3    H171345   6.657   3.027   5.419  2.3299 -0.0595  1.2490
16618TIP3    H271346   6.639   2.880   5.453  0.3662 -0.1532 -0.1426
16619TIP3   OH271347   1.205   4.963   4.260  0.5152  0.0782  0.5093
16619TIP3    H171348   1.215   5.034   4.324 -0.0935  1.3005 -0.7343
16619TIP3    H271349   1.115   4.971   4.229  0.9570 -0.1832 -0.8745
16620TIP3   OH271350   1.395   6.686   4.869  0.4205 -0.2026  0.3618
16620TIP3    H171351   1.456   6.760   4.864 -0.7334  0.8263  1.1735
16620TIP3    H271352   1.317   6.717   4.824 -0.1987 -0.7915  1.0245
16621TIP3   OH271353   1.439   6.634  16.532  0.1519  0.8664  0.2864
16621TIP3    H171354   1.437   6.698  16.603  1.2666  1.1685  0.0524
16621TIP3    H271355   1.525   6.592  16.540 -0.2534 -0.0546 -0.0495
16622TIP3   OH271356   4.540   6.232   3.645  0.4929 -0.4134  0.2386
16622TIP3    H171357   4.453   6.192   3.643  0.2467  0.1576 -1.0830
16622TIP3    H271358   4.600   6.158   3.655 -0.0440 -0.9941 -0.7044
16623TIP3   OH271359   3.126   2.056   4.333  0.1421 -0.4767  0.2663
16623TIP3    H171360   3.116   2.073   4.427 -1.7234 -1.0497  0.1867
16623TIP3    H271361   3.134   2.143   4.294 -3.7420  0.0512  0.4828
16624TIP3   OH271362   5.276   2.883  16.601  0.0175  0.1789  0.3922
16624TIP3    H171363   5.254   2.969  16.566 -2.3491 -1.0618 -1.3695
16624TIP3    H271364   5.335   2.845  16.535  0.4357  0.1754  0.7717
16625TIP3   OH271365   4.615   3.053  15.076 -0.0713  0.1262  0.8021
16625TIP3    H171366   4.638   3.094  14.993 -0.3927  0.1653  0.7309
16625TIP3    H271367   4.662   3.104  15.142  0.2966  0.0074  0.6355
16626TIP3   OH271368   1.318   3.498   2.310  0.4247 -0.4731 -0.0532
16626TIP3    H171369   1.302   3.576   2.363 -0.4921 -0.3073 -0.5583
16626TIP3    H271370   1.410   3.505   2.284 -0.0824  1.2968 -1.4476
16627TIP3   OH271371   6.240   1.117  16.817  0.1560  0.2492  0.3358
16627TIP3    H171372   6.310   1.181  16.829  2.0119 -1.8764  1.1956
16627TIP3    H271373   6.171   1.145  16.877  0.8280  1.5919  0.4924
16628TIP3   OH271374   0.651   4.901  11.531 -0.5307 -0.5537 -0.2396
16628TIP3    H171375   0.603   4.934  11.455 -0.8275  0.0510  0.2092
16628TIP3    H271376   0.674   4.811  11.508 -0.1410 -0.1982 -1.2690
16629TIP3   OH271377   3.789   3.339  13.181 -0.7180 -0.4625  0.4599
16629TIP3    H171378   3.698   3.367  13.192 -1.0841 -0.7117 -1.6095
16629TIP3    H271379   3.787   3.244  13.193 -0.9965 -0.6453 -0.8953
16630TIP3   OH271380   2.250   2.354   0.239  0.4642 -0.3905 -0.0520
16630TIP3    H171381   2.175   2.325   0.188  0.4185 -2.9722  1.4020
16630TIP3    H271382   2.306   2.400   0.175 -1.5050  0.0981 -1.4900
16631TIP3   OH271383   3.092   1.503  13.605 -0.1779  0.3519 -0.0258
16631TIP3    H171384   3.047   1.511  13.521  0.6021 -0.9863 -0.5832
16631TIP3    H271385   3.029   1.459  13.662  0.5338 -1.8846 -0.9175
16632TIP3   OH271386   6.556   3.645  10.879 -0.4478 -0.0555  0.5431
16632TIP3    H171387   6.628   3.636  10.941  0.8735 -3.3524 -1.3507
16632TIP3    H271388   6.562   3.736  10.849  0.0727  1.0312  3.7273
16633TIP3   OH271389   6.345   3.361  11.481 -0.0176 -0.4246 -0.4897
16633TIP3    H171390   6.371   3.270  11.495  0.1687 -0.3093 -0.0970
16633TIP3    H271391   6.260   3.368  11.524  0.9495  0.1639  1.3932
16634TIP3   OH271392   3.765   0.519   4.137  0.1832 -0.0985  0.2856
16634TIP3    H171393   3.693   0.491   4.080 -0.5891 -0.5957  1.4782
16634TIP3    H271394   3.834   0.455   4.121  0.2307  0.1731 -0.6081
16635TIP3   OH271395   3.353   4.031  13.056  0.2640 -0.0339 -0.1476
16635TIP3    H171396   3.411   3.955  13.059  0.4839  0.1072 -0.7878
16635TIP3    H271397   3.266   3.994  13.043  0.4127 -0.1662 -0.8054
16636TIP3   OH271398   2.488   3.799   0.138 -0.5333 -0.2708 -0.1698
16636TIP3    H171399   2.542   3.834   0.067  0.0138 -1.9471 -0.5973
16636TIP3    H271400   2.547   3.795   0.214 -0.5978 -0.2602 -0.1184
16637TIP3   OH271401   5.530   4.338  16.373 -0.1152  0.0039 -0.2420
16637TIP3    H171402   5.482   4.346  16.291 -0.9236 -1.4287  0.0790
16637TIP3    H271403   5.569   4.251  16.369  0.7764  0.3617  0.4076
16638TIP3   OH271404   0.205   1.756  11.879 -0.0913  0.0729  0.1253
16638TIP3    H171405   0.135   1.808  11.840  0.1746 -0.6100 -1.2978
16638TIP3    H271406   0.161   1.677  11.912  0.1935 -1.1508 -2.2724
16639TIP3   OH271407   1.304   3.002  15.527  0.4188  0.1992 -0.2477
16639TIP3    H171408   1.219   2.960  15.540  0.1263 -0.3422 -3.6170
16639TIP3    H271409   1.284   3.095  15.522 -0.0362  0.0386 -1.4743
16640TIP3   OH271410   1.973   1.491  15.836  0.4110  1.0170  0.0660
16640TIP3    H171411   1.922   1.549  15.780 -0.6201  0.7806  0.7588
16640TIP3    H271412   2.064   1.514  15.816  0.0483  1.3954 -1.2084
16641TIP3   OH271413   1.380   1.724   4.296 -0.0722  1.3757 -0.5625
16641TIP3    H171414   1.355   1.814   4.272 -1.5809  0.5007 -2.3874
16641TIP3    H271415   1.345   1.670   4.225  0.8110 -0.6675  0.5328
16642TIP3   OH271416   3.530   3.796   1.245 -0.1238  0.0602  0.1383
16642TIP3    H171417   3.577   3.716   1.267  0.7536  0.3685 -0.6038
16642TIP3    H271418   3.523   3.843   1.328 -0.0143 -0.4498  0.4383
16643TIP3   OH271419   4.191   0.271   4.671  0.6610  0.6816  0.2661
16643TIP3    H171420   4.245   0.350   4.677 -0.4588  1.4675  0.1657
16643TIP3    H271421   4.188   0.237   4.760 -0.1139  1.6160  0.6100
16644TIP3   OH271422   2.733   2.994   3.751 -0.1063  0.5893  0.6489
16644TIP3    H171423   2.715   2.910   3.794  1.6786  0.1853  0.6648
16644TIP3    H271424   2.747   3.055   3.823 -1.0208  0.8177  0.6362
16645TIP3   OH271425   6.417   5.521   4.547 -0.1236  0.6343 -0.1287
16645TIP3    H171426   6.410   5.615   4.559 -0.1799  0.5130  0.8506
16645TIP3    H271427   6.506   5.508   4.513 -0.3491  1.0903 -0.9056
16646TIP3   OH271428   1.191   1.887  16.670  0.3886 -0.1811  0.0329
16646TIP3    H171429   1.223   1.897  16.580  0.4832  0.3992  0.1266
16646TIP3    H271430   1.256   1.831  16.712  0.8127  0.2641 -0.0235
16647TIP3   OH271431   0.811   2.646   0.447  0.6363  0.6545  0.4140
16647TIP3    H171432   0.808   2.729   0.399  1.6226 -0.2882 -1.3427
16647TIP3    H271433   0.897   2.647   0.489  0.3671  0.8226  0.9634
16648TIP3   OH271434   4.831   3.345   3.852 -0.4243 -0.0319  1.0117
16648TIP3    H171435   4.851   3.370   3.943 -1.2952  2.2769  0.5903
16648TIP3    H271436   4.749   3.389   3.832 -1.0024 -1.7116 -0.4411
16649TIP3   OH271437   0.250   5.472  14.029  0.1998  0.0494  0.7738
16649TIP3    H171438   0.300   5.399  13.993 -0.7465 -0.5042  0.5497
16649TIP3    H271439   0.310   5.546  14.028  1.3727 -0.8802  1.5916
16650TIP3   OH271440   3.846   3.605   5.085  0.3112 -0.0114 -0.1618
16650TIP3    H171441   3.864   3.534   5.023  0.8687 -1.4306  1.5762
16650TIP3    H271442   3.758   3.585   5.118 -0.2957  1.1618 -1.0212
16651TIP3   OH271443   2.508   4.827  10.528  0.7005 -0.0097  0.0778
16651TIP3    H171444   2.534   4.799  10.441  2.2199 -1.7410  1.0516
16651TIP3    H271445   2.567   4.900  10.549  0.0489  0.6859 -0.5073
16652TIP3   OH271446   0.446   5.297   1.554  0.1166  0.2491 -0.1714
16652TIP3    H171447   0.499   5.345   1.490 -1.5934  0.5976 -1.3669
16652TIP3    H271448   0.463   5.205   1.535  0.5564  0.3554 -0.3046
16653TIP3   OH271449   4.001   4.283  15.768 -0.4771  0.0674  0.4868
16653TIP3    H171450   4.079   4.304  15.716 -0.7034  0.6269  0.3759
16653TIP3    H271451   3.934   4.264  15.702 -0.4742 -0.2835  0.5836
16654TIP3   OH271452   5.608   3.690   0.634 -0.2214 -0.2396 -0.0186
16654TIP3    H171453   5.674   3.736   0.581  1.3512 -1.6836  0.6473
16654TIP3    H271454   5.559   3.761   0.677 -1.3530  0.9640 -3.1240
16655TIP3   OH271455   5.473   3.451   0.119  0.1004 -0.2965  0.2610
16655TIP3    H171456   5.387   3.468   0.082 -0.3042 -0.0095  1.3208
16655TIP3    H271457   5.492   3.360   0.095 -0.0160 -0.0272 -0.8950
16656TIP3   OH271458   3.372   0.167   0.879  0.2261  0.2747 -0.2466
16656TIP3    H171459   3.310   0.159   0.806  1.5598 -0.0717 -1.3525
16656TIP3    H271460   3.437   0.230   0.849  0.9480 -0.0871  0.5278
16657TIP3   OH271461   0.203   4.764   6.011 -0.0489 -0.4555  0.2092
16657TIP3    H171462   0.210   4.834   6.076 -0.5190 -0.4616  0.2641
16657TIP3    H271463   0.281   4.711   6.026  0.1404 -0.1348  0.3874
16658TIP3   OH271464   6.260   0.023  12.674 -0.5765  0.3573 -0.0969
16658TIP3    H171465   6.331  -0.041  12.673 -1.2825 -0.4409 -0.8222
16658TIP3    H271466   6.241   0.038  12.581 -0.3562  1.6863  0.0736
16659TIP3   OH271467   1.866   2.627  11.285  0.4326 -0.1364  0.0357
16659TIP3    H171468   1.854   2.533  11.276 -0.0464  0.1185 -2.1784
16659TIP3    H271469   1.934   2.637  11.352 -1.1988 -1.9667  2.0484
16660TIP3   OH271470   5.069   0.874   0.752  0.5908 -0.0951 -0.7195
16660TIP3    H171471   5.017   0.955   0.756  0.6843  0.0193 -1.7658
16660TIP3    H271472   5.131   0.882   0.825 -1.3321 -0.5705  1.0035
16661TIP3   OH271473   4.998   1.972   2.661  0.1520  0.2707  0.2861
16661TIP3    H171474   4.910   2.002   2.640  0.0573  0.4232  0.8993
16661TIP3    H271475   5.053   2.050   2.653 -0.2290  0.8199  2.7130
16662TIP3   OH271476   6.198   3.814  10.652 -0.1194 -0.8346  0.2561
16662TIP3    H171477   6.106   3.836  10.664  0.0228  0.0347 -0.2342
16662TIP3    H271478   6.198   3.720  10.635 -0.5978 -1.5977  3.9983
16663TIP3   OH271479   4.731   4.923  14.093 -0.6157 -0.1158 -0.3013
16663TIP3    H171480   4.690   4.947  14.176 -0.4159  0.7899 -0.4580
16663TIP3    H271481   4.667   4.866  14.050  0.0369 -2.0826  1.2562
16664TIP3   OH271482   5.395   2.723   1.098 -0.0111  0.3732 -0.0587
16664TIP3    H171483   5.393   2.628   1.104  2.6380 -0.0777 -4.2127
16664TIP3    H271484   5.307   2.747   1.067 -0.5787 -0.7415  0.6869
16665TIP3   OH271485   5.811   1.244  14.364 -0.0768  0.1541  0.2420
16665TIP3    H171486   5.753   1.222  14.436  0.8763  1.2295  1.3791
16665TIP3    H271487   5.760   1.303  14.309  0.0783  1.5008  1.5074
16666TIP3   OH271488   3.846   3.724  13.021 -0.3646  0.2334  0.2271
16666TIP3    H171489   3.764   3.773  13.022 -1.8521 -2.1808 -0.0679
16666TIP3    H271490   3.869   3.715  12.929 -0.7584 -0.7031  0.2185
16667TIP3   OH271491   5.995   1.119  10.757  0.3093 -0.4147 -0.3200
16667TIP3    H171492   6.006   1.211  10.781 -1.0246  0.1220 -1.7017
16667TIP3    H271493   6.015   1.071  10.838  2.6348  0.9797 -0.0209
16668TIP3   OH271494   2.185   4.640   4.606 -0.2712 -0.4471 -0.3728
16668TIP3    H171495   2.243   4.598   4.670  0.4316  3.2315  1.5547
16668TIP3    H271496   2.099   4.601   4.622  0.0346 -0.0854  2.4292
16669TIP3   OH271497   4.799   4.002  16.992  0.0500 -0.2910 -0.0230
16669TIP3    H171498   4.823   4.015  17.084 -0.2772  0.6198 -0.0573
16669TIP3    H271499   4.777   3.910  16.986  1.8892 -0.7885  0.3896
16670TIP3   OH271500   4.367   1.739  13.185 -0.3217 -0.0108  0.1469
16670TIP3    H171501   4.403   1.824  13.208  1.3431 -0.4551 -0.8079
16670TIP3    H271502   4.372   1.735  13.090 -1.1392 -0.8509  0.1320
16671TIP3   OH271503   6.098   0.206   2.111  0.2125 -0.7510  0.0113
16671TIP3    H171504   6.149   0.185   2.033  1.5352 -1.9761  1.1882
16671TIP3    H271505   6.153   0.267   2.160 -1.3960  1.4862 -0.8713
16672TIP3   OH271506   5.735   4.933   0.652 -0.0177  0.4627  0.2693
16672TIP3    H171507   5.748   4.838   0.645  2.5765  0.7267  0.8589
16672TIP3    H271508   5.686   4.956   0.574 -0.4281 -1.3356 -0.0250
16673TIP3   OH271509   4.407   6.627   1.245  0.0504 -0.1110  0.1269
16673TIP3    H171510   4.398   6.660   1.334  0.9493  0.3674  0.0506
16673TIP3    H271511   4.383   6.701   1.189 -0.3557 -0.3592 -0.0287
16674TIP3   OH271512   1.623   5.180  14.166  0.2334 -0.4574 -0.0285
16674TIP3    H171513   1.623   5.261  14.115  1.8283 -0.4931 -0.1081
16674TIP3    H271514   1.554   5.127  14.128 -0.5019  0.6688 -0.2938
16675TIP3   OH271515   3.781   2.370   5.369 -0.2393 -0.0896 -0.4293
16675TIP3    H171516   3.727   2.327   5.436  0.9058  3.0370  2.6609
16675TIP3    H271517   3.870   2.340   5.389  0.2068  1.5093  0.0162
16676TIP3   OH271518   1.546   1.651   4.711  0.0937 -0.3938 -0.5579
16676TIP3    H171519   1.605   1.619   4.779 -0.9841 -2.1945 -0.4364
16676TIP3    H271520   1.554   1.587   4.640 -0.1823  0.4645 -1.3805
16677TIP3   OH271521   1.666   1.228   1.793  0.6290 -0.4914  0.1746
16677TIP3    H171522   1.646   1.199   1.704  1.2471  1.4441 -0.6401
16677TIP3    H271523   1.738   1.173   1.821  1.1808 -0.3778 -0.9789
16678TIP3   OH271524   1.922   0.282  14.502  0.0578 -0.1876  0.0708
16678TIP3    H171525   1.890   0.364  14.540  1.0554  0.2640 -0.0523
16678TIP3    H271526   1.896   0.215  14.566 -2.1265  0.0099 -0.5684
16679TIP3   OH271527   6.795   3.036   3.722 -0.0451  0.1964 -0.2237
16679TIP3    H171528   6.782   3.083   3.639  2.4288  1.8070  0.2701
16679TIP3    H271529   6.727   3.070   3.780 -0.7469  0.2689 -1.0831
16680TIP3   OH271530   0.818   5.481   3.287  0.0044  0.4866  0.1802
16680TIP3    H171531   0.815   5.542   3.213  2.3546  1.5089  0.8797
16680TIP3    H271532   0.846   5.398   3.248 -0.3376  0.6094 -0.3335
16681TIP3   OH271533   0.644   2.596   1.567 -0.0683 -0.0748 -0.0808
16681TIP3    H171534   0.643   2.686   1.534  0.2862 -0.4747 -1.1971
16681TIP3    H271535   0.594   2.546   1.503  3.6096 -1.5027 -1.9500
16682TIP3   OH271536   1.652   2.717   0.851 -0.1199 -0.1222  0.6549
16682TIP3    H171537   1.718   2.719   0.920  2.1098  1.8329 -1.4693
16682TIP3    H271538   1.646   2.624   0.827  3.3335 -0.1207 -0.4573
16683TIP3   OH271539   6.037   3.855  15.530  0.4303 -0.2961  0.4752
16683TIP3    H171540   5.983   3.800  15.586 -0.9779 -0.2382 -0.7763
16683TIP3    H271541   6.010   3.945  15.550 -0.3023 -0.2878 -0.4714
16684TIP3   OH271542   6.369   3.836  13.433 -0.4629  0.0299  0.4699
16684TIP3    H171543   6.411   3.756  13.400 -1.9269 -0.8004  0.5838
16684TIP3    H271544   6.400   3.842  13.524  0.5414  0.2205  0.1222
16685TIP3   OH271545   1.829   4.735  11.884 -0.1816  0.2600  0.9285
16685TIP3    H171546   1.839   4.801  11.816 -1.1447  0.6588  1.1662
16685TIP3    H271547   1.735   4.713  11.883  0.3618 -2.1917 -0.1651
16686TIP3   OH271548   6.641   0.009   0.814  0.6044 -0.2620  0.6101
16686TIP3    H171549   6.626   0.006   0.719  0.6873 -0.4841  0.6046
16686TIP3    H271550   6.659  -0.082   0.838  2.3553  0.0457  0.5555
16687TIP3   OH271551   2.829   0.138  11.913  0.1745  0.2351 -0.0373
16687TIP3    H171552   2.802   0.228  11.895  0.4478 -0.0156 -1.7888
16687TIP3    H271553   2.918   0.146  11.947  0.6098  0.5563 -1.2374
16688TIP3   OH271554   6.243   5.338  12.212 -0.2855  0.1426 -0.1886
16688TIP3    H171555   6.331   5.320  12.179 -0.1912  2.2153 -1.0887
16688TIP3    H271556   6.255   5.405  12.279 -1.0089 -0.8521  0.9805
16689TIP3   OH271557   4.204   0.114   0.894  0.1331  0.1529 -0.9897
16689TIP3    H171558   4.179   0.031   0.855 -0.5284  1.7658 -4.1762
16689TIP3    H271559   4.161   0.180   0.840 -0.1284  2.5792  2.0178
16690TIP3   OH271560   2.942   6.000   2.916  0.4581 -0.1324  1.1981
16690TIP3    H171561   2.894   5.970   2.993 -1.2635  1.4172  0.7684
16690TIP3    H271562   3.033   6.007   2.945  0.3663 -2.6675  2.1638
16691TIP3   OH271563   5.801   3.380   5.405 -0.4415  0.4050  0.1650
16691TIP3    H171564   5.706   3.377   5.406 -0.5305  2.4925 -0.4730
16691TIP3    H271565   5.825   3.375   5.313 -0.0331  2.2508  0.1578
16692TIP3   OH271566   4.530   6.527  16.688 -0.2963  0.1019  0.4889
16692TIP3    H171567   4.625   6.537  16.689 -0.1595 -1.0190  0.0387
16692TIP3    H271568   4.506   6.516  16.780  0.0923 -0.2836  0.5476
16693TIP3   OH271569   5.286   4.458  15.087 -0.7221 -0.7262  0.0950
16693TIP3    H171570   5.192   4.476  15.089 -0.3873  1.1635 -0.1077
16693TIP3    H271571   5.300   4.395  15.158 -1.6181  1.7469  2.5271
16694TIP3   OH271572   6.340   3.107   0.800  0.1264  0.0262 -0.0178
16694TIP3    H171573   6.311   3.145   0.718 -1.3287  1.6346  1.2081
16694TIP3    H271574   6.349   3.181   0.860  3.4832 -0.8164  0.6511
16695TIP3   OH271575   0.430   5.139  12.490 -0.3072 -0.1993  0.1137
16695TIP3    H171576   0.503   5.115  12.548 -0.7485 -0.9108  0.3873
16695TIP3    H271577   0.459   5.219  12.447  1.1452 -1.1048 -0.6748
16696TIP3   OH271578   6.100   1.742   0.524  0.4836  0.3241 -0.7101
16696TIP3    H171579   6.015   1.779   0.499 -0.2621 -0.1513  1.0327
16696TIP3    H271580   6.162   1.780   0.462 -0.7155  2.1592 -0.8253
16697TIP3   OH271581   0.247   4.556   2.161 -0.2208  0.4587  0.3546
16697TIP3    H171582   0.188   4.549   2.236  0.9539  0.2199  1.2690
16697TIP3    H271583   0.261   4.650   2.151  0.1924  0.4568  0.8896
16698TIP3   OH271584   5.980   1.642   3.464  0.2329 -0.2506 -0.1136
16698TIP3    H171585   5.934   1.714   3.508 -0.1946 -0.0089 -0.9495
16698TIP3    H271586   5.925   1.621   3.389  0.0934 -1.8023  0.4020
16699TIP3   OH271587   0.038   3.912   1.695 -0.0647 -0.1025  0.1880
16699TIP3    H171588   0.009   3.844   1.756  0.0175  0.6827  1.1157
16699TIP3    H271589   0.030   3.871   1.609 -2.6327 -0.3659  0.5072
16700TIP3   OH271590   3.988   6.049  11.481 -0.0401  0.6252 -0.1534
16700TIP3    H171591   3.896   6.059  11.456  0.2445  1.0101 -1.0849
16700TIP3    H271592   4.033   6.032  11.398  0.4586 -1.5581  0.5376
16701TIP3   OH271593   2.680   4.756  11.780 -0.7488  0.5075  0.3604
16701TIP3    H171594   2.731   4.833  11.753  0.7940 -0.9918 -1.0832
16701TIP3    H271595   2.591   4.790  11.793  0.0271  2.6436  0.3204
16702TIP3   OH271596   3.651   4.360   4.058 -0.0822  0.0732  0.2141
16702TIP3    H171597   3.562   4.326   4.066 -0.5080  0.3649 -2.5489
16702TIP3    H271598   3.639   4.449   4.024  1.2624 -0.0180 -0.5314
16703TIP3   OH271599   1.053   3.856  10.908  0.3609 -0.2187  0.3343
16703TIP3    H171600   1.011   3.769  10.908  1.9601 -1.0226 -1.5902
16703TIP3    H271601   0.987   3.914  10.946 -0.6479 -2.3154  1.8962
16704TIP3   OH271602   2.823   4.589  12.793 -0.2036  0.3088  0.4166
16704TIP3    H171603   2.790   4.558  12.709 -2.5923  0.1725  1.3405
16704TIP3    H271604   2.908   4.548  12.803 -0.4026 -0.5913 -1.4090
16705TIP3   OH271605   6.503   5.610   1.869  0.5383 -0.1272 -0.3601
16705TIP3    H171606   6.429   5.671   1.866 -1.6838 -2.6075  1.1598
16705TIP3    H271607   6.548   5.630   1.950 -0.4721 -0.7820  0.3740
16706TIP3   OH271608   6.259   5.161  13.490 -0.1208  0.1590  0.1856
16706TIP3    H171609   6.163   5.160  13.495 -0.2254  1.7940 -1.1206
16706TIP3    H271610   6.287   5.102  13.560 -2.1378 -2.4452 -1.1094
16707TIP3   OH271611   5.621   6.312   2.896  0.0702 -0.0403  0.2403
16707TIP3    H171612   5.702   6.293   2.945 -0.4246  0.4187  1.2447
16707TIP3    H271613   5.557   6.249   2.930 -0.4027  0.5836  0.5027
16708TIP3   OH271614   6.712   1.640  13.328 -0.0761 -0.0642 -0.0591
16708TIP3    H171615   6.756   1.567  13.286 -3.1947 -1.2049 -1.5579
16708TIP3    H271616   6.756   1.718  13.294  2.6175 -1.1646  0.7719
16709TIP3   OH271617   0.683   4.082  13.843 -0.3061  0.1053 -0.1078
16709TIP3    H171618   0.686   4.007  13.783 -0.9421 -0.4104  0.4943
16709TIP3    H271619   0.753   4.064  13.906  0.2194  0.5377 -0.5674
16710TIP3   OH271620   1.515   2.219   0.551 -0.7777 -0.2290 -0.1959
16710TIP3    H171621   1.556   2.265   0.478  0.9440 -2.0716 -0.4157
16710TIP3    H271622   1.579   2.224   0.622 -0.8076 -1.7791 -0.0472
16711TIP3   OH271623   5.029   6.812  15.959 -0.3681 -0.2489  0.7015
16711TIP3    H171624   5.061   6.755  15.889  0.0838  0.2459  0.4992
16711TIP3    H271625   4.990   6.886  15.913  0.4617  0.3656  0.9727
16712TIP3   OH271626   5.082   6.312   1.474  0.6086  0.1256 -0.0861
16712TIP3    H171627   5.153   6.337   1.415 -0.5096 -0.4770 -1.7049
16712TIP3    H271628   5.003   6.346   1.433 -0.0178  1.2079  1.9540
16713TIP3   OH271629   4.294   1.254   2.084  0.2074 -0.5166  0.1018
16713TIP3    H171630   4.216   1.299   2.116 -0.3010 -1.1074 -0.2864
16713TIP3    H271631   4.275   1.161   2.097  1.0729 -0.6363  0.5087
16714TIP3   OH271632   4.205   4.264   3.278 -0.6362 -0.3021 -0.1599
16714TIP3    H171633   4.252   4.348   3.282 -1.2956  0.0712 -0.2523
16714TIP3    H271634   4.143   4.267   3.350 -0.8768 -0.5831 -0.3531
16715TIP3   OH271635   6.748   3.285  14.681 -0.0631 -0.3893  0.4719
16715TIP3    H171636   6.752   3.376  14.710  1.2132  0.3748 -1.9260
16715TIP3    H271637   6.684   3.286  14.610 -0.1504 -1.3826  0.5366
16716TIP3   OH271638   3.315   0.583  15.617  0.8074  0.2686 -0.6526
16716TIP3    H171639   3.287   0.529  15.544  0.8449  0.4589 -0.8079
16716TIP3    H271640   3.326   0.522  15.690 -1.9378  0.4544 -0.0453
16717TIP3   OH271641   4.026   4.488  13.307  0.2699 -0.1118  0.2164
16717TIP3    H171642   4.088   4.424  13.273 -1.5862 -2.0803  0.4203
16717TIP3    H271643   4.056   4.506  13.396 -0.0910 -1.9632  0.7449
16718TIP3   OH271644   5.026   0.626  10.765  0.7005 -0.0242  0.1687
16718TIP3    H171645   4.952   0.593  10.817 -0.3348 -1.2887 -2.0631
16718TIP3    H271646   5.062   0.697  10.819 -1.3922 -0.1594  1.8454
16719TIP3   OH271647   0.798   3.849  13.404  0.2140 -0.0712 -0.1051
16719TIP3    H171648   0.719   3.883  13.446  0.0798  0.5537 -0.8525
16719TIP3    H271649   0.842   3.927  13.369  0.6136 -0.5265 -0.6284
16720TIP3   OH271650   5.955   4.118   2.262  0.0963 -0.4541  0.0602
16720TIP3    H171651   5.868   4.078   2.254  0.3590 -0.7216 -1.8752
16720TIP3    H271652   5.952   4.194   2.205  1.5105 -1.1907 -1.0513
16721TIP3   OH271653   4.052   5.374   3.868 -0.3492  0.2026  0.3295
16721TIP3    H171654   4.107   5.450   3.846  0.5146 -0.6157 -0.3450
16721TIP3    H271655   4.053   5.371   3.964  1.6095 -0.3898  0.3180
16722TIP3   OH271656   2.986   1.373   2.794  0.3563 -0.1623 -0.8415
16722TIP3    H171657   2.914   1.412   2.744 -1.1694 -1.2213  0.4764
16722TIP3    H271658   3.059   1.432   2.781 -1.5920  2.5630  0.2211
16723TIP3   OH271659   3.935   0.315  16.944  0.2725  0.2130 -0.1298
16723TIP3    H171660   3.875   0.243  16.927 -0.4681  0.2293  2.3283
16723TIP3    H271661   3.923   0.373  16.869 -1.7193 -0.4860 -0.3945
16724TIP3   OH271662   0.276   6.437  16.468  0.1789 -0.1422  0.1682
16724TIP3    H171663   0.298   6.345  16.456  0.1302  0.0204 -1.2557
16724TIP3    H271664   0.341   6.484  16.415  0.6833  0.6782  1.4974
16725TIP3   OH271665   0.583   3.285   1.646  0.1954  1.0555 -0.5685
16725TIP3    H171666   0.596   3.373   1.610 -3.7789  1.4905 -1.0979
16725TIP3    H271667   0.515   3.296   1.712  1.4078 -1.2445  1.1255
16726TIP3   OH271668   4.777   3.509  13.778 -0.1610  0.1139 -0.2085
16726TIP3    H171669   4.843   3.576  13.794 -1.4475  1.3115  0.0812
16726TIP3    H271670   4.794   3.442  13.844 -2.0603  2.5233  2.8415
16727TIP3   OH271671   6.172   1.682  12.636 -0.5208  0.3781 -0.1878
16727TIP3    H171672   6.256   1.642  12.660 -0.7329  0.8765  1.4493
16727TIP3    H271673   6.188   1.776  12.640 -0.8970  0.4747 -0.8455
16728TIP3   OH271674   1.468   5.083   2.516 -0.6540  0.3066  0.1168
16728TIP3    H171675   1.564   5.079   2.522 -0.6990 -0.4809  0.4532
16728TIP3    H271676   1.451   5.153   2.453  0.1478  0.3536 -0.0612
16729TIP3   OH271677   0.464   5.642  13.994 -0.3082  0.1807  0.1957
16729TIP3    H171678   0.522   5.572  13.967  0.5042  0.3370  1.5216
16729TIP3    H271679   0.461   5.701  13.919  2.7634  1.1554  0.7953
16730TIP3   OH271680   5.669   2.685  14.059 -0.1320  0.0845  0.4016
16730TIP3    H171681   5.628   2.758  14.106 -0.7608  0.9817 -1.4987
16730TIP3    H271682   5.642   2.697  13.968  1.0818 -1.6124 -0.2022
16731TIP3   OH271683   5.184   3.692   2.385  0.1730 -0.3819  0.0375
16731TIP3    H171684   5.276   3.698   2.408 -0.9408  0.2854  4.7835
16731TIP3    H271685   5.161   3.600   2.397 -0.4229 -0.0318  1.6361
16732TIP3   OH271686   4.112   4.357  11.155  0.2165  0.1373 -0.7983
16732TIP3    H171687   4.076   4.279  11.196 -1.0226  0.9206 -0.3898
16732TIP3    H271688   4.202   4.333  11.133  0.5158 -0.6837  1.2705
16733TIP3   OH271689   2.722   1.815   1.527 -0.5662  0.3012  0.0152
16733TIP3    H171690   2.627   1.803   1.519 -0.3825 -0.5329 -1.0190
16733TIP3    H271691   2.758   1.727   1.514  0.2808  0.3921  1.7134
16734TIP3   OH271692   2.561   4.818  15.495 -0.2858  0.5256 -0.1801
16734TIP3    H171693   2.586   4.874  15.569 -1.9176  0.7863  0.2126
16734TIP3    H271694   2.519   4.877  15.433  0.8208  0.2528 -1.2076
16735TIP3   OH271695   2.067   0.143   6.311  0.2584 -0.2931 -0.4779
16735TIP3    H171696   2.064   0.237   6.325  0.7909 -0.5086  1.0909
16735TIP3    H271697   2.152   0.115   6.344  0.1004 -1.3355 -0.9103
16736TIP3   OH271698   4.106   6.568   1.212  0.5006  0.7467 -0.5765
16736TIP3    H171699   4.015   6.563   1.239 -0.2009  1.2834 -2.7627
16736TIP3    H271700   4.156   6.556   1.293 -1.4851 -0.3044  0.5247
16737TIP3   OH271701   0.698   6.442   4.847 -0.1739  0.0085  0.0861
16737TIP3    H171702   0.644   6.518   4.867 -0.3444  0.0096 -0.3685
16737TIP3    H271703   0.680   6.380   4.917 -0.9144 -0.0649 -0.1651
16738TIP3   OH271704   2.863   3.263  15.831 -0.2769 -0.1376  0.0113
16738TIP3    H171705   2.849   3.239  15.923  0.1028 -1.0186 -0.1554
16738TIP3    H271706   2.833   3.187  15.782 -0.0219  0.1385 -0.5739
16739TIP3   OH271707   0.438   0.406  12.798 -0.6249  0.0438  0.4271
16739TIP3    H171708   0.389   0.448  12.727  0.5147  1.1549  0.2809
16739TIP3    H271709   0.452   0.316  12.767 -0.6952  0.3333 -0.4733
16740TIP3   OH271710   6.698   0.005   4.705 -0.1646 -0.1760  0.7345
16740TIP3    H171711   6.772   0.002   4.645  0.4432  0.8499  1.4132
16740TIP3    H271712   6.623  -0.023   4.653  0.3912  0.5290 -0.4488
16741TIP3   OH271713   4.607   2.270  13.028 -0.6731  0.0268 -0.2311
16741TIP3    H171714   4.576   2.193  12.982  1.5434 -1.0995  0.0899
16741TIP3    H271715   4.609   2.339  12.962  0.5569 -1.0681 -1.3704
16742TIP3   OH271716   0.159   6.438  14.846 -0.4486 -0.0331 -0.0052
16742TIP3    H171717   0.175   6.363  14.789 -0.8236 -1.3959  1.6535
16742TIP3    H271718   0.063   6.441  14.856 -0.3172 -0.4975  1.4633
16743TIP3   OH271719   1.980   5.399   4.518 -0.4352  0.0158  0.1406
16743TIP3    H171720   1.932   5.412   4.436 -0.6806  1.8465  0.5582
16743TIP3    H271721   2.071   5.422   4.497 -0.2842 -0.6213  0.0930
16744TIP3   OH271722   3.171   4.554   5.859 -0.2595 -0.2813 -0.1626
16744TIP3    H171723   3.169   4.482   5.922  0.6207 -0.0317  0.1583
16744TIP3    H271724   3.255   4.598   5.875 -0.4445  0.3482 -0.8766
16745TIP3   OH271725   5.852   0.871  12.188 -0.1104 -0.5533 -0.8833
16745TIP3    H171726   5.850   0.930  12.263  1.7347  0.1130 -1.3421
16745TIP3    H271727   5.873   0.786  12.225 -0.9238 -0.5730 -0.4494
16746TIP3   OH271728   4.831   2.082  16.018  0.5058  0.2251  0.6721
16746TIP3    H171729   4.818   2.161  16.070  0.1196 -1.5213  3.3289
16746TIP3    H271730   4.887   2.026  16.072  1.4633 -0.9903 -1.5037
16747TIP3   OH271731   2.160   6.349  10.953 -0.1465 -0.8234 -0.8534
16747TIP3    H171732   2.145   6.367  10.860 -0.2073  2.4611 -0.2643
16747TIP3    H271733   2.218   6.420  10.982  1.1957 -2.7345  1.2532
16748TIP3   OH271734   2.815   6.591  15.925  0.5160  0.7986 -0.1897
16748TIP3    H171735   2.737   6.574  15.978 -1.5800  0.2410 -3.2881
16748TIP3    H271736   2.865   6.510  15.930  0.3745  0.7710  0.9667
16749TIP3   OH271737   3.632   6.206   5.157  0.3598  0.3417 -0.1975
16749TIP3    H171738   3.583   6.231   5.079  2.9884  2.0800 -1.3624
16749TIP3    H271739   3.672   6.122   5.134 -2.2242 -1.2352  0.8705
16750TIP3   OH271740   5.866   4.385  17.106  0.3224 -0.1583  0.3949
16750TIP3    H171741   5.814   4.306  17.119 -0.6360  0.5486  0.9344
16750TIP3    H271742   5.801   4.452  17.082  1.1278  0.4403 -0.1258
16751TIP3   OH271743   0.657   1.867   1.060 -0.0196 -0.3552  0.7604
16751TIP3    H171744   0.686   1.946   1.105 -0.7455 -0.6832  1.8336
16751TIP3    H271745   0.729   1.843   1.003 -0.5017  2.1360 -0.9642
16752TIP3   OH271746   1.211   4.121  13.753 -0.7715  0.8261 -0.3920
16752TIP3    H171747   1.176   4.055  13.693 -1.0030  0.4386  0.1654
16752TIP3    H271748   1.304   4.125  13.734 -1.0417  1.5591 -1.5982
16753TIP3   OH271749   3.026   0.699   2.484  0.7740  0.6860 -0.1751
16753TIP3    H171750   3.046   0.693   2.391 -2.1008 -0.7169 -0.7778
16753TIP3    H271751   3.088   0.639   2.526  1.9731  1.1986 -1.1866
16754TIP3   OH271752   5.152   6.563   2.302  0.7387  0.1198 -0.5173
16754TIP3    H171753   5.180   6.475   2.325 -0.1261 -0.0687 -0.1731
16754TIP3    H271754   5.157   6.613   2.384 -2.0593 -0.4790  0.0528
16755TIP3   OH271755   3.995   6.324   1.026 -0.1092  0.2970  0.1134
16755TIP3    H171756   3.933   6.370   0.969 -0.5544  0.5031  0.7528
16755TIP3    H271757   4.022   6.391   1.090  1.3817  0.4203 -0.6445
16756TIP3   OH271758   0.442   6.116   1.749  0.1100 -0.8210 -0.0979
16756TIP3    H171759   0.362   6.130   1.698 -0.8219 -0.9864  1.2835
16756TIP3    H271760   0.425   6.036   1.799  1.3563 -1.1530 -0.1911
16757TIP3   OH271761   6.402   1.133  13.194  0.3704  0.0682 -0.2919
16757TIP3    H171762   6.331   1.121  13.258  0.8220  0.7587  0.3439
16757TIP3    H271763   6.357   1.136  13.110 -0.2661 -0.5249  0.0142
16758TIP3   OH271764   3.680   1.495  12.310 -0.1158 -0.2099  0.0843
16758TIP3    H171765   3.677   1.426  12.377 -1.0689  0.0425  0.3053
16758TIP3    H271766   3.649   1.452  12.230 -1.6061  0.1986  0.4341
16759TIP3   OH271767   3.589   4.128  16.043  0.1440 -0.1546 -0.3217
16759TIP3    H171768   3.533   4.135  15.965  1.3156  1.6668 -1.0454
16759TIP3    H271769   3.673   4.162  16.014 -0.1333  3.1543  2.4782
16760TIP3   OH271770   4.059   2.537  15.644  0.1578 -0.3627 -0.3243
16760TIP3    H171771   4.024   2.604  15.702  1.5043  0.7164 -0.7262
16760TIP3    H271772   4.152   2.533  15.665  0.2927 -1.3433 -1.0551
16761TIP3   OH271773   0.506   2.220   2.999 -0.0321 -0.2202 -0.2301
16761TIP3    H171774   0.534   2.133   2.970  1.2805 -0.3128  1.2815
16761TIP3    H271775   0.577   2.278   2.973 -0.0758  0.1193  0.3977
16762TIP3   OH271776   2.550   6.536  15.638  0.3398  0.3559 -0.6304
16762TIP3    H171777   2.549   6.455  15.587  0.3478  0.7182 -1.2084
16762TIP3    H271778   2.629   6.581  15.610  1.8699 -0.7262  1.7519
16763TIP3   OH271779   4.877   6.380   5.452  0.2176 -0.1812 -0.0800
16763TIP3    H171780   4.797   6.373   5.401  1.1087  0.0788 -1.5343
16763TIP3    H271781   4.880   6.300   5.504 -1.1298 -0.0493  0.1994
16764TIP3   OH271782   1.165   2.630   5.504  0.4752  0.6261 -0.3846
16764TIP3    H171783   1.254   2.629   5.466  1.4846 -1.3345  1.8974
16764TIP3    H271784   1.121   2.555   5.463  0.2141  0.9796 -0.7488
16765TIP3   OH271785   5.794   3.853  13.622  0.0349 -0.0489  0.2594
16765TIP3    H171786   5.887   3.838  13.609 -0.3818 -1.0146 -1.9096
16765TIP3    H271787   5.760   3.768  13.650 -0.0607  0.5417  2.0030
16766TIP3   OH271788   6.236   0.736  15.171 -0.5388 -0.0108 -0.2010
16766TIP3    H171789   6.170   0.803  15.185  1.1889  1.2906  1.9398
16766TIP3    H271790   6.319   0.783  15.169  0.5649 -1.9013 -0.2857
16767TIP3   OH271791   3.533   3.396   4.904  0.1008  0.3537 -0.1847
16767TIP3    H171792   3.605   3.350   4.860  0.5513  0.7667  0.1159
16767TIP3    H271793   3.577   3.456   4.964 -0.5192 -0.2177  0.8475
16768TIP3   OH271794   0.951   0.838   1.271  0.3338 -0.0424  0.2702
16768TIP3    H171795   0.935   0.770   1.206  2.3784  1.1746 -1.5873
16768TIP3    H271796   1.011   0.799   1.333  0.0632 -0.5292  0.2242
16769TIP3   OH271797   0.243   0.829  16.660 -0.1829 -0.3830 -0.2223
16769TIP3    H171798   0.220   0.922  16.663  0.3256 -0.2603  0.0156
16769TIP3    H271799   0.251   0.804  16.753 -0.7699 -0.7776 -0.2822
16770TIP3   OH271800   1.140   6.288   4.509  0.8873 -0.5869 -0.0588
16770TIP3    H171801   1.101   6.373   4.530 -1.2102 -1.2066 -1.3458
16770TIP3    H271802   1.234   6.306   4.503  0.7306  1.1509  1.9748
16771TIP3   OH271803   3.450   2.961   5.165  0.1815 -0.7094  0.6167
16771TIP3    H171804   3.409   3.023   5.226 -0.2480  0.2029 -0.5677
16771TIP3    H271805   3.410   2.877   5.187 -0.7811 -0.1970  0.8806
16772TIP3   OH271806   0.291   5.067  14.611 -0.0271 -0.0551 -0.7709
16772TIP3    H171807   0.218   5.023  14.567  0.7912 -1.3810 -0.8465
16772TIP3    H271808   0.306   5.146  14.559  1.1452 -1.7645 -3.1713
16773TIP3   OH271809   3.092   3.600   0.993 -0.1920 -0.4412  0.8447
16773TIP3    H171810   3.185   3.601   1.015  0.0486 -0.0465 -0.1541
16773TIP3    H271811   3.078   3.515   0.952  0.1668  0.2503 -0.7657
16774TIP3   OH271812   6.190   1.300  14.159  0.4250  0.3137  0.2781
16774TIP3    H171813   6.262   1.292  14.096 -1.1709  1.2954 -1.7317
16774TIP3    H271814   6.111   1.289  14.106 -0.9137 -0.8944  2.4759
16775TIP3   OH271815   1.032   4.815  14.302 -0.0403 -0.3363  0.5050
16775TIP3    H171816   1.101   4.860  14.352  0.4423  0.4755 -0.8697
16775TIP3    H271817   1.000   4.746  14.362 -0.5012  1.5353  2.4843
16776TIP3   OH271818   6.048   3.948  15.964  0.3744 -0.2849  0.3710
16776TIP3    H171819   6.091   3.997  16.034  2.3949 -0.0821 -0.9937
16776TIP3    H271820   6.114   3.940  15.896 -0.9819 -2.0971 -0.7667
16777TIP3   OH271821   2.909   1.845   5.681 -0.4964 -0.0625  0.3205
16777TIP3    H171822   2.868   1.903   5.618  1.2788 -0.1011 -0.9187
16777TIP3    H271823   2.943   1.772   5.629 -0.9698 -1.2289  1.6040
16778TIP3   OH271824   0.445   3.824  16.051 -0.3680 -0.2279  0.4208
16778TIP3    H171825   0.398   3.789  15.975  0.4269 -0.3893 -0.0021
16778TIP3    H271826   0.537   3.815  16.028 -0.1387  1.2945  0.7045
16779TIP3   OH271827   0.981   5.291  11.587 -0.8389  0.5554  0.6098
16779TIP3    H171828   0.928   5.275  11.665 -0.7038  0.4213  0.6731
16779TIP3    H271829   0.957   5.220  11.527  0.2611 -0.2773  1.1513
16780TIP3   OH271830   4.493   0.438  12.367  0.1779 -0.1269  0.2143
16780TIP3    H171831   4.526   0.495  12.437  2.1476 -1.6742  0.5954
16780TIP3    H271832   4.477   0.354  12.410  0.7427 -0.8976 -1.0307
16781TIP3   OH271833   1.605   4.041  11.875 -0.1637  0.3611  0.3216
16781TIP3    H171834   1.520   4.007  11.848  0.5993 -1.2151 -0.1776
16781TIP3    H271835   1.630   4.102  11.805 -1.0470  1.1094  0.6585
16782TIP3   OH271836   5.020   0.150   1.078  0.1100  0.1766 -0.2754
16782TIP3    H171837   4.956   0.145   1.007  0.5710  0.5766 -0.7212
16782TIP3    H271838   4.992   0.083   1.141 -0.5173  0.0845 -0.6534
16783TIP3   OH271839   2.655   0.188   3.408 -0.1302 -0.3286 -0.1339
16783TIP3    H171840   2.713   0.264   3.415  2.2194 -2.0217 -0.6035
16783TIP3    H271841   2.609   0.199   3.325 -0.6909  1.1802  0.3756
16784TIP3   OH271842   1.749   0.241   4.381 -0.1288  0.5588  0.1400
16784TIP3    H171843   1.773   0.148   4.379 -0.8548  0.3793 -0.4688
16784TIP3    H271844   1.781   0.273   4.465  1.3647  0.0858 -0.2186
16785TIP3   OH271845   6.283   5.392   6.408 -0.2046  0.0175  0.5615
16785TIP3    H171846   6.300   5.314   6.355 -0.5613  1.1272 -1.2417
16785TIP3    H271847   6.196   5.421   6.381  0.3131  1.5760  0.5211
16786TIP3   OH271848   5.345   3.444  11.520  0.2918  0.0121 -0.5901
16786TIP3    H171849   5.374   3.417  11.607 -0.2981 -2.4874 -1.1415
16786TIP3    H271850   5.251   3.463  11.531 -0.0314 -1.3552 -0.8897
16787TIP3   OH271851   4.749   4.349   5.329 -0.5967  0.1466 -0.1912
16787TIP3    H171852   4.658   4.337   5.356  0.2095 -0.8459  2.2190
16787TIP3    H271853   4.779   4.425   5.379  0.6793 -1.1849  1.1029
16788TIP3   OH271854   3.194   5.279  16.883  0.5516 -0.1977 -0.0112
16788TIP3    H171855   3.108   5.283  16.926 -0.1697  0.2932 -1.4659
16788TIP3    H271856   3.235   5.362  16.905 -0.5569  0.8455 -1.7370
16789TIP3   OH271857   4.145   1.330   5.029 -0.0086 -0.3055 -0.4069
16789TIP3    H171858   4.127   1.375   5.112 -1.1353 -2.9893  0.8484
16789TIP3    H271859   4.239   1.344   5.014 -0.0951  1.4487  0.5358
16790TIP3   OH271860   4.257   2.364   2.546 -0.6858 -0.4334 -0.0623
16790TIP3    H171861   4.169   2.339   2.519 -0.6708 -1.2679  0.6563
16790TIP3    H271862   4.264   2.335   2.636  0.2293 -0.1073 -0.0214
16791TIP3   OH271863   4.018   0.058   0.164  0.1512 -0.3770  0.3456
16791TIP3    H171864   3.961   0.097   0.230 -0.6039 -0.4449 -0.2685
16791TIP3    H271865   3.984   0.088   0.080  1.0064 -0.4273 -0.0313
16792TIP3   OH271866   2.837   4.667   2.261 -0.6347  0.1756  0.8961
16792TIP3    H171867   2.863   4.749   2.220 -0.8121 -0.1116  0.1974
16792TIP3    H271868   2.883   4.599   2.211 -1.9046 -0.2621  0.3019
16793TIP3   OH271869   2.363   6.516  14.847  0.5102  0.3497 -0.3529
16793TIP3    H171870   2.397   6.537  14.934 -0.1959  1.0790 -0.2365
16793TIP3    H271871   2.421   6.448  14.813  0.4563 -0.3383  0.9203
16794TIP3   OH271872   6.301   5.148   1.855 -0.0321  0.0472 -0.0203
16794TIP3    H171873   6.235   5.133   1.788  1.4402  0.7544 -1.6892
16794TIP3    H271874   6.372   5.087   1.833  0.7671  0.7951  0.4153
16795TIP3   OH271875   2.267   5.170  12.516  0.5067 -0.5562  0.1098
16795TIP3    H171876   2.177   5.159  12.487  0.1345 -0.2703  1.1321
16795TIP3    H271877   2.320   5.138  12.444 -0.4274 -1.4171 -0.1938
16796TIP3   OH271878   3.057   3.173  12.814 -0.1229 -0.0799 -0.2881
16796TIP3    H171879   2.994   3.142  12.879 -0.7286  0.5693 -0.5541
16796TIP3    H271880   3.011   3.243  12.768  0.4085 -0.3371 -1.2210
16797TIP3   OH271881   6.326   3.237  13.756 -0.3232 -0.1767 -0.3796
16797TIP3    H171882   6.414   3.271  13.770 -0.4652  0.0919 -0.1456
16797TIP3    H271883   6.295   3.212  13.843 -0.5844 -0.0178 -0.4278
16798TIP3   OH271884   4.894   1.293   2.029 -0.0040 -0.1745  0.0915
16798TIP3    H171885   4.893   1.384   2.060  0.5213 -0.2545  0.3407
16798TIP3    H271886   4.978   1.258   2.059  0.5210 -0.2547 -1.4369
16799TIP3   OH271887   4.088   1.106   1.155  0.0424  0.3985 -0.1266
16799TIP3    H171888   4.176   1.126   1.188  0.9767 -3.2815 -0.1157
16799TIP3    H271889   4.034   1.097   1.233  0.0174  1.0298 -0.0666
16800TIP3   OH271890   0.781   0.758   0.753 -0.4768 -0.1870 -0.6195
16800TIP3    H171891   0.784   0.829   0.817  2.4238 -0.7881 -0.0264
16800TIP3    H271892   0.693   0.720   0.763  0.0851 -0.6539  3.4661
16801TIP3   OH271893   3.606   3.254   2.304 -0.5517  0.0515  0.0136
16801TIP3    H171894   3.576   3.341   2.279 -0.7745 -0.0508 -0.0699
16801TIP3    H271895   3.568   3.238   2.390 -0.2640  0.1598  0.1632
16802TIP3   OH271896   5.862   2.188  15.490 -0.6582 -0.0824 -0.4298
16802TIP3    H171897   5.883   2.279  15.511  0.1331 -0.0632 -1.2846
16802TIP3    H271898   5.791   2.165  15.550 -2.9669  2.0522 -2.2636
16803TIP3   OH271899   6.368   4.343   1.117  0.2811  0.0140  0.0993
16803TIP3    H171900   6.434   4.356   1.050 -0.0886  1.1491 -0.0436
16803TIP3    H271901   6.360   4.248   1.125 -1.1664 -0.1597 -2.9480
16804TIP3   OH271902   6.410   2.293   0.452  0.3119  0.5209  0.7772
16804TIP3    H171903   6.476   2.290   0.521 -0.5213  2.3534  1.6939
16804TIP3    H271904   6.437   2.367   0.397  1.0154 -0.9637 -0.9534
16805TIP3   OH271905   0.539   2.771  13.757 -0.5164 -0.5280  0.0840
16805TIP3    H171906   0.465   2.724  13.796 -0.1857 -1.3301 -0.2408
16805TIP3    H271907   0.499   2.849  13.717 -1.0492 -0.4576  0.7426
16806TIP3   OH271908   2.682   3.474  15.719 -0.5616 -0.1610 -0.2528
16806TIP3    H171909   2.680   3.389  15.763 -0.9147  0.2908  0.6171
16806TIP3    H271910   2.772   3.506  15.732 -0.9174  0.3890  0.9730
16807TIP3   OH271911   1.822   4.372  13.577 -0.0349  0.2041  0.1786
16807TIP3    H171912   1.917   4.359  13.569  0.1238  1.6523 -0.4688
16807TIP3    H271913   1.785   4.337  13.496  0.1267  1.1538 -0.3215
16808TIP3   OH271914   4.893   5.348  11.988 -0.0685 -0.1898 -0.5025
16808TIP3    H171915   4.980   5.335  11.950  0.2448 -0.9016  0.4216
16808TIP3    H271916   4.863   5.259  12.007 -0.8608  0.0748 -0.5350
16809TIP3   OH271917   0.370   2.169   1.915  0.7139 -0.4612  0.2875
16809TIP3    H171918   0.383   2.244   1.973 -1.4787 -0.2946  0.5840
16809TIP3    H271919   0.430   2.102   1.948  3.1753  1.3477 -0.3693
16810TIP3   OH271920   5.967   0.209  15.338 -0.6817 -0.2576  0.4369
16810TIP3    H171921   6.042   0.158  15.367 -0.5411 -1.3098 -1.7433
16810TIP3    H271922   5.891   0.154  15.357 -0.6066 -0.8514 -0.9529
16811TIP3   OH271923   5.613   0.414  14.649 -0.0954 -0.2901  0.2246
16811TIP3    H171924   5.637   0.475  14.579  1.5475  0.4664  1.4043
16811TIP3    H271925   5.561   0.467  14.710 -1.0356 -0.8028 -0.1176
16812TIP3   OH271926   1.235   6.438   5.788 -0.3406 -0.0338 -0.0756
16812TIP3    H171927   1.233   6.509   5.853 -1.1448  3.1915 -3.4177
16812TIP3    H271928   1.142   6.417   5.774 -0.3233  1.0709 -1.9641
16813TIP3   OH271929   0.694   1.607   0.156 -0.7039  0.0114 -0.3543
16813TIP3    H171930   0.708   1.697   0.187 -0.4467 -0.3657  0.6418
16813TIP3    H271931   0.736   1.552   0.222 -2.3159 -0.9219 -0.0800
16814TIP3   OH271932   5.425   0.915  11.808 -0.6779 -1.5194  0.1269
16814TIP3    H171933   5.337   0.913  11.770 -0.0411  1.4153 -1.6777
16814TIP3    H271934   5.480   0.868  11.745 -1.0038 -3.9387  1.5765
16815TIP3   OH271935   3.800   0.860   4.755  0.0446  0.1712 -0.5263
16815TIP3    H171936   3.886   0.834   4.722  0.1940 -0.5129  0.3916
16815TIP3    H271937   3.768   0.783   4.802 -1.4169  0.1306 -1.5359
16816TIP3   OH271938   0.683   6.718  13.645  0.9993 -0.1146  0.3252
16816TIP3    H171939   0.681   6.627  13.616  0.9018 -0.7886  2.3269
16816TIP3    H271940   0.771   6.729  13.682  0.9729  0.5668  0.1926
16817TIP3   OH271941   0.842   1.159  11.486 -0.0392  0.4867  0.0032
16817TIP3    H171942   0.766   1.216  11.492  0.5969  1.5191 -1.4261
16817TIP3    H271943   0.915   1.218  11.465  0.7232 -0.7832 -1.0029
16818TIP3   OH271944   2.034   4.284  17.290 -0.4634 -0.2641  0.4391
16818TIP3    H171945   1.967   4.234  17.337 -0.2846 -0.5273  0.4198
16818TIP3    H271946   1.987   4.358  17.252 -0.6243 -0.1058  0.9509
16819TIP3   OH271947   6.635   0.478  17.141 -0.2206 -0.0915  0.1408
16819TIP3    H171948   6.576   0.461  17.068  0.6584  0.3990 -0.6799
16819TIP3    H271949   6.588   0.444  17.218 -1.2671 -0.3305 -0.6004
16820TIP3   OH271950   5.566   2.297   0.271  0.7827  0.4021 -0.3144
16820TIP3    H171951   5.567   2.299   0.367 -1.7052 -1.7745 -0.1928
16820TIP3    H271952   5.659   2.295   0.246  1.4615  1.1962  2.0300
16821TIP3   OH271953   5.843   5.584  13.852 -0.0865  0.4517  0.0447
16821TIP3    H171954   5.925   5.537  13.861  1.4566  3.0971  0.2892
16821TIP3    H271955   5.786   5.545  13.918  0.8853 -1.5188 -0.2408
16822TIP3   OH271956   3.742   1.237   3.377  0.3162  0.4215  0.0752
16822TIP3    H171957   3.727   1.319   3.330 -0.6573  0.6360  0.7300
16822TIP3    H271958   3.769   1.175   3.309 -1.3008  0.6691 -0.8339
16823TIP3   OH271959   2.398   5.901  12.385 -0.4568  0.0225  0.0132
16823TIP3    H171960   2.352   5.931  12.463 -1.5301 -0.9174 -0.2522
16823TIP3    H271961   2.334   5.848  12.337  1.0682 -1.8263 -0.0401
16824TIP3   OH271962   2.301   1.344  14.384  0.3839 -0.4233  0.0192
16824TIP3    H171963   2.242   1.274  14.355 -1.4778  0.3778  1.7176
16824TIP3    H271964   2.270   1.422  14.339 -0.2778  0.1191  1.3678
16825TIP3   OH271965   4.131   2.186   0.679  0.0364 -0.7037  0.2477
16825TIP3    H171966   4.176   2.103   0.696 -1.2815 -0.8855  3.1764
16825TIP3    H271967   4.064   2.164   0.615  1.3024 -1.3280 -0.9043
16826TIP3   OH271968   5.474   2.121  15.899  0.1624  0.1633 -0.0009
16826TIP3    H171969   5.557   2.129  15.851 -0.2675 -0.7474 -0.9090
16826TIP3    H271970   5.417   2.187  15.858 -0.4370 -1.1116 -1.2536
16827TIP3   OH271971   3.562   4.970   2.398 -0.1877 -0.7633 -0.8023
16827TIP3    H171972   3.620   5.022   2.342  0.5880 -1.8295 -1.0033
16827TIP3    H271973   3.481   4.962   2.347 -0.3977  0.4151 -0.6785
16828TIP3   OH271974   1.075   0.972   1.965 -0.3134 -0.0152  0.4038
16828TIP3    H171975   0.993   0.968   2.013 -1.3486  0.5754 -1.2653
16828TIP3    H271976   1.126   1.040   2.009 -0.8887 -0.0919  1.1933
16829TIP3   OH271977   3.316   5.586  13.277 -0.6015 -0.0712 -0.4889
16829TIP3    H171978   3.268   5.562  13.198 -0.8451  1.2794 -0.7624
16829TIP3    H271979   3.297   5.679  13.289  1.8091  0.4507 -0.5142
16830TIP3   OH271980   4.371   0.559  13.783 -0.1512 -0.2479 -0.4911
16830TIP3    H171981   4.319   0.517  13.852 -0.9142 -0.3245 -1.1047
16830TIP3    H271982   4.391   0.488  13.723  1.3159 -0.3686  0.1299
16831TIP3   OH271983   2.882   1.007   5.074  0.1567 -0.2838 -0.7081
16831TIP3    H171984   2.975   0.987   5.089 -0.0025  0.0983  0.8850
16831TIP3    H271985   2.882   1.063   4.996  1.2019 -0.8407 -1.1229
16832TIP3   OH271986   0.038   4.172   5.516 -0.0178 -0.0090 -0.0264
16832TIP3    H171987   0.054   4.234   5.446  1.1714  0.5996  0.7612
16832TIP3    H271988   0.023   4.226   5.594 -2.7841 -0.6400 -0.0668
16833TIP3   OH271989   1.035   3.485  16.522  0.3770 -0.4806  0.0648
16833TIP3    H171990   1.059   3.572  16.491 -0.0673 -0.5100 -0.3685
16833TIP3    H271991   1.098   3.426  16.481 -0.1669 -0.5129 -0.7469
16834TIP3   OH271992   2.929   6.404   5.834 -0.3912  0.3814 -0.0631
16834TIP3    H171993   2.957   6.344   5.903 -0.1848  0.5654  0.0139
16834TIP3    H271994   2.847   6.367   5.801  0.2624 -0.5132 -0.7155
16835TIP3   OH271995   2.310   1.606   3.149 -0.4223  0.4848 -0.1903
16835TIP3    H171996   2.398   1.587   3.116 -0.3281 -0.7228  0.7046
16835TIP3    H271997   2.311   1.700   3.167  1.2766  0.1996  1.4591
16836TIP3   OH271998   4.191   5.933   0.749 -0.1141  0.3212 -0.1239
16836TIP3    H171999   4.173   6.019   0.710 -0.2088 -0.9394 -3.0444
16836TIP3    H272000   4.285   5.933   0.766 -0.0975  0.9878 -0.2110
16837TIP3   OH272001   5.999   1.187   4.498 -0.5023  0.4015  0.2371
16837TIP3    H172002   6.007   1.153   4.408  1.1774  2.4901 -0.4531
16837TIP3    H272003   5.905   1.196   4.512 -0.7756  0.2163 -1.3720
16838TIP3   OH272004   2.126   0.380  14.308 -0.5512  0.5364 -0.1171
16838TIP3    H172005   2.038   0.379  14.347 -0.1483  1.5865  0.8547
16838TIP3    H272006   2.156   0.470  14.321  0.4148  0.3403 -1.0201
16839TIP3   OH272007   1.935   4.302   6.057  0.0180 -0.4281 -0.3995
16839TIP3    H172008   1.924   4.209   6.078 -0.6739 -0.0728  0.8480
16839TIP3    H272009   1.868   4.347   6.109  0.6900  0.8290 -0.5912
16840TIP3   OH272010   4.408   1.291  12.454 -0.3318  0.3197  0.3057
16840TIP3    H172011   4.369   1.276  12.368  0.3116 -0.6391  0.1761
16840TIP3    H272012   4.499   1.263  12.444  0.1840  1.7704  0.8276
16841TIP3   OH272013   4.340   0.537  13.081  0.2279  0.6545  0.3339
16841TIP3    H172014   4.432   0.533  13.054 -0.1130 -0.7895 -0.6879
16841TIP3    H272015   4.318   0.446  13.103 -1.4026  0.7123 -0.9894
16842TIP3   OH272016   2.449   2.479   6.247 -0.2653  0.2161  0.0763
16842TIP3    H172017   2.445   2.481   6.343  0.2127  0.9791  0.0865
16842TIP3    H272018   2.479   2.567   6.223 -3.1994  0.9906 -0.9172
16843TIP3   OH272019   2.627   3.249   2.633 -0.4193  0.4625  0.5699
16843TIP3    H172020   2.554   3.307   2.614 -0.5398 -0.2244 -1.0962
16843TIP3    H272021   2.587   3.163   2.646  0.2327 -0.3535 -2.4050
16844TIP3   OH272022   5.756   3.842  17.055 -0.1834 -0.3912 -0.4161
16844TIP3    H172023   5.694   3.839  16.983 -0.2698 -2.2645 -0.2962
16844TIP3    H272024   5.727   3.774  17.115  1.6291 -0.8993 -0.0736
16845TIP3   OH272025   5.196   4.488   1.454 -0.6183  0.6361 -1.2530
16845TIP3    H172026   5.178   4.517   1.543  0.5062 -0.8404 -0.5105
16845TIP3    H272027   5.112   4.456   1.422 -0.4155 -1.7166  0.4254
16846TIP3   OH272028   0.364   3.510  16.303  0.6289 -0.7327 -0.3641
16846TIP3    H172029   0.360   3.484  16.211  0.2430 -0.2469 -0.4890
16846TIP3    H272030   0.444   3.563  16.309  0.6863 -0.8145 -0.4084
16847TIP3   OH272031   4.609   4.763   1.410  0.6753  0.0554 -0.5676
16847TIP3    H172032   4.556   4.701   1.360  1.3741 -1.5439  0.6138
16847TIP3    H272033   4.693   4.718   1.422  0.8909  0.8682  1.0735
16848TIP3   OH272034   1.952   5.214  14.700  0.0091 -0.0782  0.3707
16848TIP3    H172035   1.952   5.306  14.727 -1.1003 -0.6284  2.3234
16848TIP3    H272036   2.043   5.187  14.708  0.5298  1.1463 -1.2805
16849TIP3   OH272037   1.984   3.691  11.173  0.2825  0.8191  0.6373
16849TIP3    H172038   2.045   3.620  11.153  0.6456  0.8300  1.6657
16849TIP3    H272039   1.993   3.752  11.099  1.6585  0.9067  0.8605
16850TIP3   OH272040   3.523   0.157  10.781 -0.4142 -0.0956  0.3368
16850TIP3    H172041   3.449   0.161  10.720 -0.6835  1.8134  0.7710
16850TIP3    H272042   3.600   0.163  10.724 -0.5963 -0.8299 -0.0069
16851TIP3   OH272043   5.671   4.654   2.707  0.2604  0.2920  0.3383
16851TIP3    H172044   5.604   4.589   2.727  0.0241  0.6983  0.8843
16851TIP3    H272045   5.741   4.637   2.770  1.8418 -1.8062 -1.8812
16852TIP3   OH272046   6.019   4.290   4.882 -0.9383  0.3274 -0.3606
16852TIP3    H172047   5.972   4.326   4.957  0.2424 -1.4137  1.2476
16852TIP3    H272048   6.111   4.310   4.899 -0.1840 -3.8522  0.8776
16853TIP3   OH272049   4.372   2.313  14.813  0.4864 -0.3738  0.0130
16853TIP3    H172050   4.434   2.267  14.756 -0.4772 -0.3116 -1.0936
16853TIP3    H272051   4.288   2.305  14.768 -0.4457 -1.0492  1.8481
16854TIP3   OH272052   6.591   4.854  16.512  0.5540  0.5260 -0.1882
16854TIP3    H172053   6.500   4.861  16.484  1.1327  1.1073 -2.0240
16854TIP3    H272054   6.587   4.826  16.603 -1.4515  0.4203 -0.3029
16855TIP3   OH272055   1.864   5.811   6.345 -0.4746  0.5743  0.2287
16855TIP3    H172056   1.905   5.748   6.404 -0.4738 -0.2743 -0.6622
16855TIP3    H272057   1.913   5.802   6.263  0.9478  3.2795  0.7119
16856TIP3   OH272058   3.321   2.069   0.243  0.3589 -0.1218 -0.1666
16856TIP3    H172059   3.342   1.994   0.187  0.2077 -0.4533  0.2150
16856TIP3    H272060   3.245   2.040   0.294 -0.6481  0.8341 -1.0938
16857TIP3   OH272061   3.592   6.345  17.173  0.1908  0.2134  0.1962
16857TIP3    H172062   3.576   6.338  17.267  0.0092 -1.3365  0.0637
16857TIP3    H272063   3.505   6.353  17.135  0.1415 -0.8427  0.0516
16858TIP3   OH272064   3.701   6.107   2.808  0.7575 -0.3528 -0.2024
16858TIP3    H172065   3.787   6.065   2.799  2.4757  1.7167  4.9828
16858TIP3    H272066   3.665   6.071   2.888 -1.2679  2.0992  0.0332
16859TIP3   OH272067   4.938   6.761  11.115 -0.0280 -0.3604  0.3455
16859TIP3    H172068   4.934   6.761  11.020 -0.9922 -3.2986  0.3308
16859TIP3    H272069   4.856   6.802  11.143  0.8451  1.6893 -0.0798
16860TIP3   OH272070   3.586   4.964  14.516  0.1049 -0.2510 -0.3198
16860TIP3    H172071   3.615   5.041  14.468  0.4014 -1.0978 -1.5211
16860TIP3    H272072   3.645   4.959  14.592  0.2357  0.5579 -0.3709
16861TIP3   OH272073   3.120   5.363  15.929  0.1404 -0.2206 -0.1167
16861TIP3    H172074   3.144   5.271  15.943  1.4165  0.1208  0.0298
16861TIP3    H272075   3.169   5.410  15.997  0.3828  0.6794 -0.9179
16862TIP3   OH272076   5.253   3.584   0.431 -0.0452  0.7316  0.2871
16862TIP3    H172077   5.278   3.671   0.401  0.3109  0.8649  0.9483
16862TIP3    H272078   5.337   3.538   0.444 -0.2679 -0.4055 -2.0600
16863TIP3   OH272079   4.268   6.613  15.329 -0.0286  0.0299 -0.4946
16863TIP3    H172080   4.233   6.653  15.409  0.0122  1.8991 -1.3883
16863TIP3    H272081   4.202   6.550  15.303  0.3788 -1.2972  1.5151
16864TIP3   OH272082   6.012   5.373   0.938 -0.3652 -0.6609 -0.4037
16864TIP3    H172083   5.938   5.313   0.928  0.2309 -1.4715  0.0142
16864TIP3    H272084   6.090   5.318   0.924  0.2636 -0.4312  2.0849
16865TIP3   OH272085   5.239   2.023   4.285 -0.0081 -0.0068 -0.3398
16865TIP3    H172086   5.160   2.011   4.338 -1.8434 -0.2316 -3.0630
16865TIP3    H272087   5.247   2.118   4.275 -0.3958 -0.0143 -0.7306
16866TIP3   OH272088   6.492   6.795  12.135 -0.4708 -0.1372  0.2724
16866TIP3    H172089   6.486   6.700  12.145  0.6584 -0.4742 -1.8241
16866TIP3    H272090   6.585   6.815  12.147 -0.4638  0.4937 -0.7183
16867TIP3   OH272091   0.949   1.696   0.459  0.0585 -0.4471 -0.3563
16867TIP3    H172092   0.900   1.776   0.482 -0.0551 -0.3641 -0.8662
16867TIP3    H272093   0.979   1.661   0.542 -1.1573 -0.6760 -0.0018
16868TIP3   OH272094   1.017   1.027   3.214  0.3193  0.2109 -0.7340
16868TIP3    H172095   0.947   1.088   3.235 -0.6569 -0.1612 -2.8617
16868TIP3    H272096   1.094   1.083   3.199  0.5952  0.5943  1.8828
16869TIP3   OH272097   3.076   0.222   4.465  0.0297  0.0658 -0.6291
16869TIP3    H172098   3.021   0.289   4.504 -0.2665 -0.3674 -0.3098
16869TIP3    H272099   3.108   0.171   4.539  0.5414  0.0663 -0.8440
16870TIP3   OH272100   1.502   0.374   4.102 -0.1760 -0.2905 -0.8274
16870TIP3    H172101   1.585   0.413   4.076 -0.1479  0.4924  0.3719
16870TIP3    H272102   1.483   0.308   4.035  0.9168  0.2139 -1.6313
16871TIP3   OH272103   1.935   2.093  14.149 -0.4633 -0.0924  0.4561
16871TIP3    H172104   1.991   2.165  14.178 -1.8239  0.4678  1.7766
16871TIP3    H272105   1.909   2.116  14.060 -1.9049  1.7137  1.3083
16872TIP3   OH272106   6.766   0.207  17.093 -0.1596  0.5190 -0.3218
16872TIP3    H172107   6.737   0.140  17.030  0.3599 -0.2550  0.2511
16872TIP3    H272108   6.725   0.288  17.062  0.6736  0.3014 -2.0853
16873TIP3   OH272109   3.137   5.971  11.907  0.1480 -0.7044 -0.7364
16873TIP3    H172110   3.184   6.025  11.844 -0.9674  0.6690 -0.4186
16873TIP3    H272111   3.049   6.010  11.910 -0.4028 -1.9938  0.1604
16874TIP3   OH272112   5.523   1.612  13.165 -0.2071 -0.6719  0.3597
16874TIP3    H172113   5.608   1.655  13.155 -1.6045  2.0088 -0.4781
16874TIP3    H272114   5.533   1.528  13.120  2.7786 -1.5524  2.5248
16875TIP3   OH272115   2.702   2.135  14.942 -0.0684 -0.4388 -0.0435
16875TIP3    H172116   2.608   2.129  14.958 -0.0715  0.6521  0.3941
16875TIP3    H272117   2.734   2.046  14.955 -1.1217 -0.9463 -0.7655
16876TIP3   OH272118   3.197   3.936  11.365  0.2332 -0.4589 -0.5210
16876TIP3    H172119   3.115   3.984  11.368  0.2517 -0.4372 -0.3838
16876TIP3    H272120   3.171   3.844  11.355  0.2044 -0.3859 -1.1456
16877TIP3   OH272121   1.550   6.811  15.694  0.2620  0.0027 -0.0017
16877TIP3    H172122   1.593   6.822  15.779  0.6882 -0.5514 -0.1448
16877TIP3    H272123   1.515   6.721  15.696  2.1241 -0.7911 -1.2361
16878TIP3   OH272124   6.115   3.110  11.404 -0.5936 -0.3456 -0.2606
16878TIP3    H172125   6.182   3.144  11.464  0.0930 -0.8699 -0.7141
16878TIP3    H272126   6.119   3.169  11.328  1.1401 -1.8715 -1.3818
16879TIP3   OH272127   2.418   2.829   3.503 -0.3357  0.0573  0.2813
16879TIP3    H172128   2.438   2.911   3.549  0.5806  0.2023 -0.3605
16879TIP3    H272129   2.364   2.779   3.565 -1.0698  1.2268  0.5980
16880TIP3   OH272130   2.617   5.719   3.159 -0.0697  0.0210  0.0117
16880TIP3    H172131   2.579   5.726   3.071 -1.1666 -0.1882  0.4538
16880TIP3    H272132   2.605   5.627   3.183  1.6132 -0.2657 -0.2241
16881TIP3   OH272133   2.449   5.804   2.882  0.1666 -0.2274  0.2489
16881TIP3    H172134   2.467   5.898   2.881 -1.3710  0.0758 -0.0075
16881TIP3    H272135   2.403   5.789   2.965 -1.3632 -0.3986 -0.6117
16882TIP3   OH272136   4.427   2.920  16.795  0.0136  0.3860  0.3942
16882TIP3    H172137   4.335   2.928  16.818 -0.4078  0.9398 -1.3860
16882TIP3    H272138   4.427   2.867  16.715  1.0897  1.9142 -0.6324
16883TIP3   OH272139   1.100   5.952   3.472 -0.1619  0.0622 -0.4175
16883TIP3    H172140   1.024   5.949   3.530 -0.3198 -1.0506 -0.6834
16883TIP3    H272141   1.147   5.870   3.488  0.4232  0.2738 -1.0117
16884TIP3   OH272142   5.282   2.464   2.817 -0.8544  0.0190  0.4503
16884TIP3    H172143   5.213   2.511   2.771  0.4774  2.4256  0.8276
16884TIP3    H272144   5.242   2.436   2.899 -2.0752 -0.8367 -0.4008
16885TIP3   OH272145   3.822   0.652  17.000 -0.3062 -0.1840  0.2869
16885TIP3    H172146   3.880   0.712  16.953 -0.6009  1.3837  1.8465
16885TIP3    H272147   3.740   0.653  16.950  0.1233 -0.3085 -0.4233
16886TIP3   OH272148   3.815   0.438  16.724  0.3714  0.4809  0.0417
16886TIP3    H172149   3.894   0.488  16.703 -0.0340  0.4765 -1.5123
16886TIP3    H272150   3.749   0.505  16.745  0.2181  0.5609 -0.6796
16887TIP3   OH272151   3.271   1.265  13.140 -0.2195 -0.0283  0.7880
16887TIP3    H172152   3.233   1.183  13.107 -0.3663 -0.1854  1.3447
16887TIP3    H272153   3.206   1.332  13.119  0.0331 -0.0050  0.0639
16888TIP3   OH272154   4.303   4.898   3.440 -0.0761  0.3387 -0.6755
16888TIP3    H172155   4.211   4.870   3.448  0.5500 -1.6323 -0.1218
16888TIP3    H272156   4.320   4.897   3.346 -1.2847  3.0321 -0.9788
16889TIP3   OH272157   1.701   2.925   4.738  0.2615  0.5031  0.2288
16889TIP3    H172158   1.720   3.018   4.746  1.8842  0.3750 -1.6871
16889TIP3    H272159   1.615   2.921   4.697  1.2029  1.2076 -1.8877
16890TIP3   OH272160   6.194   4.014   3.569 -0.6573  0.1015  0.8781
16890TIP3    H172161   6.184   4.083   3.504 -1.9006  0.1765  1.1206
16890TIP3    H272162   6.126   3.950   3.547  0.6644 -1.2062  0.4755
16891TIP3   OH272163   0.541   5.236   3.641  0.4404  0.1264 -0.9036
16891TIP3    H172164   0.598   5.212   3.714  2.1563 -0.2243 -2.3195
16891TIP3    H272165   0.459   5.191   3.659  1.5244 -1.6546 -0.2600
16892TIP3   OH272166   0.234   3.423   2.716  0.4803  0.5535 -0.1069
16892TIP3    H172167   0.307   3.459   2.765 -1.2326 -0.9301  3.7239
16892TIP3    H272168   0.254   3.329   2.708  0.0550  0.5300 -1.0052
16893TIP3   OH272169   0.979   2.889   5.281  0.5186  0.0521  0.0495
16893TIP3    H172170   0.930   2.926   5.208  0.6854 -0.1304 -0.1561
16893TIP3    H272171   1.033   2.961   5.313  0.0171  0.2913  0.3651
16894TIP3   OH272172   5.680   4.535   4.099 -0.4974  0.1094 -0.2080
16894TIP3    H172173   5.731   4.465   4.140  0.8519  0.3019 -1.5341
16894TIP3    H272174   5.712   4.540   4.010 -0.9269  2.1015 -0.2881
16895TIP3   OH272175   0.494   2.667   6.347  0.4963 -0.5999  0.0782
16895TIP3    H172176   0.480   2.579   6.381  1.1981 -0.9450 -0.4894
16895TIP3    H272177   0.564   2.703   6.401  1.2548 -0.9582 -0.6479
16896TIP3   OH272178   2.164   2.222   5.366 -0.0996 -0.3525  0.1970
16896TIP3    H172179   2.253   2.255   5.379 -0.3948  1.2544 -1.8070
16896TIP3    H272180   2.175   2.127   5.354  1.0740 -0.5272  2.4050
16897TIP3   OH272181   5.069   6.203  12.330  0.2579 -0.2703  0.0301
16897TIP3    H172182   5.051   6.277  12.272  0.1101 -0.5938 -0.3453
16897TIP3    H272183   5.056   6.126  12.274 -2.0732 -0.6720  1.1067
16898TIP3   OH272184   4.516   0.526  11.766 -0.9533  0.3609  0.1983
16898TIP3    H172185   4.490   0.602  11.817  0.1245  0.9441 -0.1071
16898TIP3    H272186   4.434   0.491  11.730 -1.7649 -0.2081  2.5104
16899TIP3   OH272187   4.825   1.644   5.030 -0.0858  0.0950 -0.4309
16899TIP3    H172188   4.834   1.714   5.094 -0.1080 -1.2805  1.1236
16899TIP3    H272189   4.731   1.627   5.026 -0.0772  0.1205 -0.7611
16900TIP3   OH272190   3.168   3.927  14.252 -0.6583  0.7517 -0.1324
16900TIP3    H172191   3.235   3.994  14.236 -0.3266  0.7999  1.4032
16900TIP3    H272192   3.206   3.871  14.320 -0.9275 -1.0265 -1.4213
16901TIP3   OH272193   2.556   3.177   5.442  0.6101 -0.0283 -0.0605
16901TIP3    H172194   2.553   3.273   5.436  2.3943  0.1682  1.3833
16901TIP3    H272195   2.625   3.152   5.381 -0.9389 -0.5464 -1.6122
16902TIP3   OH272196   1.262   2.331   1.692  0.1291  0.6251  0.4332
16902TIP3    H172197   1.264   2.292   1.780  1.6370 -0.0295  0.1224
16902TIP3    H272198   1.345   2.378   1.685 -0.0390  0.7689 -0.5979
16903TIP3   OH272199   4.353   4.656  13.590 -0.2992  0.6206 -0.7528
16903TIP3    H172200   4.377   4.575  13.546 -2.2274  0.5964 -1.8305
16903TIP3    H272201   4.380   4.725  13.529  1.9027  0.8533  0.4320
16904TIP3   OH272202   3.652   6.005  16.816  0.1680 -0.2456 -0.2519
16904TIP3    H172203   3.649   5.939  16.885  1.8777 -2.4090 -2.1933
16904TIP3    H272204   3.718   6.068  16.847 -1.1400  0.3618  1.3820
16905TIP3   OH272205   5.473   6.177  11.645 -0.3511 -0.0476 -0.2925
16905TIP3    H172206   5.499   6.265  11.672  0.1379  0.5674 -2.5921
16905TIP3    H272207   5.451   6.186  11.552 -1.2158 -2.1636 -0.3310
16906TIP3   OH272208   1.578   2.145  15.290  0.6165 -0.2909 -0.0238
16906TIP3    H172209   1.492   2.184  15.303  1.0985  0.4986  0.9559
16906TIP3    H272210   1.619   2.151  15.377  2.3062  0.9758 -0.8771
16907TIP3   OH272211   1.916   2.067  16.636  0.5944  0.0874 -0.0014
16907TIP3    H172212   1.900   2.028  16.550 -0.5777  0.3898  0.0691
16907TIP3    H272213   1.848   2.134  16.645  0.0837 -0.6240  1.5723
16908TIP3   OH272214   0.874   5.757  15.165  0.9301 -0.8912  0.4047
16908TIP3    H172215   0.861   5.850  15.149 -0.6312 -1.5167 -2.0683
16908TIP3    H272216   0.967   5.743  15.147  0.5340 -0.3688 -2.2257
16909TIP3   OH272217   3.338   2.190   1.616  0.1384 -0.1771  0.4552
16909TIP3    H172218   3.289   2.272   1.610 -0.9353 -0.7617  1.1502
16909TIP3    H272219   3.312   2.152   1.700  1.1641 -0.8939  0.4585
16910TIP3   OH272220   0.527   3.821   3.706  0.1257  0.4722 -0.8854
16910TIP3    H172221   0.515   3.806   3.800  1.2934 -0.9527 -0.9449
16910TIP3    H272222   0.580   3.900   3.701  0.2714  0.4115 -0.3507
16911TIP3   OH272223   2.536   3.193   3.329 -0.1355  0.3464 -0.0112
16911TIP3    H172224   2.517   3.168   3.419 -1.8136  1.9726  0.1204
16911TIP3    H272225   2.624   3.229   3.332 -0.4492  1.0289  1.1246
16912TIP3   OH272226   2.926   6.212  14.105  0.6755  0.2917  0.2011
16912TIP3    H172227   2.845   6.230  14.152  0.8620  0.5344  0.4276
16912TIP3    H272228   2.946   6.293  14.058  1.1876  0.4789  0.7358
16913TIP3   OH272229   2.944   6.042   4.752  0.2185 -0.0519  0.7263
16913TIP3    H172230   2.955   5.950   4.728  1.0045  0.4772 -1.1240
16913TIP3    H272231   3.027   6.083   4.726  0.1006  1.0643  2.0692
16914TIP3   OH272232   3.265   2.322   5.046 -0.3324 -0.1332  0.5772
16914TIP3    H172233   3.279   2.390   4.981  2.5111 -0.6625  0.5755
16914TIP3    H272234   3.214   2.255   5.000 -0.5664  0.6539 -0.3126
16915TIP3   OH272235   0.236   2.651   3.106 -0.1285  0.2277  0.1788
16915TIP3    H172236   0.305   2.696   3.057  1.6167 -1.8838  0.6270
16915TIP3    H272237   0.223   2.704   3.184  0.9634  0.6825  0.0605
16916TIP3   OH272238   6.085   4.737   0.880  0.1732  0.2766  0.2174
16916TIP3    H172239   6.169   4.699   0.854  0.7321  0.8238  1.2236
16916TIP3    H272240   6.024   4.664   0.875  1.4076 -0.9866  2.9865
16917TIP3   OH272241   2.632   0.128  13.544  0.2512 -0.5766  0.2885
16917TIP3    H172242   2.536   0.136  13.539  0.3214  0.8635  1.0623
16917TIP3    H272243   2.647   0.067  13.617 -0.0149  1.6973  2.2942
16918TIP3   OH272244   3.633   5.759   4.510  0.2952  0.1800  0.1783
16918TIP3    H172245   3.558   5.711   4.478  0.1268  0.0566  0.7600
16918TIP3    H272246   3.601   5.808   4.586  0.4608  1.2008 -0.3974
16919TIP3   OH272247   0.653   6.180  12.601  0.3738 -0.6370 -0.5545
16919TIP3    H172248   0.629   6.117  12.533  0.5952  0.5122 -1.7190
16919TIP3    H272249   0.747   6.190  12.592  0.0809  1.3659 -1.7351
16920TIP3   OH272250   5.823   6.686  14.676  0.4888 -0.1614  0.0468
16920TIP3    H172251   5.815   6.725  14.764 -0.9639 -1.5387  0.5433
16920TIP3    H272252   5.762   6.612  14.677  3.2051 -2.4876 -0.8664
16921TIP3   OH272253   4.768   4.092  13.683 -0.1415 -0.0180  0.2870
16921TIP3    H172254   4.696   4.103  13.621  0.7288 -1.0867 -0.9272
16921TIP3    H272255   4.823   4.169  13.669  0.2452 -0.4368 -0.5373
16922TIP3   OH272256   6.796   1.555  10.715  0.8363  0.0389  1.0235
16922TIP3    H172257   6.865   1.538  10.651  0.4156  0.5138  0.4331
16922TIP3    H272258   6.747   1.629  10.678 -0.6913 -1.0184  0.8635
16923TIP3   OH272259   6.091   5.213  11.221  0.3315  0.5678 -0.2193
16923TIP3    H172260   6.002   5.225  11.253  0.3894  0.3683  0.0129
16923TIP3    H272261   6.102   5.282  11.155 -0.1844  0.2551 -0.6394
16924TIP3   OH272262   5.904   2.525  14.457 -0.1427  0.4396 -0.1163
16924TIP3    H172263   5.905   2.468  14.534  0.7295  0.0298 -0.4144
16924TIP3    H272264   5.824   2.501  14.410  0.7367 -1.3141 -0.7801
16925TIP3   OH272265   2.292   4.902  14.179 -0.1051  0.3766  0.2583
16925TIP3    H172266   2.305   4.927  14.271 -0.3054  3.9045 -0.5967
16925TIP3    H272267   2.216   4.844  14.181  0.8705 -0.9094  2.4790
16926TIP3   OH272268   0.563   1.477   5.054 -0.6283 -0.2768  0.5411
16926TIP3    H172269   0.648   1.455   5.094  1.6401  0.5758 -3.5538
16926TIP3    H272270   0.522   1.392   5.037  0.1545 -0.7542  1.0045
16927TIP3   OH272271   5.252   1.596  16.209  0.1214 -0.2742 -0.0888
16927TIP3    H172272   5.337   1.558  16.187  0.3425  0.3972 -0.3902
16927TIP3    H272273   5.269   1.652  16.284 -0.1411 -0.4917  0.1388
16928TIP3   OH272274   1.811   1.732   5.586 -0.1485 -0.4178  0.3183
16928TIP3    H172275   1.774   1.645   5.599  2.8020 -1.7659  0.1204
16928TIP3    H272276   1.871   1.744   5.659  1.2011  0.4542 -0.9048
16929TIP3   OH272277   3.005   2.375  16.125  0.0070  0.2495  0.5577
16929TIP3    H172278   3.049   2.445  16.077 -0.7926 -0.4278 -1.1947
16929TIP3    H272279   2.919   2.410  16.146 -0.4013 -0.2194 -0.3394
16930TIP3   OH272280   2.960   5.219   3.928  0.2510  0.0026 -0.0350
16930TIP3    H172281   3.054   5.220   3.950  0.1836 -1.7197  0.4002
16930TIP3    H272282   2.921   5.281   3.989  1.1962  1.1928 -0.6232
16931TIP3   OH272283   1.173   0.299   3.608 -0.1667  0.0220  0.8724
16931TIP3    H172284   1.242   0.233   3.603 -0.1531  0.0696  0.4152
16931TIP3    H272285   1.097   0.258   3.566 -1.0219 -0.7873  3.1612
16932TIP3   OH272286   0.007   3.113  14.905  0.3005  0.0803 -0.1034
16932TIP3    H172287  -0.039   3.196  14.894 -0.2498 -0.2442 -0.2229
16932TIP3    H272288   0.004   3.072  14.819  0.2038 -0.2577  0.0617
16933TIP3   OH272289   3.039   2.213  16.800 -0.1003 -0.0791 -0.2583
16933TIP3    H172290   3.072   2.213  16.890  1.5885 -2.3841 -0.8212
16933TIP3    H272291   2.945   2.196  16.808  0.2377 -1.3905  1.0316
16934TIP3   OH272292   0.323   4.220   3.441 -0.1492  0.1501 -0.2995
16934TIP3    H172293   0.360   4.308   3.429  2.0389 -0.9784 -2.1005
16934TIP3    H272294   0.263   4.230   3.515  0.1031  3.1445 -0.4203
16935TIP3   OH272295   5.355   1.635  10.822  0.4329  0.0502 -0.4201
16935TIP3    H172296   5.408   1.558  10.799 -1.6825 -1.3600 -0.7268
16935TIP3    H272297   5.365   1.643  10.916  2.4036  0.7499 -0.6537
16936TIP3   OH272298   4.755   3.901  16.453  0.2769 -0.2137 -0.0696
16936TIP3    H172299   4.817   3.966  16.420 -0.0932 -0.5153 -1.4197
16936TIP3    H272300   4.670   3.944  16.447  0.3375  0.1909  1.7553
16937TIP3   OH272301   1.464   6.558  14.227 -0.4329  0.7783  0.0333
16937TIP3    H172302   1.521   6.599  14.162  2.6374 -0.1917  2.0402
16937TIP3    H272303   1.427   6.631  14.276 -1.9383  1.4659 -2.0407
16938TIP3   OH272304   5.500   5.160   1.315 -0.0233 -0.2986 -0.7632
16938TIP3    H172305   5.593   5.135   1.308  0.3191  0.7982 -0.1576
16938TIP3    H272306   5.480   5.152   1.408 -0.4986 -0.3767 -0.8712
16939TIP3   OH272307   0.299   2.676   1.226 -1.0584  0.3498  0.0497
16939TIP3    H172308   0.211   2.658   1.258 -0.5357  0.5379  1.6143
16939TIP3    H272309   0.328   2.753   1.276  0.5169 -0.5324  0.5418
16940TIP3   OH272310   5.474   2.666   0.800 -0.3074  0.7315  0.3301
16940TIP3    H172311   5.471   2.757   0.829 -1.7364  0.4081  1.2288
16940TIP3    H272312   5.383   2.644   0.779 -0.3738 -1.2799  2.5883
16941TIP3   OH272313   2.500   3.059   2.442 -0.3940 -0.4748  1.0170
16941TIP3    H172314   2.422   3.107   2.415  0.2554  0.4308  0.6830
16941TIP3    H272315   2.518   3.000   2.369 -1.2889 -1.3425  1.4979
16942TIP3   OH272316   3.162   2.962  12.624 -0.1871  0.2322 -0.5686
16942TIP3    H172317   3.137   2.952  12.716  0.0166  1.7251 -0.3335
16942TIP3    H272318   3.088   2.926  12.575 -0.6264  0.1096  0.1790
16943TIP3   OH272319   2.868   6.301  11.807  0.8921 -0.2605 -0.1711
16943TIP3    H172320   2.824   6.367  11.861 -0.8570 -0.6440 -1.0798
16943TIP3    H272321   2.940   6.348  11.765 -0.0722  0.9536 -0.4670
16944TIP3   OH272322   0.253   3.188  12.967 -0.0238 -0.0506 -0.0028
16944TIP3    H172323   0.158   3.195  12.969 -0.2179 -2.2250 -0.2479
16944TIP3    H272324   0.274   3.125  13.036  1.0471 -1.2545 -1.3853
16945TIP3   OH272325   1.907   4.433   3.176 -0.1520  0.3089  0.1056
16945TIP3    H172326   1.864   4.457   3.093  1.1361  1.2476 -0.3034
16945TIP3    H272327   2.000   4.450   3.161  0.4314 -2.0219  0.8798
16946TIP3   OH272328   3.499   0.993  16.089 -0.0509 -0.3116 -0.8559
16946TIP3    H172329   3.541   1.034  16.014  0.4573 -0.4123 -0.6277
16946TIP3    H272330   3.510   1.056  16.160 -0.6102 -0.1778 -0.8898
16947TIP3   OH272331   0.764   6.235   3.205  0.0761  0.3870  0.6597
16947TIP3    H172332   0.764   6.143   3.231  0.7979  0.2676  0.2496
16947TIP3    H272333   0.677   6.249   3.168  0.2842 -0.3830 -0.1494
16948TIP3   OH272334   4.401   2.816   5.431  0.1749 -0.0179 -0.4726
16948TIP3    H172335   4.309   2.835   5.413 -0.0416 -1.7956 -1.3742
16948TIP3    H272336   4.450   2.864   5.365 -0.2112 -0.4506 -1.0780
16949TIP3   OH272337   1.493   4.553   2.841 -0.1644  0.6997 -0.4448
16949TIP3    H172338   1.516   4.469   2.880 -1.0079  1.0588  0.8519
16949TIP3    H272339   1.399   4.563   2.859  0.0210  2.1005 -0.2316
16950TIP3   OH272340   2.454   3.315  14.784 -0.5175  0.3881 -0.1957
16950TIP3    H172341   2.492   3.401  14.804 -1.3534  0.9715 -1.1210
16950TIP3    H272342   2.471   3.303  14.691  0.1273 -0.7296  0.0570
16951TIP3   OH272343   5.149   0.122  12.352 -0.2226 -0.1597 -0.4560
16951TIP3    H172344   5.114   0.188  12.413 -0.5215 -2.2199  1.6870
16951TIP3    H272345   5.243   0.136  12.353 -0.3662  0.9017 -0.8370
16952TIP3   OH272346   2.883   5.211   6.502  0.7298  0.1461  0.1443
16952TIP3    H172347   2.881   5.125   6.545 -0.2277  0.1756  0.1709
16952TIP3    H272348   2.792   5.241   6.504  0.8746  0.6829 -0.8196
16953TIP3   OH272349   6.350   1.969  16.811  0.6316 -0.0127 -0.2005
16953TIP3    H172350   6.422   2.024  16.843 -0.5300  1.5352 -0.2106
16953TIP3    H272351   6.354   1.977  16.716  0.7376 -0.3113 -0.2229
16954TIP3   OH272352   1.768   6.751   4.480 -0.0585  0.0301  0.2328
16954TIP3    H172353   1.768   6.684   4.411  0.0560 -0.0168  0.2774
16954TIP3    H272354   1.676   6.762   4.503 -0.1105  0.1449 -0.0233
16955TIP3   OH272355   2.628   0.410  13.361  0.1269 -0.1209 -0.5804
16955TIP3    H172356   2.662   0.324  13.333 -1.1789 -1.4231  1.6876
16955TIP3    H272357   2.647   0.414  13.454  0.9435  2.4782 -0.8352
16956TIP3   OH272358   2.679   1.218   4.548  0.0015 -0.1957  0.8234
16956TIP3    H172359   2.694   1.123   4.552  0.9785 -0.1617 -1.1522
16956TIP3    H272360   2.613   1.229   4.480 -2.3151  0.3647  3.0868
16957TIP3   OH272361   6.097   4.013   4.433  0.1891  0.1325 -0.3453
16957TIP3    H172362   6.140   3.952   4.373 -3.4506 -2.8709 -0.0954
16957TIP3    H272363   6.058   4.080   4.376  2.7847  1.3493 -0.7436
16958TIP3   OH272364   1.910   1.748  13.942  0.0033 -0.5008 -0.0871
16958TIP3    H172365   1.928   1.661  13.907  0.7381 -1.1970  1.9730
16958TIP3    H272366   1.956   1.807  13.883 -0.2391 -1.5091 -1.3210
16959TIP3   OH272367   2.466   0.135  13.788 -0.2103 -0.3473 -0.2506
16959TIP3    H172368   2.381   0.113  13.751 -0.5014 -0.1973  0.3138
16959TIP3    H272369   2.463   0.229  13.802  0.2102 -0.2754 -0.6212
16960TIP3   OH272370   6.814   5.835  11.265  0.0791  0.4093 -0.1134
16960TIP3    H172371   6.728   5.844  11.224  1.2260  1.4061 -2.3828
16960TIP3    H272372   6.869   5.900  11.221  1.7812  0.4297  1.9334
16961TIP3   OH272373   0.747   0.361   3.436  0.0255  0.2027  0.5828
16961TIP3    H172374   0.793   0.289   3.393  3.1405  2.4958 -0.0922
16961TIP3    H272375   0.784   0.363   3.525 -0.7482  0.3767  0.9081
16962TIP3   OH272376   4.847   5.648  12.897 -0.2081 -0.1088 -0.3160
16962TIP3    H172377   4.843   5.702  12.819 -0.9556 -1.3487 -1.1403
16962TIP3    H272378   4.940   5.629  12.908  0.3575  3.1605  1.2776
16963TIP3   OH272379   1.999   4.348  15.054  0.5978 -0.3602 -0.4826
16963TIP3    H172380   2.001   4.260  15.093  1.1138  0.4506  1.3608
16963TIP3    H272381   1.957   4.335  14.969 -2.5895 -1.8759  1.2022
16964TIP3   OH272382   3.420   3.502  11.391 -0.5517  0.6109  0.6170
16964TIP3    H172383   3.382   3.416  11.380  1.0091 -0.3024  1.9967
16964TIP3    H272384   3.514   3.486  11.398  0.1389  2.7894 -2.7032
16965TIP3   OH272385   1.461   0.666  13.043 -0.3324 -0.3928 -0.0628
16965TIP3    H172386   1.535   0.712  13.083 -0.0112  0.0743 -1.1674
16965TIP3    H272387   1.443   0.715  12.963 -1.1062 -1.1782 -0.3769
16966TIP3   OH272388   1.876   1.320   5.529 -0.3682  0.2945 -0.4510
16966TIP3    H172389   1.829   1.342   5.449 -1.1221  0.7409  0.1166
16966TIP3    H272390   1.812   1.332   5.599  0.9997  2.3437  0.4800
16967TIP3   OH272391   2.021   5.522   0.395 -0.1767 -0.1067  0.2545
16967TIP3    H172392   2.110   5.554   0.384 -0.3124 -0.2033 -1.1870
16967TIP3    H272393   2.025   5.462   0.469  0.9554 -0.1321  0.1703
16968TIP3   OH272394   3.984   0.792  12.381  0.3669 -0.6919  0.1956
16968TIP3    H172395   4.077   0.814  12.382  0.3305 -0.5518  1.1280
16968TIP3    H272396   3.966   0.760  12.469 -0.6007 -0.1497  0.2036
16969TIP3   OH272397   5.034   1.377  10.788 -0.6082  0.3763 -0.5893
16969TIP3    H172398   5.068   1.457  10.748  0.1772  0.4909  0.2890
16969TIP3    H272399   5.112   1.322  10.800 -1.1041 -0.4189 -0.9493
16970TIP3   OH272400   3.387   0.273  11.537  0.3150  0.6828  0.1735
16970TIP3    H172401   3.323   0.213  11.497  0.5338  0.7956 -0.3526
16970TIP3    H272402   3.347   0.298  11.620  0.1431 -0.0696  0.3304
16971TIP3   OH272403   2.781   1.234  16.178  0.1689  0.1610  0.2866
16971TIP3    H172404   2.781   1.173  16.251 -0.8039  1.5912  1.5162
16971TIP3    H272405   2.873   1.256  16.164  0.3821 -0.3320  0.9068
16972TIP3   OH272406   6.476   3.382  16.073  0.4465  0.0528 -0.4870
16972TIP3    H172407   6.517   3.456  16.027 -1.3536  1.6050  0.3674
16972TIP3    H272408   6.417   3.423  16.136 -0.1439 -2.1276  0.3994
16973TIP3   OH272409   6.186   0.580   2.371 -0.0844 -0.1655  0.3828
16973TIP3    H172410   6.192   0.593   2.465  1.3774  0.8631  0.1590
16973TIP3    H272411   6.119   0.641   2.342 -0.9046 -0.8489  0.8154
16974TIP3   OH272412   4.230   4.485  16.828  0.2738 -0.4546 -0.2375
16974TIP3    H172413   4.202   4.570  16.793 -0.6973 -0.5282  0.3538
16974TIP3    H272414   4.253   4.503  16.919  2.1444 -0.4010 -0.7066
16975TIP3   OH272415   4.734   0.542  16.576  0.2448  0.1800 -0.0389
16975TIP3    H172416   4.673   0.472  16.600 -0.9603  1.4860  0.8083
16975TIP3    H272417   4.799   0.543  16.646  0.0235  0.1663  0.1693
16976TIP3   OH272418   4.881   3.569   2.972 -0.1664  0.6975 -0.0113
16976TIP3    H172419   4.879   3.661   2.999  1.3591  1.2650 -1.7086
16976TIP3    H272420   4.799   3.556   2.925  0.0803  1.5095 -0.6877
16977TIP3   OH272421   5.384   2.789  12.752 -0.0939 -0.5423 -0.1979
16977TIP3    H172422   5.336   2.816  12.830 -0.0074 -1.1348  0.0683
16977TIP3    H272423   5.437   2.865  12.728 -0.0937 -0.3703  0.3440
16978TIP3   OH272424   6.381   2.341  16.506  0.2792 -0.6920  0.8264
16978TIP3    H172425   6.372   2.425  16.461  0.6937  1.2595  4.1988
16978TIP3    H272426   6.295   2.299  16.497  0.5423 -0.7267 -2.2737
16979TIP3   OH272427   4.158   1.069  12.434  0.4243 -0.3791  0.4989
16979TIP3    H172428   4.185   0.991  12.483  2.3077 -0.1873 -0.2044
16979TIP3    H272429   4.221   1.076  12.363 -0.4238  1.1447 -0.1261
16980TIP3   OH272430   1.335   3.240   1.393  0.1947 -0.3786  0.6507
16980TIP3    H172431   1.343   3.199   1.307  1.6972 -0.1792  0.6853
16980TIP3    H272432   1.417   3.287   1.405 -1.4796  2.7456  0.5549
16981TIP3   OH272433   5.803   4.120   2.573  0.1056  0.4161 -0.1258
16981TIP3    H172434   5.801   4.130   2.668  0.9133 -0.4100 -0.0138
16981TIP3    H272435   5.867   4.186   2.543  2.0939 -1.2926  0.2006
16982TIP3   OH272436   6.644   4.496  10.349 -0.0790  0.1073  0.1040
16982TIP3    H172437   6.602   4.540  10.276 -1.9836  3.0015  2.8210
16982TIP3    H272438   6.572   4.455  10.397  1.0300 -0.8489  0.9830
16983TIP3   OH272439   2.725   4.669  15.717  0.0584 -0.4203 -0.4295
16983TIP3    H172440   2.663   4.691  15.647  1.5850 -0.9512 -1.9782
16983TIP3    H272441   2.670   4.636  15.788 -1.5050 -0.0477 -1.4397
16984TIP3   OH272442   6.123   1.255  16.512 -0.2142 -0.1675  0.5332
16984TIP3    H172443   6.076   1.336  16.531  0.9615  0.6363  0.0241
16984TIP3    H272444   6.053   1.191  16.494 -1.1240  1.1017 -0.5783
16985TIP3   OH272445   1.732   5.348   0.393 -0.3314 -0.0533 -0.1120
16985TIP3    H172446   1.641   5.377   0.396 -0.5803 -0.6870 -1.2874
16985TIP3    H272447   1.781   5.424   0.361 -0.4385  0.2811  0.5079
16986TIP3   OH272448   5.268   4.233   0.189  0.2869  0.5541  0.3857
16986TIP3    H172449   5.253   4.242   0.095 -0.5527  2.6620  0.6972
16986TIP3    H272450   5.356   4.195   0.195 -0.3697 -1.2953 -1.2649
16987TIP3   OH272451   6.746   3.160  14.322  0.0399 -0.4059  0.3827
16987TIP3    H172452   6.727   3.239  14.271  0.2339 -1.1549 -0.8660
16987TIP3    H272453   6.662   3.113  14.324  0.4860 -1.2528 -0.7890
16988TIP3   OH272454   6.677   5.503   3.209  0.5157  0.6833  0.2388
16988TIP3    H172455   6.660   5.457   3.127  0.6188  1.1554 -0.0506
16988TIP3    H272456   6.721   5.439   3.264  1.3308  0.6663 -0.4277
16989TIP3   OH272457   3.293   3.997  11.839  0.3419  0.0859  0.3091
16989TIP3    H172458   3.303   4.000  11.744  2.0151  0.2619  0.4731
16989TIP3    H272459   3.305   4.088  11.867  1.5086 -0.2183  0.8308
16990TIP3   OH272460   5.065   2.859   3.872  0.3145 -0.0205 -0.7931
16990TIP3    H172461   5.001   2.831   3.937  2.2232 -0.3972  0.9604
16990TIP3    H272462   5.015   2.914   3.811 -2.0602 -1.8621 -0.5698
16991TIP3   OH272463   2.932   1.835  13.266 -0.1562 -0.0005  0.4295
16991TIP3    H172464   2.840   1.847  13.290  0.3202  1.1867  1.6968
16991TIP3    H272465   2.937   1.865  13.175 -1.1955 -0.9093  0.0567
16992TIP3   OH272466   6.013   6.728  16.627  0.6067  0.0294  0.8122
16992TIP3    H172467   6.094   6.704  16.582  0.0367 -0.4022 -0.0064
16992TIP3    H272468   6.031   6.711  16.720  1.2232 -0.7247  0.5668
16993TIP3   OH272469   1.875   5.301   4.812  0.4350 -0.0051 -0.2306
16993TIP3    H172470   1.893   5.359   4.885 -0.7923  0.4014 -0.2392
16993TIP3    H272471   1.919   5.342   4.737 -0.5133  0.9879 -0.2613
16994TIP3   OH272472   0.334   0.973  16.023 -0.1714  0.3937 -0.4015
16994TIP3    H172473   0.302   1.046  15.969 -1.7870 -1.6351 -2.2821
16994TIP3    H272474   0.381   0.917  15.962  0.6346 -0.4135  0.9415
16995TIP3   OH272475   2.226   0.870  16.065  0.1647  0.9783 -0.0223
16995TIP3    H172476   2.257   0.858  16.155 -1.1496  0.1781  0.3300
16995TIP3    H272477   2.220   0.781  16.030 -1.9273  1.1106 -0.0230
16996TIP3   OH272478   4.277   0.232   2.827  0.4592  0.8702 -0.4719
16996TIP3    H172479   4.271   0.228   2.922  0.0018  1.3755 -0.4779
16996TIP3    H272480   4.204   0.179   2.795  0.6275  0.6783 -0.5427
16997TIP3   OH272481   2.005   5.159   2.227 -0.0950 -0.4521  0.8707
16997TIP3    H172482   1.929   5.103   2.239 -0.5043  0.0182  0.4481
16997TIP3    H272483   1.971   5.248   2.229  0.0310 -0.2794 -2.1384
16998TIP3   OH272484   2.650   2.364   2.021 -0.0302 -0.3574  0.3812
16998TIP3    H172485   2.566   2.327   2.049 -1.4066  1.4491 -1.2104
16998TIP3    H272486   2.665   2.326   1.935 -0.8375  1.7950 -0.7247
16999TIP3   OH272487   4.522   5.365  11.821  0.6544 -0.1576  0.0313
16999TIP3    H172488   4.565   5.420  11.755  2.6412 -0.2761  1.2158
16999TIP3    H272489   4.567   5.281  11.816  0.5977 -0.2697  1.3213
17000TIP3   OH272490   1.794   6.207  14.757  1.1093  0.3725 -0.3851
17000TIP3    H172491   1.768   6.265  14.829 -0.9658  0.0533 -0.8518
17000TIP3    H272492   1.752   6.123  14.777 -0.3023  0.5524 -2.4615
17001TIP3   OH272493   4.568   1.577   5.007 -0.3546 -0.4771  0.0072
17001TIP3    H172494   4.507   1.569   5.080 -2.2194  0.8880 -1.3545
17001TIP3    H272495   4.546   1.504   4.949  0.1649 -0.7353  0.1373
17002TIP3   OH272496   3.237   5.485  14.246  0.4844 -0.8335  0.3714
17002TIP3    H172497   3.218   5.439  14.164 -0.8274 -1.2473  0.9022
17002TIP3    H272498   3.306   5.548  14.222 -0.6556 -0.1948 -1.3101
17003TIP3   OH272499   5.690   4.174   4.770 -0.5955  0.3098 -0.2010
17003TIP3    H172500   5.628   4.243   4.792  0.6052  1.3549 -0.0186
17003TIP3    H272501   5.761   4.218   4.724  0.4020 -0.7218  0.2948
17004TIP3   OH272502   2.977   1.995  14.797 -0.3443  0.5736  0.2771
17004TIP3    H172503   3.020   1.996  14.711  0.4559  1.4728  0.6823
17004TIP3    H272504   2.914   1.922  14.791  0.4945 -0.0876 -0.6790
17005TIP3   OH272505   4.300   5.570   5.397  0.2429  0.5201 -0.1764
17005TIP3    H172506   4.375   5.628   5.387  1.0601 -0.3735  0.6617
17005TIP3    H272507   4.249   5.607   5.468  1.8432 -0.8917  1.7559
17006TIP3   OH272508   5.148   3.128   0.037 -0.1334 -0.1106  0.2806
17006TIP3    H172509   5.061   3.159   0.062 -0.1315  1.3374 -1.4027
17006TIP3    H272510   5.172   3.181  -0.039  1.6208 -1.4713 -0.1658
17007TIP3   OH272511   0.200   0.667  12.044  0.6514 -0.1259  0.4711
17007TIP3    H172512   0.157   0.703  12.122 -0.6993 -1.4731  0.3797
17007TIP3    H272513   0.241   0.586  12.075  0.1053 -0.6673 -0.2053
17008TIP3   OH272514   0.871   4.333  14.530  0.8706  0.3393  0.4055
17008TIP3    H172515   0.921   4.258  14.498 -2.7514 -2.2147  0.4977
17008TIP3    H272516   0.838   4.375  14.450 -0.2121 -0.3789  0.4746
17009TIP3   OH272517   0.919   0.327   5.893  0.1245 -0.1842 -0.0416
17009TIP3    H172518   0.852   0.350   5.957  2.9225  3.8057  1.6829
17009TIP3    H272519   0.958   0.247   5.927 -2.5506 -1.6380 -0.2162
17010TIP3   OH272520   3.374   0.504   1.375 -0.0629  0.0918  0.2048
17010TIP3    H172521   3.405   0.584   1.332  2.0193  0.0909  1.6559
17010TIP3    H272522   3.435   0.436   1.347 -1.8528 -1.0598 -1.0627
17011TIP3   OH272523   5.838   3.781  15.939  0.4378  0.3111 -0.3435
17011TIP3    H172524   5.766   3.828  15.982 -0.2958  0.7082 -1.9480
17011TIP3    H272525   5.911   3.843  15.941  0.1620  0.6457 -0.3912
17012TIP3   OH272526   4.315   2.225  14.299  0.4854  0.1898  0.2112
17012TIP3    H172527   4.343   2.232  14.391 -1.4641  0.0107  0.8348
17012TIP3    H272528   4.300   2.132  14.285 -0.1879  0.3249  0.0101
17013TIP3   OH272529   6.532   5.284   2.221  0.1476  0.1132  0.0438
17013TIP3    H172530   6.462   5.291   2.156  0.3818  0.4532 -0.1738
17013TIP3    H272531   6.499   5.333   2.297  0.2935  0.5685 -0.1842
17014TIP3   OH272532   1.004   3.791  17.240  0.0893 -0.3619  0.7520
17014TIP3    H172533   1.062   3.866  17.249 -2.0815  1.8534 -2.4421
17014TIP3    H272534   0.942   3.800  17.312 -0.9305  1.7117 -0.3435
17015TIP3   OH272535   2.673   6.715  17.272  0.2301  0.0778 -0.4947
17015TIP3    H172536   2.761   6.686  17.295  0.2843  1.2325  0.8532
17015TIP3    H272537   2.687   6.783  17.205  0.3392  0.0503 -0.4995
17016TIP3   OH272538   6.780   3.001  11.388 -0.3272 -0.1220  0.3470
17016TIP3    H172539   6.802   2.910  11.409  0.8356  0.1889  0.5195
17016TIP3    H272540   6.771   3.043  11.473  1.6361  0.4969  0.2732
17017TIP3   OH272541   4.563   2.517  17.230  0.1820 -0.9705  0.0212
17017TIP3    H172542   4.475   2.511  17.267  0.6194  0.5754  1.3306
17017TIP3    H272543   4.603   2.432  17.252 -1.1520 -1.9068 -1.0813
17018TIP3   OH272544   5.785   4.664  13.083 -0.2746  0.3123 -0.3818
17018TIP3    H172545   5.694   4.634  13.079  0.3713 -1.9270  0.7873
17018TIP3    H272546   5.818   4.651  12.994 -0.1198 -2.2612  0.0008
17019TIP3   OH272547   2.063   2.107   0.791  0.1389 -0.3218 -0.3719
17019TIP3    H172548   2.038   2.174   0.727 -2.8287 -2.8501 -2.0298
17019TIP3    H272549   2.147   2.074   0.760  1.0856  1.8169 -0.1688
17020TIP3   OH272550   5.907   4.845  15.192  0.8691  0.4799  0.2776
17020TIP3    H172551   5.855   4.867  15.115 -0.1928 -1.0631  0.5382
17020TIP3    H272552   5.868   4.898  15.262  0.3680  0.1935  0.2230
17021TIP3   OH272553   5.806   2.045   2.727 -0.8439  0.1043 -0.6564
17021TIP3    H172554   5.833   1.953   2.732  2.1565  0.8627 -2.2189
17021TIP3    H272555   5.788   2.069   2.818 -0.0997 -1.5570 -0.0370
17022TIP3   OH272556   3.003   1.081   5.912  0.3115 -0.4523 -0.2130
17022TIP3    H172557   3.003   1.040   5.825  1.2061 -0.3718 -0.2597
17022TIP3    H272558   2.954   1.020   5.967 -1.1743  0.0141 -1.0009
17023TIP3   OH272559   1.345   5.422  14.130  0.2821  0.0093  0.1753
17023TIP3    H172560   1.385   5.507  14.108  3.4925 -1.1604  1.1052
17023TIP3    H272561   1.391   5.360  14.074  0.1413 -1.4812  1.6766
17024TIP3   OH272562   5.133   2.038   0.962 -0.7554  0.4783  0.0307
17024TIP3    H172563   5.120   2.068   1.052  0.1530 -0.0417  0.3360
17024TIP3    H272564   5.046   2.010   0.934 -0.7551 -0.8107  1.2786
17025TIP3   OH272565   4.353   2.556  16.444  0.1373  0.1372 -0.2087
17025TIP3    H172566   4.338   2.595  16.529  1.7821  0.0483  0.1459
17025TIP3    H272567   4.439   2.514  16.452  0.4334  0.3748 -1.9906
17026TIP3   OH272568   5.508   5.866   1.615 -0.3357 -0.3708 -0.2135
17026TIP3    H172569   5.599   5.896   1.613 -0.8412  1.3246  0.9522
17026TIP3    H272570   5.506   5.792   1.555  1.7953 -0.3667 -0.3360
17027TIP3   OH272571   4.712   3.126  14.837 -0.0154  0.8952  0.8330
17027TIP3    H172572   4.684   3.201  14.785  2.9727 -0.0175 -2.3458
17027TIP3    H272573   4.717   3.054  14.774  0.9010 -1.0135  2.9913
17028TIP3   OH272574   1.249   2.542   4.507  0.0834  0.3001 -0.4076
17028TIP3    H172575   1.194   2.466   4.492 -0.8222  0.8296  0.1835
17028TIP3    H272576   1.297   2.523   4.588 -0.4688  0.5373 -0.0214
17029TIP3   OH272577   5.202   1.753   2.677 -0.2058  0.7364 -0.5101
17029TIP3    H172578   5.134   1.817   2.658  0.5528  1.4389 -0.8870
17029TIP3    H272579   5.284   1.800   2.661  0.4099  0.5412  1.9715
17030TIP3   OH272580   3.154   6.369  10.946 -0.3790  0.0046 -0.6549
17030TIP3    H172581   3.208   6.445  10.925  1.2844 -1.4596 -1.7790
17030TIP3    H272582   3.091   6.402  11.010  0.5862  2.2180 -0.7921
17031TIP3   OH272583   2.949   4.831  11.952 -0.3107 -0.0768 -0.0476
17031TIP3    H172584   2.893   4.900  11.987 -1.2082 -1.8483  2.1025
17031TIP3    H272585   2.965   4.857  11.861 -0.8674  2.7904  0.6172
17032TIP3   OH272586   5.082   0.964  13.835  0.2215  0.0247  0.3183
17032TIP3    H172587   5.122   1.004  13.758  1.5023 -0.5429  0.6750
17032TIP3    H272588   4.991   0.994  13.833  0.8687  2.0512 -0.0349
17033TIP3   OH272589   3.169   4.850  16.854  0.6530 -0.2343 -0.4899
17033TIP3    H172590   3.140   4.909  16.924 -1.5000 -2.5404  0.6804
17033TIP3    H272591   3.193   4.907  16.782  0.3334  2.1115  1.2052
17034TIP3   OH272592   3.272   2.765   5.547  0.7863 -0.6669  0.3109
17034TIP3    H172593   3.250   2.784   5.638  0.7721  0.1920  0.1379
17034TIP3    H272594   3.324   2.840   5.519 -2.2165  0.8549 -1.4408
17035TIP3   OH272595   6.753   5.851  13.784 -0.4630 -0.0812 -0.6600
17035TIP3    H172596   6.810   5.782  13.818 -0.0982  0.1050 -0.8882
17035TIP3    H272597   6.676   5.805  13.751 -0.6599 -0.2934  0.0834
17036TIP3   OH272598   1.131   6.152   2.171 -0.1113  0.3636  0.3669
17036TIP3    H172599   1.094   6.116   2.252 -1.2572 -1.1813 -0.8187
17036TIP3    H272600   1.205   6.095   2.152 -0.2684  0.2972 -0.0471
17037TIP3   OH272601   0.837   3.835  15.325 -0.1740  0.2337 -0.1401
17037TIP3    H172602   0.837   3.927  15.354  1.4481  0.9559 -2.3039
17037TIP3    H272603   0.749   3.823  15.288 -0.4114  0.9041  0.1821
17038TIP3   OH272604   1.025   1.191   5.092 -0.0053 -0.1965  0.3448
17038TIP3    H172605   1.002   1.198   5.000 -0.6344 -2.2261  0.3301
17038TIP3    H272606   1.085   1.117   5.096 -0.6160 -0.6321  1.6832
17039TIP3   OH272607   0.753   6.364   4.427 -0.3451 -0.0335 -0.6431
17039TIP3    H172608   0.777   6.279   4.464 -1.4748 -0.2055 -0.2618
17039TIP3    H272609   0.689   6.343   4.359 -1.9469  0.6154  0.6343
17040TIP3   OH272610   3.413   6.164  15.988  0.3406  0.5715 -0.1404
17040TIP3    H172611   3.508   6.177  15.990  0.4175 -0.0916  0.6919
17040TIP3    H272612   3.398   6.090  16.046 -0.6040  0.0950 -0.9938
17041TIP3   OH272613   3.295   2.181  13.523 -0.1735  0.1651  0.7694
17041TIP3    H172614   3.318   2.213  13.610  1.2075 -0.8257  0.7932
17041TIP3    H272615   3.378   2.149  13.487 -0.7890  0.3481 -0.8072
17042TIP3   OH272616   0.798   0.042   6.264  0.2081  0.3345 -0.4579
17042TIP3    H172617   0.742  -0.005   6.326  1.4672 -0.0639  0.3779
17042TIP3    H272618   0.857   0.094   6.319  0.1973  1.3173 -1.3455
17043TIP3   OH272619   2.951   4.016  11.317 -0.0979  0.2202 -0.0985
17043TIP3    H172620   2.891   3.951  11.278 -0.7375  1.3939 -1.1256
17043TIP3    H272621   2.904   4.048  11.394 -0.1032 -0.0095 -0.0062
17044TIP3   OH272622   1.291   2.960  16.729  0.1799 -0.3030  0.0635
17044TIP3    H172623   1.284   2.894  16.798  1.1009 -0.0870  0.3724
17044TIP3    H272624   1.310   2.911  16.650  1.4532 -0.3552  0.4047
17045TIP3   OH272625   0.644   1.179   5.656  0.6730 -0.4176 -0.2119
17045TIP3    H172626   0.582   1.108   5.673  1.8988 -1.3186  0.5963
17045TIP3    H272627   0.674   1.205   5.743  0.3455  1.0140 -0.5095
17046TIP3   OH272628   6.566   1.315   4.836  0.2458 -0.1627 -0.5086
17046TIP3    H172629   6.546   1.241   4.779  1.9637 -0.7771 -0.3280
17046TIP3    H272630   6.522   1.390   4.794 -0.3806 -1.0244 -1.4106
17047TIP3   OH272631   2.577   4.843   1.952 -0.4702  0.0389  0.0975
17047TIP3    H172632   2.540   4.930   1.967  2.0829  1.6636 -2.4667
17047TIP3    H272633   2.528   4.808   1.877  0.0209  0.2406 -0.3219
17048TIP3   OH272634   4.760   4.537  10.523  0.7212 -0.6879 -0.2798
17048TIP3    H172635   4.676   4.542  10.477  0.5963  0.7609  0.0718
17048TIP3    H272636   4.826   4.538  10.453  0.4795 -0.7491 -0.5087
17049TIP3   OH272637   2.662   4.726  12.976 -0.2130 -0.0054 -0.0130
17049TIP3    H172638   2.621   4.776  12.905 -0.0537 -1.0004 -0.8222
17049TIP3    H272639   2.710   4.657  12.931 -1.1222 -1.4007  1.1271
17050TIP3   OH272640   3.438   1.600   3.755 -0.3762 -0.2744  0.9681
17050TIP3    H172641   3.507   1.666   3.761 -0.1994 -0.1469 -1.9509
17050TIP3    H272642   3.484   1.519   3.731 -1.2204 -0.1408 -1.2098
17051TIP3   OH272643   5.952   0.573  14.092 -0.2095 -0.3879 -0.7652
17051TIP3    H172644   5.932   0.479  14.086 -1.2662 -0.3036  1.1615
17051TIP3    H272645   6.046   0.578  14.077 -0.2608 -1.6871 -1.6051
17052TIP3   OH272646   2.208   2.421  15.358  0.0810  0.6543  0.5132
17052TIP3    H172647   2.173   2.505  15.331  0.0815  0.4192 -0.2380
17052TIP3    H272648   2.301   2.437  15.374  0.3191  0.5466 -0.7463
17053TIP3   OH272649   1.825   3.624   5.189 -0.3524  0.4352  0.0676
17053TIP3    H172650   1.850   3.618   5.281  0.2012  0.1495 -0.0984
17053TIP3    H272651   1.778   3.706   5.182 -1.9453 -0.3796  0.9710
17054TIP3   OH272652   6.467   2.669   4.987  0.2307  0.7192  0.1540
17054TIP3    H172653   6.437   2.725   5.058 -1.1130  0.0276  0.1398
17054TIP3    H272654   6.416   2.697   4.911 -1.1956 -1.1750  0.3744
17055TIP3   OH272655   5.173   0.219  16.763  0.5424  0.5338 -0.3391
17055TIP3    H172656   5.086   0.212  16.725  0.8957 -1.3321 -0.8628
17055TIP3    H272657   5.224   0.268  16.698  0.5695 -0.7261 -1.2886
17056TIP3   OH272658   3.279   3.696   0.160 -0.7742 -0.0947  0.2768
17056TIP3    H172659   3.326   3.700   0.243 -2.2459 -2.6795  1.2599
17056TIP3    H272660   3.341   3.655   0.099 -0.2152  0.4859  0.4492
17057TIP3   OH272661   1.349   1.879   2.514 -0.2204  0.0525 -0.2913
17057TIP3    H172662   1.437   1.854   2.485 -0.2110  0.2131 -0.4026
17057TIP3    H272663   1.365   1.930   2.594 -0.1928  0.3326 -0.4734
17058TIP3   OH272664   3.964   1.150   3.511  0.9514 -0.2037 -0.9456
17058TIP3    H172665   4.034   1.100   3.470 -0.4577 -1.4686 -1.8576
17058TIP3    H272666   3.900   1.163   3.441  1.6683  3.6609 -0.9716
17059TIP3   OH272667   1.658   1.484   5.674  0.0883 -0.0447 -0.1394
17059TIP3    H172668   1.576   1.508   5.631  0.0963 -0.3481 -0.3282
17059TIP3    H272669   1.636   1.407   5.725  0.6455 -1.1642 -1.5413
17060TIP3   OH272670   5.901   3.192  13.149  0.0798 -0.2668 -0.4085
17060TIP3    H172671   5.844   3.157  13.217 -0.6753 -1.2488 -1.5342
17060TIP3    H272672   5.895   3.287  13.159 -0.2522 -0.3919  0.6901
17061TIP3   OH272673   3.656   5.829  14.664  0.3431  0.0866 -0.5403
17061TIP3    H172674   3.594   5.865  14.727 -0.3713 -2.1730  0.0916
17061TIP3    H272675   3.741   5.831  14.710 -0.1114 -1.2182  0.3949
17062TIP3   OH272676   1.073   6.810   2.299  0.6680  0.2020 -0.3333
17062TIP3    H172677   1.129   6.888   2.299 -1.9550  2.2146 -3.6958
17062TIP3    H272678   1.004   6.830   2.362  1.2482 -0.3970  0.5013
17063TIP3   OH272679   1.421   2.601  12.021  0.7689  0.6998 -0.0788
17063TIP3    H172680   1.342   2.651  12.000  0.3164 -0.7043 -1.7730
17063TIP3    H272681   1.488   2.635  11.962  0.8669  0.3638 -0.1620
17064TIP3   OH272682   5.214   0.237  12.752 -0.7314  0.2467  0.4151
17064TIP3    H172683   5.190   0.279  12.670 -0.7969 -1.4516 -0.4417
17064TIP3    H272684   5.308   0.219  12.745 -1.3043 -2.6171 -0.5599
17065TIP3   OH272685   2.360   1.584  13.858 -0.0686  0.5196 -0.0145
17065TIP3    H172686   2.421   1.512  13.842  1.5825  0.9669  3.7381
17065TIP3    H272687   2.302   1.551  13.928  1.4310  3.1113  2.5696
17066TIP3   OH272688   3.273   3.457   2.453  0.1639  0.4754  0.3733
17066TIP3    H172689   3.242   3.548   2.448  1.5391  0.9822  0.6929
17066TIP3    H272690   3.366   3.463   2.431  1.0037 -0.4162  3.4462
17067TIP3   OH272691   5.921   2.667   4.093  0.0246 -0.1192  0.2093
17067TIP3    H172692   5.856   2.633   4.032  0.0053 -0.6875  0.5445
17067TIP3    H272693   5.924   2.603   4.164  0.6991  0.0753  0.3672
17068TIP3   OH272694   3.587   6.224  13.841  0.3682  0.3275 -0.4224
17068TIP3    H172695   3.617   6.249  13.928  0.4867  0.1884 -0.4231
17068TIP3    H272696   3.666   6.204  13.793  0.4001  1.6590 -0.9609
17069TIP3   OH272697   4.294   2.212   6.145 -0.1499  0.0098  0.3014
17069TIP3    H172698   4.359   2.238   6.209 -0.3579  1.9109 -0.2211
17069TIP3    H272699   4.329   2.132   6.106  1.8335  0.9584  0.0808
17070TIP3   OH272700   5.815   6.545  12.880  0.3566  0.3757  0.5250
17070TIP3    H172701   5.818   6.640  12.889  0.7874  0.6582 -2.2243
17070TIP3    H272702   5.905   6.516  12.893  0.7223  0.6445 -1.2363
17071TIP3   OH272703   0.493   3.537  17.082  0.0963 -0.0096  0.4112
17071TIP3    H172704   0.518   3.488  17.160  1.4080  0.8349  0.5565
17071TIP3    H272705   0.431   3.481  17.036 -2.0300  0.2150  2.9230
17072TIP3   OH272706   5.459   4.531  13.371 -0.0390  0.1380 -0.3733
17072TIP3    H172707   5.482   4.537  13.464 -0.5159  1.1472 -0.3122
17072TIP3    H272708   5.389   4.467  13.367  0.6170 -0.6034 -0.1593
17073TIP3   OH272709   1.180   3.829  13.873  0.1554  0.4840  0.0168
17073TIP3    H172710   1.214   3.815  13.784  1.8495 -1.0560  0.8897
17073TIP3    H272711   1.241   3.892  13.912  1.9346 -2.0656  1.4853
17074TIP3   OH272712   1.150   3.577  13.987  0.3283  0.4176  0.4513
17074TIP3    H172713   1.182   3.614  14.069  0.3370  0.2672  0.5160
17074TIP3    H272714   1.134   3.654  13.931  1.7117  0.4359  0.0791
17075TIP3   OH272715   4.406   5.728  11.703  0.7374 -0.1828  0.3174
17075TIP3    H172716   4.461   5.682  11.639  3.1320 -0.2128  2.3176
17075TIP3    H272717   4.464   5.745  11.777 -1.9982 -0.3337  2.5999
17076TIP3   OH272718   0.444   3.196   5.453  0.1746 -0.4378 -0.5445
17076TIP3    H172719   0.479   3.153   5.375  0.9287 -1.0240  0.1016
17076TIP3    H272720   0.499   3.272   5.466  0.7497 -0.9421  0.0350
17077TIP3   OH272721   5.952   0.364  12.886  0.2696  0.0876  0.7329
17077TIP3    H172722   6.000   0.312  12.821 -1.5594  0.8961 -1.3149
17077TIP3    H272723   5.927   0.301  12.953  0.8046 -1.0761 -0.1463
17078TIP3   OH272724   6.266   5.577   1.137 -0.3788 -0.2962 -0.1523
17078TIP3    H172725   6.266   5.663   1.179  0.0967 -0.0520 -0.6480
17078TIP3    H272726   6.174   5.551   1.136 -0.1058 -1.9890  4.4774
17079TIP3   OH272727   3.047   0.701  11.108 -0.2226  0.6232  0.8471
17079TIP3    H172728   3.123   0.745  11.147 -0.9249  0.6094  2.2272
17079TIP3    H272729   3.025   0.755  11.031  1.2661  0.5431  0.3479
17080TIP3   OH272730   3.330   0.996  12.402 -0.0953 -0.0459  0.6379
17080TIP3    H172731   3.325   0.902  12.419  1.0713 -0.0694  0.9355
17080TIP3    H272732   3.318   1.036  12.489 -1.4702  0.1238  0.3836
17081TIP3   OH272733   1.858   3.961  12.353 -0.0837 -0.2015 -0.0527
17081TIP3    H172734   1.822   4.049  12.365  0.5338  0.2307 -1.2777
17081TIP3    H272735   1.843   3.941  12.260  0.4374 -1.0986  0.0463
17082TIP3   OH272736   0.263   0.298   3.887  0.2232 -0.1469 -0.1902
17082TIP3    H172737   0.251   0.371   3.947 -0.5305 -1.3678  1.1757
17082TIP3    H272738   0.267   0.221   3.943  1.4807 -1.1281 -1.5709
17083TIP3   OH272739   4.709   2.102   4.354  0.2785  0.6169 -0.3661
17083TIP3    H172740   4.655   2.026   4.373  1.7719  0.2585  2.7858
17083TIP3    H272741   4.671   2.172   4.407 -0.0766  1.6540 -1.9647
17084TIP3   OH272742   6.517   3.780   3.791 -0.0490 -0.4689  0.0245
17084TIP3    H172743   6.468   3.736   3.860  0.4043  0.7938  1.1649
17084TIP3    H272744   6.524   3.714   3.722 -0.5909 -1.7193  1.1292
17085TIP3   OH272745   6.084   6.048  15.859  0.3727  0.1269 -0.1077
17085TIP3    H172746   6.136   6.002  15.925  0.6930  0.8897  0.1723
17085TIP3    H272747   6.148   6.092  15.803  0.0572  0.3971 -0.2598
17086TIP3   OH272748   2.027   6.298  11.199 -0.6330 -0.2046  0.6653
17086TIP3    H172749   2.065   6.321  11.114 -2.5827  1.6241  0.2718
17086TIP3    H272750   1.932   6.298  11.185 -0.9829 -0.1702  2.7739
17087TIP3   OH272751   4.737   0.549  14.480 -0.5095  0.3035 -0.2982
17087TIP3    H172752   4.660   0.502  14.511 -0.6896  0.4251 -0.5552
17087TIP3    H272753   4.801   0.541  14.551 -0.7497  0.1777 -0.0953
17088TIP3   OH272754   2.992   1.163   0.594 -0.3609  0.1360 -0.2084
17088TIP3    H172755   2.962   1.116   0.671  2.0609  0.9518  1.2742
17088TIP3    H272756   3.069   1.211   0.623 -0.7538  2.3160 -2.5431
17089TIP3   OH272757   0.397   0.197  16.813 -0.1149 -0.5212 -0.4057
17089TIP3    H172758   0.377   0.126  16.874 -1.2957 -2.3139 -2.7556
17089TIP3    H272759   0.492   0.203  16.812 -0.0913 -0.4673  1.5763
17090TIP3   OH272760   5.123   5.932  12.210  0.2276 -0.2127  0.0096
17090TIP3    H172761   5.202   5.879  12.212 -0.3449 -1.1280 -0.8628
17090TIP3    H272762   5.073   5.898  12.135 -0.6905  0.7730  0.1544
17091TIP3   OH272763   3.036   1.488  15.557  0.8016 -0.0812  0.0283
17091TIP3    H172764   3.113   1.433  15.542  1.2255  0.7221 -0.7423
17091TIP3    H272765   3.070   1.570  15.592  0.1673 -0.2799  1.1428
17092TIP3   OH272766   1.533   2.453   1.697  0.2880  0.7542 -0.2507
17092TIP3    H172767   1.608   2.413   1.742 -0.1324  0.9477  0.6406
17092TIP3    H272768   1.567   2.478   1.611  1.6871  2.1822  0.6707
17093TIP3   OH272769   4.225   1.315  13.198  0.1835  0.2515 -0.6789
17093TIP3    H172770   4.131   1.328  13.191  0.2632  2.4146  1.8688
17093TIP3    H272771   4.241   1.300  13.291  2.3470 -0.4403 -1.1252
17094TIP3   OH272772   3.167   1.479   6.253 -0.2031  0.7212 -0.0653
17094TIP3    H172773   3.216   1.416   6.200  0.6964 -0.2573  1.8495
17094TIP3    H272774   3.087   1.432   6.278  0.9508 -0.1262  2.2445
17095TIP3   OH272775   0.802   5.740   2.719  0.1829 -0.9266 -0.0560
17095TIP3    H172776   0.711   5.746   2.692  0.4880 -1.7478 -1.3663
17095TIP3    H272777   0.829   5.830   2.737 -1.3835 -0.8772  2.0901
17096TIP3   OH272778   4.259   0.007   0.264  0.0677 -0.2635 -0.0017
17096TIP3    H172779   4.291  -0.081   0.243 -1.0809 -1.1118  1.6738
17096TIP3    H272780   4.166   0.005   0.242  0.2865  0.9252 -1.0816
17097TIP3   OH272781   6.028   0.927  15.203  0.3152  0.0479 -0.4202
17097TIP3    H172782   5.982   0.934  15.119 -1.0368  1.0035  0.3761
17097TIP3    H272783   5.972   0.869  15.256 -0.1040  1.3867  0.6260
17098TIP3   OH272784   6.375   3.693   2.137  0.1377 -0.1786 -0.2242
17098TIP3    H172785   6.466   3.677   2.110 -0.4686 -2.3839 -1.0543
17098TIP3    H272786   6.323   3.634   2.083 -1.8427  1.2722  0.0447
17099TIP3   OH272787   5.410   2.736   2.372 -0.0343  0.1188  0.1038
17099TIP3    H172788   5.435   2.751   2.280  0.4057 -1.8097 -0.1089
17099TIP3    H272789   5.476   2.675   2.405 -1.0483 -0.3674  1.2558
17100TIP3   OH272790   0.818   0.563  15.642  0.3003 -0.1741 -0.7433
17100TIP3    H172791   0.844   0.632  15.580  1.2872 -0.4315 -0.6196
17100TIP3    H272792   0.866   0.486  15.613  0.0158 -0.5394 -0.2359
17101TIP3   OH272793   5.288   2.634   1.346 -0.2204  0.5597  0.1008
17101TIP3    H172794   5.297   2.717   1.394 -1.3950 -0.5059  2.2271
17101TIP3    H272795   5.199   2.637   1.310  0.1942  0.7741 -0.9253
17102TIP3   OH272796   1.333   4.689  12.708  0.9227 -0.4534  0.0324
17102TIP3    H172797   1.360   4.756  12.771 -0.1872  0.6546 -0.6444
17102TIP3    H272798   1.338   4.733  12.623 -0.0775 -1.1288 -0.3850
17103TIP3   OH272799   4.359   3.359  12.563 -0.2241  0.0274 -0.4912
17103TIP3    H172800   4.452   3.371  12.542  0.1461  0.8538  1.5297
17103TIP3    H272801   4.335   3.438  12.611 -1.7188 -0.6372 -0.1389
17104TIP3   OH272802   1.038   2.054  10.699 -0.1418 -0.3118 -0.3502
17104TIP3    H172803   1.120   2.098  10.678 -0.1286  0.8672  2.0235
17104TIP3    H272804   0.973   2.124  10.705 -0.7659 -0.9325  0.3831
17105TIP3   OH272805   1.018   5.211  16.404  0.1027 -0.3577  0.1493
17105TIP3    H172806   0.965   5.260  16.467  1.3490 -1.0874  1.8181
17105TIP3    H272807   1.107   5.216  16.440  1.0524  0.2532 -2.2363
17106TIP3   OH272808   5.787   2.804  15.716  0.1122 -0.2300 -0.0322
17106TIP3    H172809   5.746   2.752  15.646  2.4384 -1.1706 -0.7446
17106TIP3    H272810   5.780   2.749  15.794  1.5244 -1.1476 -0.5325
17107TIP3   OH272811   1.474   1.762   2.047 -0.1528  0.1711  0.1248
17107TIP3    H172812   1.402   1.727   1.994  1.0772 -0.8812 -0.8880
17107TIP3    H272813   1.484   1.853   2.017 -2.0823  0.8266  1.3931
17108TIP3   OH272814   4.971   5.834   5.241 -0.4129 -0.6086 -0.2082
17108TIP3    H172815   4.977   5.913   5.295 -0.1436 -1.0918  0.4650
17108TIP3    H272816   5.055   5.829   5.195 -1.4104  0.9640 -2.3052
17109TIP3   OH272817   2.833   0.492   4.258 -0.3496  0.2682  0.4648
17109TIP3    H172818   2.748   0.535   4.262 -0.2288  0.9901 -2.7808
17109TIP3    H272819   2.895   0.562   4.236  0.5603 -0.7407 -0.2893
17110TIP3   OH272820   6.272   6.278   5.036 -0.1105 -0.3747 -0.7383
17110TIP3    H172821   6.305   6.189   5.051 -0.7224 -0.5655 -0.5043
17110TIP3    H272822   6.343   6.335   5.064 -0.1898 -0.7695  0.2944
17111TIP3   OH272823   2.520   2.700   0.028  0.0505 -0.0266 -0.8718
17111TIP3    H172824   2.508   2.635   0.097 -0.8106  0.9036 -0.1283
17111TIP3    H272825   2.575   2.656  -0.037 -1.0194 -1.7080 -0.6751
17112TIP3   OH272826   1.158   3.604  12.502 -0.6019 -0.1567 -0.5213
17112TIP3    H172827   1.070   3.611  12.539 -0.2475 -1.7789  0.6803
17112TIP3    H272828   1.216   3.616  12.577  0.2146  0.6256 -1.2625
17113TIP3   OH272829   1.159   4.578  12.950  0.3221  0.5286  0.0744
17113TIP3    H172830   1.176   4.490  12.982 -1.5892  0.1029 -0.0524
17113TIP3    H272831   1.178   4.573  12.856  1.0518  0.4813  0.2212
17114TIP3   OH272832   3.755   1.609  14.666  0.1468 -0.0245  0.1393
17114TIP3    H172833   3.846   1.607  14.636  0.0266  1.6426 -0.4091
17114TIP3    H272834   3.759   1.657  14.748 -0.3387  0.7043 -0.2649
17115TIP3   OH272835   1.260   1.750   0.418  0.9688 -0.0061 -0.0976
17115TIP3    H172836   1.287   1.840   0.398 -0.4628  0.2964 -0.7348
17115TIP3    H272837   1.164   1.753   0.414  0.9179 -1.5516 -0.0568
17116TIP3   OH272838   0.880   0.464   5.648 -0.4375  0.1269 -0.1934
17116TIP3    H172839   0.916   0.405   5.714  0.8199  2.0067  0.8418
17116TIP3    H272840   0.919   0.435   5.566  3.4519  2.0053  0.8831
17117TIP3   OH272841   2.685   6.273   5.993 -0.5016  0.6629  0.1533
17117TIP3    H172842   2.641   6.222   6.061 -0.3461  0.3759  0.0407
17117TIP3    H272843   2.750   6.213   5.956 -0.9414  0.6400 -0.6048
17118TIP3   OH272844   6.756   2.646  10.717  0.2211  0.5046  0.3899
17118TIP3    H172845   6.827   2.592  10.752 -0.8997 -1.0447  0.2818
17118TIP3    H272846   6.763   2.728  10.766  2.1638  0.4262  0.2841
17119TIP3   OH272847   3.232   1.255  11.802 -0.0630  0.3027  0.0507
17119TIP3    H172848   3.243   1.170  11.843 -0.1187  0.1449 -0.2610
17119TIP3    H272849   3.321   1.292  11.798  0.0411  0.0076 -0.3578
17120TIP3   OH272850   4.602   5.376  13.237 -0.2703 -0.5398  0.3206
17120TIP3    H172851   4.624   5.398  13.328  0.8199 -0.0121 -0.0589
17120TIP3    H272852   4.507   5.380  13.234 -0.2240  1.5753  0.9327
17121TIP3   OH272853   3.138   0.512  17.267 -0.2199 -0.1778 -0.6253
17121TIP3    H172854   3.233   0.506  17.263 -0.2639 -0.6507 -1.0318
17121TIP3    H272855   3.113   0.554  17.186 -0.4311 -1.0648 -1.0299
17122TIP3   OH272856   1.853   6.110   3.335  0.1373 -0.4580 -0.0627
17122TIP3    H172857   1.807   6.131   3.416 -1.8052 -0.2572 -1.1941
17122TIP3    H272858   1.892   6.192   3.307 -2.8471  0.5125 -1.5842
17123TIP3   OH272859   6.499   4.186   5.995 -0.3533  0.3864 -0.7093
17123TIP3    H172860   6.486   4.193   5.901 -0.5079  0.6559 -0.6673
17123TIP3    H272861   6.587   4.149   6.004 -1.1599 -1.6885 -0.9931
17124TIP3   OH272862   5.261   0.762   4.298 -0.0805  0.2013 -0.1199
17124TIP3    H172863   5.284   0.855   4.296 -0.9516  0.3808 -2.5146
17124TIP3    H272864   5.170   0.761   4.328  0.0098  0.0753  0.1596
17125TIP3   OH272865   4.927   1.850  12.079  0.1131  0.0126 -0.6141
17125TIP3    H172866   4.963   1.915  12.139 -0.3146  0.7663 -1.1571
17125TIP3    H272867   4.833   1.871  12.074  0.0937 -0.2118 -1.3283
17126TIP3   OH272868   0.889   3.460   5.665 -0.3169 -0.1958 -0.8675
17126TIP3    H172869   0.934   3.436   5.746 -1.8514 -2.0953 -0.5434
17126TIP3    H272870   0.907   3.553   5.655  0.2802 -0.0235  1.4247
17127TIP3   OH272871   3.672   4.823   4.434 -0.5772 -0.0995 -0.6092
17127TIP3    H172872   3.722   4.897   4.468 -0.5373 -0.2285 -0.3797
17127TIP3    H272873   3.661   4.842   4.341  1.6147 -1.0139 -1.1073
17128TIP3   OH272874   4.105   3.949  12.662 -0.1399 -0.2509 -0.1876
17128TIP3    H172875   4.103   4.040  12.692 -0.6420  0.0622 -1.1409
17128TIP3    H272876   4.191   3.940  12.621 -0.8340  0.4010 -1.8638
17129TIP3   OH272877   0.753   1.700  10.703  0.1030  0.0293  0.7986
17129TIP3    H172878   0.706   1.781  10.683 -0.2943 -0.4884 -0.4084
17129TIP3    H272879   0.737   1.644  10.627 -0.3761 -1.5194  2.0103
17130TIP3   OH272880   2.175   2.668   3.248  0.6312  0.2168 -0.5403
17130TIP3    H172881   2.132   2.600   3.299  0.0839  1.2387  0.3920
17130TIP3    H272882   2.248   2.624   3.204 -0.1140 -1.0908 -0.4758
17131TIP3   OH272883   5.791   1.320   0.034  0.4083  0.6533  0.4062
17131TIP3    H172884   5.806   1.297   0.126 -0.3284 -1.1022  0.1080
17131TIP3    H272885   5.875   1.300  -0.009  0.0741 -0.6397  0.3242
17132TIP3   OH272886   2.211   0.114   0.949  0.6633 -0.4348 -0.1683
17132TIP3    H172887   2.121   0.127   0.977  0.3759  1.2520 -1.7464
17132TIP3    H272888   2.262   0.175   1.002  0.4804  0.7011 -1.2656
17133TIP3   OH272889   2.041   4.293   0.707  0.2513 -0.0632  0.0660
17133TIP3    H172890   1.959   4.268   0.750  0.2530 -1.5425 -0.7425
17133TIP3    H272891   2.016   4.308   0.615  0.2459  3.0172  0.5346
17134TIP3   OH272892   4.042   1.200   1.412  0.0509 -0.4254 -0.0934
17134TIP3    H172893   4.098   1.221   1.487  0.7430 -1.2198 -0.3738
17134TIP3    H272894   3.960   1.169   1.451  0.3635 -0.7229  0.3411
17135TIP3   OH272895   2.319   1.615   1.127 -0.2671 -0.6197  0.0091
17135TIP3    H172896   2.333   1.538   1.071 -0.9463 -0.6477 -0.1285
17135TIP3    H272897   2.345   1.689   1.073 -1.7930 -0.5708 -0.6863
17136TIP3   OH272898   6.088   3.992  14.996 -0.1134 -0.4407  0.4382
17136TIP3    H172899   6.061   4.064  14.937  2.3459 -0.2605 -0.5230
17136TIP3    H272900   6.143   4.035  15.061  1.5207 -1.4747 -0.2494
17137TIP3   OH272901   5.598   1.810   2.737 -0.0816 -0.1537  0.6983
17137TIP3    H172902   5.669   1.806   2.800 -2.2585 -0.5967  3.2136
17137TIP3    H272903   5.553   1.726   2.747  0.7340 -1.1155 -2.9632
17138TIP3   OH272904   4.841   3.306  13.088 -0.3453  0.4298 -0.2811
17138TIP3    H172905   4.889   3.354  13.156  2.2080 -2.6716  0.1866
17138TIP3    H272906   4.881   3.335  13.006 -1.3582  1.8429 -0.3112
17139TIP3   OH272907   4.817   0.139   1.348 -0.0161  0.0967  0.1231
17139TIP3    H172908   4.867   0.110   1.424  0.9344  0.9972 -0.1383
17139TIP3    H272909   4.811   0.062   1.292 -2.0289 -0.9889  1.7818
17140TIP3   OH272910   6.461   1.993  14.666  0.1838  0.0464  0.4059
17140TIP3    H172911   6.466   1.925  14.733  0.3604 -0.8890 -0.5352
17140TIP3    H272912   6.476   1.946  14.583  1.1755  1.3602 -0.1824
17141TIP3   OH272913   2.514   1.302  11.845 -0.5955  0.6518 -0.3406
17141TIP3    H172914   2.579   1.304  11.914  0.3776 -2.4336 -1.0793
17141TIP3    H272915   2.431   1.284  11.890  0.0398 -1.4026  0.0938
17142TIP3   OH272916   3.975   3.137   4.585  0.2127  0.2876  0.3370
17142TIP3    H172917   3.993   3.079   4.511 -0.6848  1.1707 -0.5919
17142TIP3    H272918   3.957   3.078   4.658  0.2038 -0.6043 -0.3790
17143TIP3   OH272919   6.369   2.788  15.485 -0.2624 -0.0766 -0.1597
17143TIP3    H172920   6.319   2.812  15.407  0.5539  0.0575 -0.6444
17143TIP3    H272921   6.305   2.742  15.541 -1.7829  2.9241  0.6710
17144TIP3   OH272922   3.595   6.033   4.240 -0.0571 -0.3075  0.4033
17144TIP3    H172923   3.603   5.949   4.285 -0.7134 -0.2182  0.6912
17144TIP3    H272924   3.685   6.059   4.221  0.0680 -2.4139 -2.1650
17145TIP3   OH272925   1.899   0.728  16.647 -0.6509  0.6602 -0.2827
17145TIP3    H172926   1.894   0.759  16.738 -2.9163  2.4332 -0.9865
17145TIP3    H272927   1.856   0.642  16.649 -0.8684  0.7817  0.2601
17146TIP3   OH272928   1.446   1.799  13.822 -0.4933 -0.1743  0.0500
17146TIP3    H172929   1.478   1.782  13.733 -0.9511  0.8338 -0.3101
17146TIP3    H272930   1.432   1.893  13.825  0.1208 -0.1134  1.3973
17147TIP3   OH272931   0.400   4.899  15.148 -0.1233  0.3629 -0.1045
17147TIP3    H172932   0.388   4.856  15.232  1.4980  1.5107  0.7281
17147TIP3    H272933   0.342   4.976  15.152  0.7884  1.0299  0.4145
17148TIP3   OH272934   0.126   5.756   0.215 -0.2187 -0.0188 -0.3662
17148TIP3    H172935   0.100   5.790   0.129  2.2136 -0.9363 -1.4852
17148TIP3    H272936   0.121   5.661   0.207 -0.2285 -0.1152  0.6179
17149TIP3   OH272937   0.366   1.013  11.329  0.4443  0.2681  0.1345
17149TIP3    H172938   0.412   0.977  11.405 -1.4740 -1.5675  0.4751
17149TIP3    H272939   0.358   1.106  11.348  0.7516 -0.0296  1.7921
17150TIP3   OH272940   0.362   5.745  12.878 -0.1119  0.1890  0.0492
17150TIP3    H172941   0.436   5.737  12.939  0.5326  2.0463 -0.4526
17150TIP3    H272942   0.304   5.809  12.919  0.1814  1.2327 -1.1218
17151TIP3   OH272943   0.637   3.305  15.029  0.2293  0.4788  0.0178
17151TIP3    H172944   0.656   3.271  14.941  1.0257 -1.2504  0.8295
17151TIP3    H272945   0.572   3.245  15.065  0.0724  1.0495  0.6933
17152TIP3   OH272946   5.946   3.292   0.791 -0.1828 -0.4125  0.7465
17152TIP3    H172947   5.885   3.359   0.762 -1.0028 -0.6531  1.9087
17152TIP3    H272948   5.991   3.265   0.711 -1.7166 -0.3676 -0.1435
17153TIP3   OH272949   2.241   4.428   0.065 -0.3346  0.0133  0.0991
17153TIP3    H172950   2.276   4.356   0.117 -1.2192 -0.8332 -0.4538
17153TIP3    H272951   2.152   4.402   0.044 -1.0352  1.7635  0.7862
17154TIP3   OH272952   0.433   0.564   1.942 -0.0662  0.6109  0.3019
17154TIP3    H172953   0.413   0.612   2.022 -1.3589  0.8305 -0.1363
17154TIP3    H272954   0.376   0.487   1.944  0.5306  0.1490  0.0188
17155TIP3   OH272955   5.392   5.384  10.505  0.3518  0.1511 -0.0893
17155TIP3    H172956   5.330   5.393  10.577  0.6946  2.4000 -0.0440
17155TIP3    H272957   5.478   5.394  10.546  0.6250 -0.3185 -0.5438
17156TIP3   OH272958   6.486   2.907   3.536  1.2224 -0.3039  0.2748
17156TIP3    H172959   6.481   2.894   3.442  0.4706 -0.5688  0.3531
17156TIP3    H272960   6.473   3.001   3.548  0.4504 -0.3982  0.1790
17157TIP3   OH272961   6.286   2.664   1.092 -0.1672 -0.6217 -0.1463
17157TIP3    H172962   6.291   2.598   1.161 -1.3629  1.3254  1.8670
17157TIP3    H272963   6.203   2.646   1.048  0.3768 -1.5762 -0.7945
17158TIP3   OH272964   4.526   5.495   4.540  0.0081 -0.2370 -0.7338
17158TIP3    H172965   4.610   5.541   4.550 -0.4197  0.5313 -0.6272
17158TIP3    H272966   4.485   5.502   4.626  0.9731 -2.9128 -0.0197
17159TIP3   OH272967   0.623   3.237  16.587  0.5306 -0.3109 -0.1944
17159TIP3    H172968   0.703   3.290  16.590  0.9225 -0.8903 -0.3238
17159TIP3    H272969   0.552   3.301  16.586  1.0114  0.2244 -0.7754
17160TIP3   OH272970   1.576   3.151  15.556 -0.0387  0.4049 -0.6921
17160TIP3    H172971   1.656   3.177  15.601  0.2753 -0.0363 -0.9929
17160TIP3    H272972   1.542   3.233  15.520 -0.9935  0.9765  1.4278
17161TIP3   OH272973   2.547   1.902   0.697  0.4382 -0.0738  0.0693
17161TIP3    H172974   2.595   1.871   0.774  1.0006  0.7692  0.0625
17161TIP3    H272975   2.615   1.927   0.634  0.0242  2.4087  0.5618
17162TIP3   OH272976   2.205   5.554   2.089  0.1368 -0.0525  0.2431
17162TIP3    H172977   2.248   5.508   2.017  0.6983 -0.4662  0.8509
17162TIP3    H272978   2.126   5.502   2.107 -1.6114  1.6745 -2.0726
17163TIP3   OH272979   4.665   4.451  16.935 -0.2015 -0.2866 -0.5758
17163TIP3    H172980   4.660   4.404  17.017  1.2622 -0.8830 -0.8140
17163TIP3    H272981   4.585   4.428  16.889 -0.6836 -0.5238  0.3795
17164TIP3   OH272982   3.962   4.546   4.563  0.6119  0.1942  0.2857
17164TIP3    H172983   3.994   4.625   4.606  0.6860  0.0314  0.5319
17164TIP3    H272984   3.867   4.548   4.576  0.3603  1.3699 -1.6121
17165TIP3   OH272985   5.831   3.357   4.274 -0.0584  0.6383 -0.3135
17165TIP3    H172986   5.751   3.340   4.323 -0.5916  0.9218 -1.0620
17165TIP3    H272987   5.852   3.274   4.232  0.7833  0.2123  0.9346
17166TIP3   OH272988   1.451   3.393   5.607  0.4186  0.1770  0.4999
17166TIP3    H172989   1.521   3.389   5.542  1.1700 -0.3120  1.3341
17166TIP3    H272990   1.463   3.314   5.660 -0.1225  0.6251  1.2985
17167TIP3   OH272991   6.194   6.508   3.205 -0.0458 -0.1581 -0.1442
17167TIP3    H172992   6.159   6.518   3.116  1.1582  1.1020 -0.4820
17167TIP3    H272993   6.254   6.582   3.216 -1.1719  0.4499  2.1960
17168TIP3   OH272994   0.440   4.772  12.697 -0.2805 -0.7570 -0.6436
17168TIP3    H172995   0.505   4.791  12.629 -0.9054 -0.4351 -1.1467
17168TIP3    H272996   0.475   4.813  12.776 -1.1744  1.7216 -1.5051
17169TIP3   OH272997   0.033   4.747   0.367  0.5490  0.3475 -0.0864
17169TIP3    H172998  -0.030   4.810   0.401 -0.6403 -1.4816  1.1702
17169TIP3    H272999   0.092   4.799   0.312 -0.2878  2.5615  1.0695
17170TIP3   OH273000   3.150   0.483  14.918  0.2126 -0.0435  0.0348
17170TIP3    H173001   3.063   0.447  14.931  0.0133  0.7989  1.0522
17170TIP3    H273002   3.149   0.516  14.828 -0.2708 -0.7069 -0.2020
17171TIP3   OH273003   5.298   2.769  11.805 -0.0419  0.4843  0.1543
17171TIP3    H173004   5.391   2.769  11.829 -0.2645  0.2471  1.0177
17171TIP3    H273005   5.298   2.764  11.709  0.7809 -2.7119  0.2852
17172TIP3   OH273006   6.514   5.062  14.825  0.0341  0.3788  0.0910
17172TIP3    H173007   6.563   5.137  14.858  0.7579  0.2714 -0.7239
17172TIP3    H273008   6.485   5.089  14.737 -2.6592  1.0210  1.1252
17173TIP3   OH273009   6.022   2.758  12.422  0.2403  0.3194  0.0425
17173TIP3    H173010   5.969   2.679  12.419  1.5314 -0.5458 -0.4825
17173TIP3    H273011   6.106   2.730  12.457  0.5685  1.5468  0.2795
17174TIP3   OH273012   2.371   4.702  12.416 -0.4302  0.3857  0.0973
17174TIP3    H173013   2.290   4.658  12.389 -0.4136  0.2527  0.2667
17174TIP3    H273014   2.342   4.780  12.462 -0.4751 -0.4738  1.5402
17175TIP3   OH273015   3.479   2.958  15.880 -0.2496 -0.2225 -0.1106
17175TIP3    H173016   3.551   2.899  15.902 -0.0301  0.7669  1.9451
17175TIP3    H273017   3.400   2.911  15.906 -0.1837 -0.3019 -0.0565
17176TIP3   OH273018   6.103   1.011  14.704 -0.3353  0.4666  0.0552
17176TIP3    H173019   6.052   0.978  14.630  0.5316 -0.5392 -0.0940
17176TIP3    H273020   6.192   1.019  14.671 -0.2710  1.6343  0.4992
17177TIP3   OH273021   0.365   2.933   2.112 -0.0852 -0.0602 -0.2747
17177TIP3    H173022   0.336   2.872   2.045  0.5756  0.1900 -0.7960
17177TIP3    H273023   0.375   3.016   2.066 -2.4576  0.8140  0.7495
17178TIP3   OH273024   5.372   1.171   3.727  0.0946  0.0287  0.3897
17178TIP3    H173025   5.388   1.113   3.652  0.0069  0.1075  0.3106
17178TIP3    H273026   5.440   1.147   3.790 -0.5351 -0.8460  0.7533
17179TIP3   OH273027   6.277   0.358   5.451  0.5407 -0.1760  0.2456
17179TIP3    H173028   6.226   0.425   5.405  0.3159 -0.5991 -0.1212
17179TIP3    H273029   6.363   0.362   5.408 -0.0985 -1.5744 -1.2196
17180TIP3   OH273030   0.516   3.107  11.915  0.3765  0.4725 -0.2485
17180TIP3    H173031   0.448   3.063  11.863 -0.6415  1.7488 -0.0116
17180TIP3    H273032   0.543   3.180  11.860  0.9485  0.4702  0.0350
17181TIP3   OH273033   5.693   3.976  12.885 -0.1793  0.6805 -0.2368
17181TIP3    H173034   5.616   4.020  12.850 -0.3546  1.8303  1.5122
17181TIP3    H273035   5.674   3.965  12.978  0.3910 -2.0113 -0.3860
17182TIP3   OH273036   3.353   4.892  16.053 -0.2846  0.1545 -0.1273
17182TIP3    H173037   3.311   4.833  16.115  1.3367 -1.1066 -0.1987
17182TIP3    H273038   3.373   4.837  15.977 -2.6126  1.7496 -1.9914
17183TIP3   OH273039   0.377   3.262   0.174 -0.6879  0.1543  0.3434
17183TIP3    H173040   0.341   3.215   0.099  1.9756 -0.9906 -0.2683
17183TIP3    H273041   0.406   3.194   0.234 -0.3252  1.0299  1.1827
17184TIP3   OH273042   4.610   1.628  11.735  0.2416 -0.0894 -0.2612
17184TIP3    H173043   4.677   1.677  11.688 -1.2742  1.1710 -1.1396
17184TIP3    H273044   4.538   1.690  11.746 -0.1885 -0.9432  2.0517
17185TIP3   OH273045   0.022   2.329   1.559  0.0912 -0.5146 -0.1612
17185TIP3    H173046   0.066   2.303   1.639 -0.3562  0.8114  0.5200
17185TIP3    H273047   0.025   2.251   1.504  0.8000 -1.2892  0.9613
17186TIP3   OH273048   5.310   5.979  14.118  0.0978 -0.0736  0.1043
17186TIP3    H173049   5.339   6.026  14.196  2.1761 -0.6833 -0.2656
17186TIP3    H273050   5.382   5.919  14.098 -1.4389 -1.6237 -0.9015
17187TIP3   OH273051   1.924   6.261   2.826 -0.2847  0.7539 -0.0990
17187TIP3    H173052   1.884   6.195   2.883 -0.7532  1.2672  0.1686
17187TIP3    H273053   2.010   6.277   2.864  0.2281 -0.4212 -0.7238
17188TIP3   OH273054   0.813   5.368  11.253 -0.2997  0.5459  0.0990
17188TIP3    H173055   0.822   5.325  11.168 -0.0831  0.3565  0.2170
17188TIP3    H273056   0.760   5.307  11.305  0.9040 -0.0889  0.6143
17189TIP3   OH273057   4.940   3.694   2.655 -0.3903  0.0581  0.0565
17189TIP3    H173058   4.922   3.601   2.671  1.6396 -0.7682 -2.1223
17189TIP3    H273059   5.036   3.700   2.655 -0.5003  2.1835  0.2948
17190TIP3   OH273060   5.831   5.325  14.320  0.1864  0.3861  0.7261
17190TIP3    H173061   5.763   5.261  14.298  0.7857  0.2631 -0.7888
17190TIP3    H273062   5.876   5.287  14.396 -1.5299  0.5489  1.8495
17191TIP3   OH273063   2.362   1.169   3.569  0.2511  0.7739  0.7247
17191TIP3    H173064   2.347   1.083   3.531  1.0462 -0.1482  2.4380
17191TIP3    H273065   2.362   1.229   3.494  1.6464 -0.9577 -0.7060
17192TIP3   OH273066   5.845   1.097   4.836  0.4068  0.0981  0.1754
17192TIP3    H173067   5.892   1.173   4.802  0.2242  0.6732  1.1892
17192TIP3    H273068   5.824   1.120   4.926 -2.0560 -0.0342 -0.3253
17193TIP3   OH273069   1.884   1.659   0.707  0.2965 -0.5527 -0.5863
17193TIP3    H173070   1.893   1.685   0.799 -0.9101  1.2728 -0.9587
17193TIP3    H273071   1.807   1.602   0.705  0.1167 -0.3139 -0.5092
17194TIP3   OH273072   2.775   2.391   4.749 -0.1876 -0.1792  0.4169
17194TIP3    H173073   2.691   2.436   4.743 -0.7479 -1.1685  0.7188
17194TIP3    H273074   2.809   2.416   4.835  0.6538  1.6201 -0.4137
17195TIP3   OH273075   0.926   6.022   1.749  0.3998 -0.3314  0.4980
17195TIP3    H173076   0.999   6.063   1.795 -1.0268  0.2772  2.2875
17195TIP3    H273077   0.967   5.954   1.695  2.7609  2.8881 -2.0073
17196TIP3   OH273078   6.168   3.588  14.172 -0.7337 -0.1792 -0.4849
17196TIP3    H173079   6.218   3.614  14.095  0.3889  1.6120  0.8136
17196TIP3    H273080   6.103   3.657  14.183 -1.0234 -0.5342  0.0605
17197TIP3   OH273081   5.390   2.508  15.519 -0.0533  0.0724 -0.1576
17197TIP3    H173082   5.307   2.555  15.527  0.7522  1.3228  1.0200
17197TIP3    H273083   5.416   2.489  15.609  1.6452  0.9568 -0.4407
17198TIP3   OH273084   2.271   6.034  16.285  0.1396  0.1897 -0.4411
17198TIP3    H173085   2.209   5.964  16.266 -0.3224  0.5969 -0.4288
17198TIP3    H273086   2.277   6.035  16.381  0.4830 -0.1201 -0.4542
17199TIP3   OH273087   6.779   4.553  13.094 -0.5390  0.3404 -0.3930
17199TIP3    H173088   6.859   4.543  13.043 -1.7050 -1.0305 -2.0259
17199TIP3    H273089   6.710   4.522  13.035 -2.0690 -0.0307  1.5626
17200TIP3   OH273090   1.785   3.215  14.119  0.1378  0.3917 -0.3156
17200TIP3    H173091   1.830   3.132  14.134  1.3518  1.1655  0.4535
17200TIP3    H273092   1.839   3.259  14.052 -0.2851  0.7229 -0.4409
17201TIP3   OH273093   2.832   1.322  15.720  0.2434  0.6300 -0.0261
17201TIP3    H173094   2.788   1.407  15.716  1.0154  1.1279  1.7137
17201TIP3    H273095   2.762   1.259  15.738  0.0008  1.2081  1.0745
17202TIP3   OH273096   0.362   6.159   1.263 -0.2384 -0.3594  0.5409
17202TIP3    H173097   0.425   6.188   1.329 -0.1677 -0.1246  0.3708
17202TIP3    H273098   0.278   6.193   1.293 -0.2068 -0.2551  0.5099
17203TIP3   OH273099   5.137   2.202   2.569  0.1696 -0.1467 -0.7344
17203TIP3    H173100   5.132   2.262   2.495 -0.5258 -0.2959 -0.8157
17203TIP3    H273101   5.104   2.252   2.643  2.0729  0.4124 -0.2570
17204TIP3   OH273102   3.048   2.656  15.385 -0.3397 -0.4646  0.1979
17204TIP3    H173103   2.988   2.605  15.439  0.9939 -1.1353  1.0749
17204TIP3    H273104   3.129   2.660  15.436  0.6665 -0.3683 -1.3581
17205TIP3   OH273105   5.309   5.626   2.757 -0.1171 -0.1946 -0.4758
17205TIP3    H173106   5.383   5.590   2.807 -0.2719  0.4870  0.2422
17205TIP3    H273107   5.267   5.549   2.718 -0.0303 -0.7301  0.4799
17206TIP3   OH273108   0.323   2.654   0.689 -0.4596  0.5090  0.3918
17206TIP3    H173109   0.334   2.661   0.784 -1.3124  3.5687  0.3044
17206TIP3    H273110   0.410   2.670   0.653 -0.2003 -0.3469  0.6107
17207TIP3   OH273111   4.890   3.109   5.084 -0.1374  0.1247  0.0147
17207TIP3    H173112   4.821   3.111   5.018 -0.9787  0.6374  0.8937
17207TIP3    H273113   4.923   3.199   5.088 -1.0202  0.4095  1.2404
17208TIP3   OH273114   4.311   1.087  11.861 -0.2685 -0.5539  0.2633
17208TIP3    H173115   4.266   1.142  11.926  1.7236  0.9581  0.4090
17208TIP3    H273116   4.244   1.069  11.795 -0.6520  3.2784 -0.5133
17209TIP3   OH273117   1.442   1.343   0.854 -0.1545 -0.0940  0.4328
17209TIP3    H173118   1.527   1.382   0.834 -0.3982  0.5408  0.6193
17209TIP3    H273119   1.450   1.315   0.946 -0.3387  0.4897  0.6299
17210TIP3   OH273120   3.964   2.000   2.083  0.3251 -0.0364  0.1683
17210TIP3    H173121   3.989   2.029   1.996 -0.3991 -0.3780 -0.1598
17210TIP3    H273122   3.883   1.950   2.069 -0.7607  1.3700  1.2242
17211TIP3   OH273123   5.343   6.416  14.848  0.0591  0.0925  0.3817
17211TIP3    H173124   5.266   6.367  14.878 -0.0073  0.2702  0.5053
17211TIP3    H273125   5.410   6.398  14.914 -0.0676  0.4298  0.6063
17212TIP3   OH273126   0.887   5.712   4.424  0.1661 -0.0300 -0.7485
17212TIP3    H173127   0.911   5.804   4.418  1.3201 -0.3234 -0.7809
17212TIP3    H273128   0.969   5.667   4.447 -0.3616 -1.0530 -0.8321
17213TIP3   OH273129   2.177   6.241  17.187 -0.1654  0.3129  0.1015
17213TIP3    H173130   2.261   6.273  17.152  0.3384 -0.0928  0.9212
17213TIP3    H273131   2.112   6.270  17.123  0.4948  1.4554 -0.0674
17214TIP3   OH273132   6.142   1.356   5.387  0.1481 -0.3591  0.0375
17214TIP3    H173133   6.073   1.384   5.326  1.0128 -0.6165 -1.0694
17214TIP3    H273134   6.201   1.302   5.333  1.2903 -0.0214  0.9454
17215TIP3   OH273135   2.402   2.210  15.472  0.0739 -0.0630 -0.0397
17215TIP3    H173136   2.351   2.181  15.396  0.4604 -1.5810  0.2745
17215TIP3    H273137   2.463   2.274  15.436  0.2240 -0.7309 -1.0060
17216TIP3   OH273138   0.395   2.630   0.213  0.3200 -0.2713 -0.0582
17216TIP3    H173139   0.349   2.707   0.180 -1.6456 -0.3371  2.4151
17216TIP3    H273140   0.487   2.656   0.211 -0.1007  1.2667 -1.4712
17217TIP3   OH273141   4.242   3.415   1.654  0.3815  0.0788 -0.1678
17217TIP3    H173142   4.203   3.330   1.674  0.4310  0.4866  1.7678
17217TIP3    H273143   4.220   3.431   1.562  1.2317 -2.4614 -0.8471
17218TIP3   OH273144   0.497   0.203   2.452 -0.1090 -0.7325 -0.5332
17218TIP3    H173145   0.506   0.110   2.471 -0.4234 -0.6879 -0.1535
17218TIP3    H273146   0.425   0.208   2.389 -0.1811 -0.7398 -0.4528
17219TIP3   OH273147   3.869   1.295   2.687  0.5248  0.1054  0.2609
17219TIP3    H173148   3.817   1.216   2.701  1.0672 -0.1698  0.7493
17219TIP3    H273149   3.955   1.273   2.724  1.1895  0.3079 -1.1610
17220TIP3   OH273150   3.248   3.165   5.862  0.0506  0.9465  0.3779
17220TIP3    H173151   3.200   3.181   5.943 -2.1201 -0.0699 -0.6792
17220TIP3    H273152   3.312   3.097   5.885 -2.4825 -1.4657  0.5805
17221TIP3   OH273153   2.464   3.302  14.480 -0.4090  0.0283  0.0359
17221TIP3    H173154   2.390   3.243  14.460  0.1920 -0.4307 -0.8932
17221TIP3    H273155   2.432   3.389  14.457 -0.0934 -0.3747 -2.0285
17222TIP3   OH273156   3.442   1.162  15.370  0.2105  0.1570  0.1610
17222TIP3    H173157   3.347   1.164  15.361 -0.0247 -1.1167  2.0201
17222TIP3    H273158   3.469   1.254  15.361 -1.1486  0.4893 -0.6961
17223TIP3   OH273159   5.426   4.414  13.978  0.5062 -0.7003 -0.1279
17223TIP3    H173160   5.348   4.360  13.980 -0.2343  0.3946  1.5176
17223TIP3    H273161   5.400   4.496  14.020  3.0449 -1.0381  2.2995
17224TIP3   OH273162   3.716   0.347  14.776 -0.0433 -0.5951 -0.4101
17224TIP3    H173163   3.791   0.357  14.835 -0.6918  2.0733  0.0395
17224TIP3    H273164   3.753   0.360  14.688 -0.1325  2.0105 -0.1098
17225TIP3   OH273165   4.265   0.411  16.754  0.2245  0.7130 -0.0595
17225TIP3    H173166   4.229   0.393  16.667 -0.6019 -1.7289  0.7374
17225TIP3    H273167   4.357   0.434  16.738 -0.2513  1.6136 -1.6604
17226TIP3   OH273168   4.063   2.112  15.029  0.6965  0.5818 -0.0799
17226TIP3    H173169   4.088   2.188  15.081  3.4046 -0.6715  0.5279
17226TIP3    H273170   4.001   2.064  15.084 -1.1652  2.3538 -0.5327
17227TIP3   OH273171   0.180   3.249  16.273 -0.4055  0.6132 -0.2090
17227TIP3    H173172   0.225   3.317  16.222  1.1146 -1.3790 -1.6258
17227TIP3    H273173   0.171   3.176  16.211  0.5202 -1.4886  2.0756
17228TIP3   OH273174   5.606   5.398   2.113  0.1625  0.3976 -0.9840
17228TIP3    H173175   5.537   5.367   2.054 -1.9782  1.2523  1.0419
17228TIP3    H273176   5.644   5.473   2.068 -1.7056  1.2741 -1.1358
17229TIP3   OH273177   1.931   6.319   5.837  0.4130 -0.2248 -0.5455
17229TIP3    H173178   1.975   6.254   5.892  0.8025 -0.3491 -0.9927
17229TIP3    H273179   1.852   6.342   5.885  1.3946  0.6600  0.7156
17230TIP3   OH273180   5.781   6.231  10.773 -0.0403 -0.1270 -0.1676
17230TIP3    H173181   5.728   6.265  10.702  1.9804 -0.9422 -2.1124
17230TIP3    H273182   5.740   6.267  10.852 -1.0833  2.4711 -1.8155
17231TIP3   OH273183   0.719   2.882   7.027 -0.0476  0.1347 -0.3349
17231TIP3    H173184   0.693   2.974   7.030 -1.4490 -0.2875  0.5932
17231TIP3    H273185   0.650   2.839   6.976  0.0378 -0.5881  0.1523
17232TIP3   OH273186   3.332   4.176  14.734 -0.2026 -0.5747  0.4962
17232TIP3    H173187   3.365   4.249  14.787  0.4790  0.0094 -0.7101
17232TIP3    H273188   3.268   4.216  14.674  0.2035 -0.9509 -0.1979
17233TIP3   OH273189   1.290   1.471  10.695  0.1907 -0.0757  0.3292
17233TIP3    H173190   1.263   1.529  10.766 -2.3991  0.9623 -1.4284
17233TIP3    H273191   1.229   1.398  10.698 -1.2807  0.9750 -2.0282
17234TIP3   OH273192   2.653   1.945  12.773 -0.0193  0.1116 -0.1466
17234TIP3    H173193   2.561   1.933  12.748  0.4069 -1.4159 -1.0529
17234TIP3    H273194   2.691   1.858  12.767  1.7767  0.9271 -0.9108
17235TIP3   OH273195   1.293   2.675  12.747 -0.1632 -0.4102 -0.1387
17235TIP3    H173196   1.325   2.720  12.669  1.2796 -0.2331  0.5346
17235TIP3    H273197   1.337   2.590  12.746 -0.1278 -0.4034  0.4698
17236TIP3   OH273198   1.004   1.784  14.729 -0.4723  0.5262 -0.2122
17236TIP3    H173199   1.049   1.757  14.809 -1.1042 -0.7852 -0.2875
17236TIP3    H273200   1.067   1.767  14.659 -0.0362  1.3740 -0.0237
17237TIP3   OH273201   5.305   3.859   0.055 -0.0202  0.2914  0.7798
17237TIP3    H173202   5.340   3.850  -0.034 -0.1525  1.2561  0.6225
17237TIP3    H273203   5.358   3.800   0.108  0.5203  0.2406  0.1865
17238TIP3   OH273204   3.170   6.280  16.784 -0.2005 -0.7112 -0.3473
17238TIP3    H173205   3.251   6.257  16.740  0.7813 -0.8042  1.4607
17238TIP3    H273206   3.158   6.212  16.851 -1.2882 -0.2036 -0.0046
17239TIP3   OH273207   0.329   1.453  17.189  0.1388  0.0594  0.6525
17239TIP3    H173208   0.398   1.515  17.213  0.7394 -0.3884  0.1088
17239TIP3    H273209   0.367   1.367  17.207  0.2783 -0.2475 -1.0210
17240TIP3   OH273210   3.353   1.771   5.700  0.6316 -0.1435 -0.3789
17240TIP3    H173211   3.417   1.761   5.770 -0.5781  0.3187  0.8207
17240TIP3    H273212   3.271   1.791   5.745 -0.1547  0.2339 -1.9301
17241TIP3   OH273213   0.197   2.564   0.425 -0.8737  0.5544 -0.9802
17241TIP3    H173214   0.282   2.562   0.382 -0.5389 -0.2076 -0.2990
17241TIP3    H273215   0.217   2.565   0.519 -1.6361 -2.0012 -0.7604
17242TIP3   OH273216   0.975   2.343   0.169  0.3961 -0.6296 -0.0735
17242TIP3    H173217   0.966   2.279   0.099 -0.4300 -0.6406  0.0376
17242TIP3    H273218   0.976   2.291   0.249 -0.4972 -0.4914  0.0303
17243TIP3   OH273219   6.450   4.892   4.517  0.2968 -0.0069 -0.0296
17243TIP3    H173220   6.477   4.829   4.584 -1.2069  0.2927  0.8825
17243TIP3    H273221   6.520   4.956   4.514  0.7764 -0.4982  0.6568
17244TIP3   OH273222   0.490   4.811  17.180 -0.4858 -0.0607  0.1850
17244TIP3    H173223   0.585   4.800  17.173 -0.3398  0.2517  1.6236
17244TIP3    H273224   0.464   4.749  17.248 -0.9923  1.5442  1.4639
17245TIP3   OH273225   5.893   6.458  12.632  0.9990  0.0563  0.1880
17245TIP3    H173226   5.963   6.519  12.609  0.5457  0.3407 -0.4470
17245TIP3    H273227   5.885   6.465  12.727  2.2246 -0.4053  0.3341
17246TIP3   OH273228   1.700   0.792   2.193  0.0387 -0.0780  0.1319
17246TIP3    H173229   1.728   0.767   2.281 -1.7111 -0.3568  0.6342
17246TIP3    H273230   1.654   0.714   2.160 -0.6087  0.5478 -0.4432
17247TIP3   OH273231   0.427   2.621  13.519 -0.0856  0.4036 -0.5465
17247TIP3    H173232   0.430   2.534  13.478 -0.2772 -0.5889  1.4799
17247TIP3    H273233   0.518   2.648  13.527 -0.0087  0.2369 -0.8769
17248TIP3   OH273234   1.957   6.297  12.972 -0.1185 -0.0310  0.4800
17248TIP3    H173235   1.930   6.388  12.985  0.1331 -0.0575  1.2357
17248TIP3    H273236   1.889   6.259  12.917 -0.5805  0.4300  0.7297
17249TIP3   OH273237   5.996   6.208  16.761 -0.0246 -0.4033 -0.3130
17249TIP3    H173238   5.923   6.265  16.783 -0.2476 -0.8130  0.0153
17249TIP3    H273239   6.006   6.217  16.666 -2.0416 -2.1656 -0.7267
17250TIP3   OH273240   5.867   3.684   3.627  0.0119  0.1432 -0.1546
17250TIP3    H173241   5.906   3.643   3.550  0.3441  1.6964 -0.8460
17250TIP3    H273242   5.808   3.751   3.592 -1.2723 -0.3966  0.9302
17251TIP3   OH273243   5.209   1.892   0.016  0.1023 -0.3713 -0.0079
17251TIP3    H173244   5.191   1.947   0.093 -0.1435  0.8498 -0.9235
17251TIP3    H273245   5.302   1.869   0.025  0.2921  0.4700  0.2040
17252TIP3   OH273246   1.076   3.227  11.675  0.8055 -0.1214 -0.1539
17252TIP3    H173247   1.019   3.151  11.671  2.6662 -1.4731 -1.9490
17252TIP3    H273248   1.071   3.256  11.766 -1.6765 -0.9930  0.0205
17253TIP3   OH273249   4.250   6.340   1.759  0.0007  0.6498  0.3716
17253TIP3    H173250   4.177   6.280   1.746  0.7467 -0.3389  0.6861
17253TIP3    H273251   4.295   6.341   1.674  0.4684  0.1196  0.6146
17254TIP3   OH273252   5.211   3.482  16.746  0.4037 -0.2527 -0.1004
17254TIP3    H173253   5.252   3.408  16.791  1.1578 -1.0419 -1.9815
17254TIP3    H273254   5.134   3.444  16.704  1.2174 -0.1748 -1.7060
17255TIP3   OH273255   0.118   6.499  16.691  0.4638  0.3281  0.5100
17255TIP3    H173256   0.144   6.436  16.624  2.0771  0.3591  1.1010
17255TIP3    H273257   0.090   6.576  16.642 -0.1573 -0.3175 -0.1714
17256TIP3   OH273258   5.161   3.081   6.784 -0.3582  0.4531 -0.2951
17256TIP3    H173259   5.151   3.176   6.772 -0.3949  0.2628 -1.8306
17256TIP3    H273260   5.074   3.045   6.766  0.2703 -0.1100 -2.3999
17257TIP3   OH273261   1.392   1.423   5.643  0.0420 -0.1847  0.0063
17257TIP3    H173262   1.362   1.377   5.721 -0.2632  0.9176  0.5503
17257TIP3    H273263   1.323   1.487   5.625 -0.6821 -1.4992 -2.1221
17258TIP3   OH273264   1.718   0.610   5.203 -0.7919 -0.8358  0.3787
17258TIP3    H173265   1.784   0.643   5.263 -1.7649 -1.8022  1.9950
17258TIP3    H273266   1.658   0.684   5.190 -0.6939 -0.6946  0.7355
17259TIP3   OH273267   5.953   1.425  14.603 -0.2611  0.0182  0.3652
17259TIP3    H173268   6.018   1.381  14.548 -1.7616 -1.4139 -0.3285
17259TIP3    H273269   5.902   1.478  14.541 -0.9801 -0.4096  0.5779
17260TIP3   OH273270   4.596   6.430  13.442  0.6763 -0.8295 -0.1963
17260TIP3    H173271   4.662   6.370  13.407  0.1703 -1.0595 -0.7534
17260TIP3    H273272   4.541   6.375  13.497  0.5351 -0.7684 -0.2772
17261TIP3   OH273273   5.196   4.332  16.042 -0.4041 -0.2668  0.3197
17261TIP3    H173274   5.206   4.377  15.958  1.2102 -0.1253  0.5635
17261TIP3    H273275   5.284   4.298  16.061 -1.0201 -1.2727  1.4033
17262TIP3   OH273276   3.963   5.267   0.268 -0.0556  0.5014  0.6739
17262TIP3    H173277   4.015   5.280   0.189  1.3742  1.0726  1.6983
17262TIP3    H273278   3.985   5.179   0.298 -0.8725  0.1447  0.2478
17263TIP3   OH273279   4.750   1.262  13.987  0.2703 -0.5698  0.3318
17263TIP3    H173280   4.665   1.275  14.029 -0.6512 -2.3904 -0.8703
17263TIP3    H273281   4.799   1.208  14.048 -0.0525 -0.9016  0.2985
17264TIP3   OH273282   5.405   6.005  15.885  0.1464  0.0794  0.4476
17264TIP3    H173283   5.318   5.976  15.913 -1.1442  2.3649 -0.9724
17264TIP3    H273284   5.451   6.025  15.967 -0.6809 -1.0946  1.2150
17265TIP3   OH273285   5.859   0.218  11.886 -0.3913 -0.3077  0.5794
17265TIP3    H173286   5.786   0.206  11.947 -1.2475  0.9350 -0.1633
17265TIP3    H273287   5.845   0.151  11.819  0.3309 -1.4200  1.5370
17266TIP3   OH273288   3.493   0.408   4.834  0.8337  0.1898 -0.7212
17266TIP3    H173289   3.438   0.456   4.897  2.0488  1.2369 -0.4324
17266TIP3    H273290   3.544   0.477   4.791  1.2987 -0.6999 -1.5930
17267TIP3   OH273291   4.395   4.981  15.232 -0.1840 -0.3992  0.0097
17267TIP3    H173292   4.462   4.960  15.167  1.2484  0.4703  1.1925
17267TIP3    H273293   4.338   4.904  15.233  0.3828 -0.8741 -1.4869
17268TIP3   OH273294   2.663   4.507  12.297 -0.1755 -0.5044 -0.4363
17268TIP3    H173295   2.747   4.510  12.252  0.1801 -2.0301  0.1204
17268TIP3    H273296   2.612   4.578  12.257  1.1512  0.0271 -1.1972
17269TIP3   OH273297   2.555   0.482  15.466 -0.2381 -0.0272  0.4576
17269TIP3    H173298   2.555   0.577  15.475  0.6057 -0.1816  2.2787
17269TIP3    H273299   2.462   0.458  15.463 -0.4480  0.9101 -0.8711
17270TIP3   OH273300   2.954   6.790   2.093 -0.7924 -0.0624 -0.2323
17270TIP3    H173301   2.864   6.768   2.072 -1.0209 -0.3768  1.0295
17270TIP3    H273302   3.005   6.719   2.053 -1.3764 -1.8051  2.0404
17271TIP3   OH273303   1.223   2.024   1.313 -0.0495  0.0642 -0.1500
17271TIP3    H173304   1.316   2.045   1.311 -0.2596  1.3439  2.1579
17271TIP3    H273305   1.220   1.929   1.305  1.3817  0.1077 -1.4438
17272TIP3   OH273306   3.888   0.256   5.186 -1.0484 -0.6207  0.7689
17272TIP3    H173307   3.810   0.301   5.157 -1.0373 -0.3781  1.1128
17272TIP3    H273308   3.905   0.191   5.118 -2.6535 -1.9820  1.6264
17273TIP3   OH273309   5.856   2.352  12.125  0.2380 -0.1404  0.1392
17273TIP3    H173310   5.932   2.375  12.072 -0.7842  1.3567 -0.6970
17273TIP3    H273311   5.780   2.371  12.069 -0.7813 -0.8030  1.2663
17274TIP3   OH273312   2.797   4.004   1.282 -0.7079 -0.1279  0.2254
17274TIP3    H173313   2.870   4.041   1.231 -0.2720 -2.2506 -0.7495
17274TIP3    H273314   2.838   3.938   1.338 -1.7154 -0.4005  0.6532
17275TIP3   OH273315   5.190   2.599   5.478 -0.2778 -0.0987  0.0096
17275TIP3    H173316   5.163   2.688   5.455 -2.0557  0.0358  2.4066
17275TIP3    H273317   5.285   2.602   5.479 -0.2605  1.1701 -2.1079
17276TIP3   OH273318   3.319   1.699   5.102  0.4294  0.2923 -0.3988
17276TIP3    H173319   3.279   1.767   5.049  0.9222  0.3708 -0.6718
17276TIP3    H273320   3.411   1.697   5.074  0.8106  0.6873  0.8050
17277TIP3   OH273321   2.535   2.222   0.169 -0.7574  0.4663 -0.5990
17277TIP3    H173322   2.458   2.186   0.214 -0.8296  0.4624 -0.7239
17277TIP3    H273323   2.501   2.251   0.085 -0.4743 -0.2301 -0.9574
17278TIP3   OH273324   0.076   3.062   6.280 -0.0188 -0.4492 -0.1811
17278TIP3    H173325   0.045   2.974   6.258  0.7311 -1.0685  1.1757
17278TIP3    H273326   0.008   3.120   6.246 -0.7595 -1.5831 -0.6716
17279TIP3   OH273327   1.904   0.462  14.730  0.7148  0.2190 -0.0088
17279TIP3    H173328   1.956   0.540  14.751 -0.0050  0.7480 -0.1633
17279TIP3    H273329   1.820   0.478  14.771  1.0027 -1.1118  1.1318
17280TIP3   OH273330   6.656   1.798   5.420  0.4673  0.2614  0.0458
17280TIP3    H173331   6.591   1.842   5.365  0.4850 -0.4191 -0.5396
17280TIP3    H273332   6.647   1.839   5.506 -1.5456 -0.5942  0.2923
17281TIP3   OH273333   4.833   0.263  16.851 -0.0759 -0.1094  0.0260
17281TIP3    H173334   4.886   0.274  16.930  0.3639 -1.3104 -0.0816
17281TIP3    H273335   4.891   0.217  16.790 -0.3027  1.0983 -1.1090
17282TIP3   OH273336   1.268   3.873   1.346  0.4494  0.6346  0.2176
17282TIP3    H173337   1.194   3.821   1.378  0.8995  0.9381  1.7583
17282TIP3    H273338   1.228   3.949   1.305 -0.1774 -0.4019 -1.1416
17283TIP3   OH273339   2.957   6.437  15.110  0.3555 -0.0004 -0.2733
17283TIP3    H173340   2.896   6.428  15.037  0.1367 -0.5873 -0.0208
17283TIP3    H273341   3.025   6.372  15.093  0.1210 -0.3819  0.2218
17284TIP3   OH273342   5.651   1.925   2.503 -0.3216 -0.2043  0.0453
17284TIP3    H173343   5.625   1.853   2.561 -0.0948  0.6575  1.2355
17284TIP3    H273344   5.695   1.987   2.561  0.9434  0.1450 -1.2672
17285TIP3   OH273345   1.835   0.371   4.164  0.3658  0.7225 -0.0703
17285TIP3    H173346   1.814   0.462   4.183  1.4240  0.4096  2.9080
17285TIP3    H273347   1.793   0.321   4.234  0.2146 -1.0500 -1.3754
17286TIP3   OH273348   3.477   1.291   4.665  0.1910 -0.1115  0.1819
17286TIP3    H173349   3.461   1.197   4.653  1.4312  0.0387 -3.1199
17286TIP3    H273350   3.432   1.312   4.747 -0.1996 -3.5541  0.9461
17287TIP3   OH273351   1.457   4.410  15.469 -0.0288  0.4267 -0.7091
17287TIP3    H173352   1.422   4.327  15.434  0.8692  0.3817 -1.5406
17287TIP3    H273353   1.455   4.470  15.394  2.7107  0.0875 -1.1064
17288TIP3   OH273354   4.179   3.065  12.285 -0.2237 -0.4148 -0.2620
17288TIP3    H173355   4.222   3.150  12.273 -0.7301  0.0456  1.1283
17288TIP3    H273356   4.230   3.004  12.231 -0.0020  0.8115 -1.4686
17289TIP3   OH273357   6.373   5.569   3.069 -0.1925 -0.1666 -0.6759
17289TIP3    H173358   6.392   5.478   3.049  0.0416 -0.4056  0.5843
17289TIP3    H273359   6.448   5.617   3.035  0.0993 -0.5405 -0.5655
17290TIP3   OH273360   3.543   2.220   0.808 -0.1406 -0.4572  0.3910
17290TIP3    H173361   3.539   2.240   0.714 -1.3292 -1.2267  0.2701
17290TIP3    H273362   3.452   2.223   0.837  0.1674 -0.8160  1.3967
17291TIP3   OH273363   6.485   5.707   5.465  0.2171 -0.2660  0.0482
17291TIP3    H173364   6.490   5.617   5.432 -0.0457 -0.1365 -0.3544
17291TIP3    H273365   6.498   5.699   5.559 -0.6484 -0.8088  0.1199
17292TIP3   OH273366   0.829   3.194  16.780 -0.3433 -0.1868 -0.2579
17292TIP3    H173367   0.849   3.287  16.787  1.4531 -0.3709 -2.6740
17292TIP3    H273368   0.864   3.167  16.695 -1.8689 -2.8165 -0.1231
17293TIP3   OH273369   1.019   3.366  17.026 -0.5474  0.4659  0.1583
17293TIP3    H173370   1.051   3.387  16.938  0.6792  1.2093  0.7817
17293TIP3    H273371   0.954   3.433  17.044 -0.1654  0.8295  0.1783
17294TIP3   OH273372   3.286   4.312   4.768  0.0665  0.4293  1.0460
17294TIP3    H173373   3.269   4.365   4.691 -0.0687 -0.1017  0.7104
17294TIP3    H273374   3.296   4.376   4.839 -0.7726  0.8696  0.7793
17295TIP3   OH273375   4.908   3.219   2.244 -0.1883 -0.3354 -0.5220
17295TIP3    H173376   4.881   3.143   2.296 -1.5056 -0.5916 -1.5380
17295TIP3    H273377   4.883   3.295   2.296 -1.1431 -0.5928 -0.5985
17296TIP3   OH273378   1.820   2.808   3.248 -0.4085  0.4646 -0.1050
17296TIP3    H173379   1.730   2.790   3.276 -0.6812 -0.4691 -1.5609
17296TIP3    H273380   1.821   2.903   3.233 -1.3857  0.3588 -0.8940
17297TIP3   OH273381   5.218   5.885   0.575 -0.7557  0.3321 -0.1880
17297TIP3    H173382   5.298   5.936   0.558  0.0321 -1.4114 -1.8542
17297TIP3    H273383   5.179   5.872   0.489 -1.0596 -1.6794  0.2277
17298TIP3   OH273384   6.661   5.619  11.060 -0.3371 -0.0620 -0.2828
17298TIP3    H173385   6.749   5.625  11.023 -1.0826  0.3153 -2.0736
17298TIP3    H273386   6.620   5.548  11.010 -1.1091 -0.1172  0.4235
17299TIP3   OH273387   3.157   6.003   1.043  0.4083 -0.4659 -0.2529
17299TIP3    H173388   3.105   6.030   0.967  0.0708  1.2254  0.5537
17299TIP3    H273389   3.232   5.956   1.006 -1.4359 -2.5650 -1.4668
17300TIP3   OH273390   3.917   4.495   6.158 -0.4977  0.2699 -0.4022
17300TIP3    H173391   3.908   4.421   6.217 -0.0924 -0.0559 -0.7499
17300TIP3    H273392   3.946   4.567   6.215 -1.5077  0.3342  0.0422
17301TIP3   OH273393   3.221   5.969  14.482 -0.5686  0.2731 -0.1157
17301TIP3    H173394   3.189   5.887  14.519  0.2973  0.2154  0.5140
17301TIP3    H273395   3.144   6.007  14.439 -1.4869  0.1076  1.3163
17302TIP3   OH273396   5.482   0.323   6.420  0.3002 -0.4376 -0.4979
17302TIP3    H173397   5.483   0.418   6.436  1.1939 -0.3009 -1.2954
17302TIP3    H273398   5.419   0.311   6.349 -1.1779 -0.6578  0.8402
17303TIP3   OH273399   6.376   5.405  13.383 -0.4193  0.1203 -0.0045
17303TIP3    H173400   6.370   5.310  13.379 -1.6725  0.1549  0.6276
17303TIP3    H273401   6.411   5.424  13.470 -1.0947  0.2481  0.2498
17304TIP3   OH273402   2.795   0.494  14.208  0.1579  0.1283  0.2848
17304TIP3    H173403   2.761   0.557  14.145 -1.1619 -2.0071 -1.2324
17304TIP3    H273404   2.886   0.480  14.182 -0.4139 -0.8236 -1.2522
17305TIP3   OH273405   5.429   2.010   6.142  0.3306  0.2426  0.1675
17305TIP3    H173406   5.392   2.066   6.210  1.9601  0.8589  0.5601
17305TIP3    H273407   5.493   1.956   6.188  1.0601  0.2898 -0.7854
17306TIP3   OH273408   1.811   6.071   3.784  0.3699  0.5932 -0.6087
17306TIP3    H173409   1.827   5.979   3.807 -2.8424  0.1079 -0.1277
17306TIP3    H273410   1.891   6.098   3.739  1.8427 -2.0889  0.2799
17307TIP3   OH273411   3.472   0.808  11.794 -0.2436  0.0691 -1.0556
17307TIP3    H173412   3.378   0.809  11.812 -0.1999 -2.2965 -0.5296
17307TIP3    H273413   3.477   0.821  11.699 -1.0114  1.4228 -0.9379
17308TIP3   OH273414   4.445   4.981  13.684  0.3746  0.5052  0.3624
17308TIP3    H173415   4.528   4.972  13.636  2.5696  0.9204  3.9092
17308TIP3    H273416   4.411   5.066  13.657  1.0889  0.3473 -1.1029
17309TIP3   OH273417   4.092   6.705   6.365  0.9802  0.1795 -0.3695
17309TIP3    H173418   4.160   6.773   6.368 -0.1013  1.2574  0.3499
17309TIP3    H273419   4.140   6.623   6.352  2.6630  0.5653  2.9951
17310TIP3   OH273420   5.189   6.448  15.607  0.2691  0.3328 -0.0835
17310TIP3    H173421   5.243   6.371  15.626  0.9760  0.5330 -1.2605
17310TIP3    H273422   5.160   6.478  15.693  0.8300 -0.6437  0.4599
17311TIP3   OH273423   6.195   2.978  12.589  0.1674 -0.6460 -0.3096
17311TIP3    H173424   6.229   3.018  12.669 -1.3966  0.4493 -0.1863
17311TIP3    H273425   6.125   2.921  12.618 -1.6922  1.1986 -1.0392
17312TIP3   OH273426   6.238   1.080  13.798 -0.1724  0.0055 -0.2656
17312TIP3    H173427   6.157   1.116  13.761  0.4236  1.2664 -0.3487
17312TIP3    H273428   6.278   1.032  13.725  0.6946  1.9737 -1.0991
17313TIP3   OH273429   4.757   4.606   0.881  0.3037 -0.3408  0.1251
17313TIP3    H173430   4.786   4.522   0.845  1.8811  0.1658  0.1914
17313TIP3    H273431   4.755   4.665   0.806  0.0227 -0.2160  0.2303
17314TIP3   OH273432   2.265   0.874   5.502  0.2195  0.2918  0.3788
17314TIP3    H173433   2.342   0.930   5.514  0.0614  0.3592  1.1012
17314TIP3    H273434   2.193   0.924   5.540 -0.4034  0.7390 -1.3581
17315TIP3   OH273435   2.132   0.591   0.050 -0.5876  0.5819  0.1512
17315TIP3    H173436   2.156   0.536   0.124 -2.6261 -0.6496 -0.0760
17315TIP3    H273437   2.070   0.654   0.086 -0.9518  0.5021 -0.3370
17316TIP3   OH273438   4.947   4.331  10.973 -0.3083  0.3699 -0.2227
17316TIP3    H173439   4.903   4.413  10.996  0.0914  0.3879  0.4901
17316TIP3    H273440   4.966   4.340  10.880  2.0088  2.1711  0.3797
17317TIP3   OH273441   1.115   2.452  16.115 -0.9386 -0.0635  0.3691
17317TIP3    H173442   1.167   2.437  16.194  0.2631 -0.7129 -0.5276
17317TIP3    H273443   1.031   2.409  16.132 -0.1518 -1.4972  0.7034
17318TIP3   OH273444   1.209   3.712  11.637 -0.1504  0.0208  0.2623
17318TIP3    H173445   1.261   3.746  11.709  1.5193  1.4076 -1.5317
17318TIP3    H273446   1.256   3.632  11.610  1.2506  1.3961 -1.5048
17319TIP3   OH273447   5.491   4.325   2.488 -0.0718 -0.5686 -0.9669
17319TIP3    H173448   5.481   4.260   2.418 -0.1964  0.2334 -1.7028
17319TIP3    H273449   5.532   4.400   2.445  1.6378 -0.7716  0.2416
17320TIP3   OH273450   4.902   2.368  12.080  0.2652 -0.1533 -0.1269
17320TIP3    H173451   4.899   2.449  12.131  2.3625 -0.5432  0.6316
17320TIP3    H273452   4.844   2.308  12.127 -0.2885  0.4767  0.0113
17321TIP3   OH273453   0.758   4.263  12.474  0.4327 -0.3833 -0.2505
17321TIP3    H173454   0.677   4.218  12.451  0.2362  0.1467 -0.6126
17321TIP3    H273455   0.731   4.332  12.534  0.6051 -0.1419 -0.4524
17322TIP3   OH273456   5.793   2.780  17.094  0.4624  0.3049 -0.4828
17322TIP3    H173457   5.860   2.847  17.082  0.3612 -0.2065 -4.7268
17322TIP3    H273458   5.841   2.699  17.104  0.5189  0.4279  0.2623
17323TIP3   OH273459   3.045   5.277   3.382 -0.2534 -0.1115  0.4724
17323TIP3    H173460   3.124   5.294   3.331  1.0749 -2.8350  1.4989
17323TIP3    H273461   2.986   5.231   3.322 -0.0508 -0.2718  0.3949
17324TIP3   OH273462   1.521   6.108  12.146 -0.2649  0.3775 -0.4613
17324TIP3    H173463   1.539   6.021  12.182  1.5211  0.6616 -0.5952
17324TIP3    H273464   1.551   6.168  12.215 -3.3085  0.9005  0.4701
17325TIP3   OH273465   4.510   4.078   0.038 -0.2137  0.3242 -0.5178
17325TIP3    H173466   4.475   3.994   0.008 -1.8528  0.5665  0.6603
17325TIP3    H273467   4.436   4.139   0.031  1.0050  1.7475 -1.5620
17326TIP3   OH273468   1.726   3.781  15.786 -0.4805 -0.2126  0.0429
17326TIP3    H173469   1.807   3.750  15.747 -0.3511 -0.2391  0.3303
17326TIP3    H273470   1.657   3.731  15.743 -0.4504  0.7851 -1.1910
17327TIP3   OH273471   0.548   3.043  15.107  0.1247 -0.6375 -0.4953
17327TIP3    H173472   0.472   2.991  15.080  1.0672 -1.1001 -2.3388
17327TIP3    H273473   0.622   2.981  15.103  0.9324  0.3263 -0.7581
17328TIP3   OH273474   1.956   0.754   4.086  0.7966  0.3258 -0.3732
17328TIP3    H173475   1.973   0.705   4.005 -2.0009  1.4236 -1.6997
17328TIP3    H273476   1.892   0.701   4.133 -0.3098  1.4078 -0.6172
17329TIP3   OH273477   4.725   6.160   4.980  0.3164 -0.2972  0.3139
17329TIP3    H173478   4.657   6.153   5.047  0.5121 -2.2847  0.3186
17329TIP3    H273479   4.739   6.070   4.950  1.4801  0.3540 -1.1504
17330TIP3   OH273480   0.446   6.737   1.485  0.4295  0.0933 -0.4575
17330TIP3    H173481   0.389   6.790   1.540  0.4644  1.7126 -1.9437
17330TIP3    H273482   0.405   6.651   1.483 -0.2373  0.3666  1.0613
17331TIP3   OH273483   5.719   6.581   3.834 -0.1449 -0.1367  0.4475
17331TIP3    H173484   5.791   6.540   3.882 -0.8602 -0.7507  1.0052
17331TIP3    H273485   5.706   6.524   3.758  0.1006  0.0958  0.2307
17332TIP3   OH273486   2.268   6.316   0.528 -0.0274  0.4934 -0.6932
17332TIP3    H173487   2.324   6.321   0.605  1.7403 -1.7689 -1.7725
17332TIP3    H273488   2.286   6.397   0.480 -1.6321  2.2232  1.5364
17333TIP3   OH273489   3.043   0.868  16.273  0.3329  0.0151 -0.1292
17333TIP3    H173490   3.099   0.798  16.308  1.1114  0.3988 -0.5821
17333TIP3    H273491   2.955   0.832  16.277  0.8694 -1.5694 -1.6742
17334TIP3   OH273492   2.707   6.664  13.270  0.3456 -0.4702  0.4706
17334TIP3    H173493   2.731   6.649  13.362  1.7007 -0.3634  0.1549
17334TIP3    H273494   2.781   6.715  13.235 -1.7441  2.5158  0.2115
17335TIP3   OH273495   2.187   0.523   0.307  0.3907 -0.4571  0.6165
17335TIP3    H173496   2.236   0.605   0.315 -0.4394 -0.0505  1.5880
17335TIP3    H273497   2.146   0.511   0.393 -0.9937 -0.9304 -0.1030
17336TIP3   OH273498   2.165   0.332   2.309  0.1973 -0.4024  0.1824
17336TIP3    H173499   2.121   0.414   2.289 -1.0667 -1.1220 -0.0243
17336TIP3    H273500   2.126   0.269   2.249  0.2304 -1.4218  1.2205
17337TIP3   OH273501   0.618   5.866   3.674 -0.2138 -0.3181  0.1322
17337TIP3    H173502   0.596   5.959   3.662 -0.1019 -0.3103 -0.0089
17337TIP3    H273503   0.626   5.831   3.585 -3.1996 -1.1455  0.1289
17338TIP3   OH273504   5.943   3.687   4.058  0.2061  0.0085 -0.4548
17338TIP3    H173505   5.934   3.769   4.009 -0.7680 -0.2339 -0.6822
17338TIP3    H273506   5.907   3.620   4.000 -0.4879 -0.3561  0.3925
17339TIP3   OH273507   4.216   3.730   1.390  0.3308 -0.3588  0.1565
17339TIP3    H173508   4.167   3.786   1.450  0.2794 -0.4474  0.1973
17339TIP3    H273509   4.161   3.725   1.312  0.8412  0.5351 -0.2657
17340TIP3   OH273510   5.921   3.049  15.711  0.3122  0.0824  0.4797
17340TIP3    H173511   5.892   2.965  15.747  0.8685  0.8081  2.7209
17340TIP3    H273512   5.879   3.055  15.625 -0.7443 -1.9121  0.8400
17341TIP3   OH273513   1.870   1.807  16.768  0.2193  0.0463  0.7587
17341TIP3    H173514   1.879   1.893  16.727  0.8467 -0.3123  0.1265
17341TIP3    H273515   1.841   1.826  16.857 -2.6493  0.7613 -0.2858
17342TIP3   OH273516   4.184   1.643   5.444 -0.1821  0.2460 -0.6977
17342TIP3    H173517   4.145   1.688   5.519 -0.4677 -0.5959 -0.3408
17342TIP3    H273518   4.277   1.633   5.467  0.1551  1.7647 -1.3181
17343TIP3   OH273519   5.958   5.706  10.759  0.9172  0.2875 -0.3347
17343TIP3    H173520   5.979   5.652  10.684 -0.4370 -0.2187 -0.3735
17343TIP3    H273521   5.915   5.784  10.722  0.0112 -0.0828 -0.0932
17344TIP3   OH273522   5.387   2.262  10.740  0.3961 -0.4631 -0.0116
17344TIP3    H173523   5.405   2.170  10.760  1.4051 -0.4887 -0.9715
17344TIP3    H273524   5.311   2.260  10.681 -0.1948 -0.6124  0.7443
17345TIP3   OH273525   1.788   4.404   2.919  0.6662  0.0900 -0.0210
17345TIP3    H173526   1.847   4.330   2.933  1.0791  0.6787  1.4554
17345TIP3    H273527   1.700   4.367   2.925  0.8727 -0.2619  0.8097
17346TIP3   OH273528   1.359   4.753   5.446  0.0457 -0.1807 -0.2066
17346TIP3    H173529   1.390   4.748   5.355 -0.8768 -2.9300 -0.4196
17346TIP3    H273530   1.318   4.840   5.452  1.3155  0.5756 -2.0147
17347TIP3   OH273531   5.431   3.472  12.875 -0.9238 -0.5137 -0.3680
17347TIP3    H173532   5.439   3.404  12.942  2.6046  0.0893 -0.0805
17347TIP3    H273533   5.418   3.553  12.925  1.5266 -0.0899 -0.3612
17348TIP3   OH273534   5.045   6.281  13.477 -0.6428 -0.0838 -0.2800
17348TIP3    H173535   5.020   6.276  13.569  1.3224  0.0480  0.2672
17348TIP3    H273536   5.133   6.318  13.477 -1.3087  1.6319 -2.3154
17349TIP3   OH273537   1.317   1.630   1.852 -0.2185 -0.2924 -0.4137
17349TIP3    H173538   1.382   1.576   1.807 -1.5921 -1.8352 -0.6178
17349TIP3    H273539   1.260   1.663   1.782 -0.5122 -0.1393 -0.1059
17350TIP3   OH273540   6.093   1.823  16.584 -0.0217 -0.4771 -0.1969
17350TIP3    H173541   6.163   1.828  16.519  0.7027 -1.6198  0.4800
17350TIP3    H273542   6.131   1.773  16.657 -0.7565  0.9573  1.1909
17351TIP3   OH273543   2.944   4.288   0.880  0.3523 -0.0715  0.4528
17351TIP3    H173544   2.871   4.285   0.819  0.3488  0.1731  0.4460
17351TIP3    H273545   2.923   4.221   0.945 -0.0238  0.1968  0.6124
17352TIP3   OH273546   3.606   1.340   1.025 -0.5176 -0.1622 -0.4891
17352TIP3    H173547   3.624   1.421   1.075  1.9650 -0.8521 -0.1966
17352TIP3    H273548   3.658   1.349   0.945 -0.6363 -1.2549 -0.6963
17353TIP3   OH273549   3.522   4.264   2.999 -0.1193  0.1174  0.2567
17353TIP3    H173550   3.525   4.359   3.004 -1.9999  0.1888  0.1651
17353TIP3    H273551   3.608   4.239   2.966  0.1821  1.8069 -0.2653
17354TIP3   OH273552   0.765   1.860   0.597 -0.1199 -0.3899 -0.3462
17354TIP3    H173553   0.698   1.823   0.654  0.3728 -1.2028 -0.2741
17354TIP3    H273554   0.786   1.945   0.635 -2.6366  0.8265 -1.5855
17355TIP3   OH273555   1.072   5.791  12.450 -0.1129 -0.4014 -0.3857
17355TIP3    H173556   1.133   5.853  12.411 -1.5156  1.0314 -0.3266
17355TIP3    H273557   1.005   5.777  12.383 -0.2535 -1.2211 -0.0844
17356TIP3   OH273558   1.645   1.813   5.125  0.3011  0.5642  0.4661
17356TIP3    H173559   1.647   1.719   5.107  1.5659  0.7001 -0.2058
17356TIP3    H273560   1.566   1.845   5.080  0.0560 -0.1201  0.4066
17357TIP3   OH273561   6.757   2.438   5.697 -0.1253 -0.2519  0.3678
17357TIP3    H173562   6.852   2.438   5.713  0.0249 -1.2340 -0.4369
17357TIP3    H273563   6.718   2.460   5.781  0.8216  0.0008  0.7431
17358TIP3   OH273564   4.806   2.204   5.666 -0.7432  0.3910 -0.0796
17358TIP3    H173565   4.846   2.291   5.675 -0.2623  0.0717  0.8684
17358TIP3    H273566   4.715   2.223   5.640  0.3990  1.0829 -3.9275
17359TIP3   OH273567   3.696   0.411   5.611  0.0340  0.6801 -0.0549
17359TIP3    H173568   3.683   0.471   5.685 -1.2908  1.5501 -0.9669
17359TIP3    H273569   3.713   0.326   5.651 -0.3098  1.2229  1.2565
17360TIP3   OH273570   3.974   5.396   5.498 -0.1409 -0.7226  0.0884
17360TIP3    H173571   4.060   5.376   5.462 -0.0808  1.7145 -1.2180
17360TIP3    H273572   3.912   5.359   5.435 -0.0290  0.4935 -0.7563
17361TIP3   OH273573   6.303   1.638   5.151  0.0771  0.0178  0.1108
17361TIP3    H173574   6.311   1.543   5.154  0.7246  0.0607 -0.0612
17361TIP3    H273575   6.266   1.656   5.064  0.2017 -0.0640  0.0401
17362TIP3   OH273576   4.079   6.106   1.660  0.5909 -0.0800 -0.4175
17362TIP3    H173577   4.101   6.027   1.709  1.2006  0.9113  0.9405
17362TIP3    H273578   3.985   6.118   1.674  0.9396  0.7383  1.3382
17363TIP3   OH273579   3.824   6.031  12.909  0.2461  0.1791  0.4840
17363TIP3    H173580   3.837   5.999  12.819  2.3269  0.2326  0.7522
17363TIP3    H273581   3.743   5.989  12.937  1.2117 -2.2972 -0.3335
17364TIP3   OH273582   6.430   2.949   4.506  0.0811 -0.6019  0.1273
17364TIP3    H173583   6.485   2.996   4.443 -0.3253 -0.0850  0.1513
17364TIP3    H273584   6.346   2.939   4.461  0.5125 -2.3562 -0.3285
17365TIP3   OH273585   2.667   0.768  14.365 -0.2526  0.2346  0.6020
17365TIP3    H173586   2.651   0.683  14.407 -1.5006 -0.0601 -0.4463
17365TIP3    H273587   2.648   0.832  14.433 -0.1336 -0.2965  1.1430
17366TIP3   OH273588   5.697   0.111   1.288  0.0877  0.1052  0.3251
17366TIP3    H173589   5.625   0.066   1.332 -0.0325 -1.4502 -1.3938
17366TIP3    H273590   5.705   0.195   1.334 -2.9278  0.3983  0.4102
17367TIP3   OH273591   0.019   0.272   1.693 -0.2945  0.1486 -0.1538
17367TIP3    H173592   0.092   0.243   1.747  0.9275  1.9976 -0.7862
17367TIP3    H273593   0.012   0.366   1.710 -1.4474  0.3017 -1.3875
17368TIP3   OH273594   0.405   0.107  12.662 -0.0757  0.0095 -0.3064
17368TIP3    H173595   0.399   0.020  12.622 -2.1960 -0.3676  0.7418
17368TIP3    H273596   0.318   0.123  12.698 -0.0020  3.0383 -1.3761
17369TIP3   OH273597   0.320   6.100  12.765  0.0272  0.4170 -0.1697
17369TIP3    H173598   0.235   6.069  12.795 -1.6597  1.9055 -3.2442
17369TIP3    H273599   0.326   6.190  12.798 -0.7259  1.1731 -2.0183
17370TIP3   OH273600   1.184   5.410   6.270 -0.6780  0.2377 -0.1656
17370TIP3    H173601   1.137   5.493   6.260 -0.5687  0.1926 -1.1219
17370TIP3    H273602   1.274   5.437   6.290 -0.8835  0.3322  0.6532
17371TIP3   OH273603   1.902   2.174  12.260 -0.2193 -0.0616  0.4072
17371TIP3    H173604   1.927   2.263  12.282  1.8492 -0.9413  1.7499
17371TIP3    H273605   1.974   2.141  12.205 -0.4150 -1.2677  0.8607
17372TIP3   OH273606   0.251   0.947   1.242 -0.8498  0.4282 -0.2062
17372TIP3    H173607   0.295   0.914   1.321 -0.5688  0.4753 -0.3413
17372TIP3    H273608   0.211   0.869   1.203 -1.7503  0.5469  0.4588
17373TIP3   OH273609   0.777   1.328  11.192 -0.3958 -0.4554  0.6138
17373TIP3    H173610   0.693   1.369  11.214 -0.8429 -0.6458 -0.6885
17373TIP3    H273611   0.753   1.243  11.155  0.3237 -0.2364 -0.3842
17374TIP3   OH273612   2.687   3.493   2.555 -0.4299 -0.1760 -0.0243
17374TIP3    H173613   2.727   3.534   2.632 -0.5049 -0.1793  0.0156
17374TIP3    H273614   2.689   3.399   2.574 -2.4693 -0.0487  0.9376
17375TIP3   OH273615   2.873   2.483  15.570 -0.0228  0.2119 -0.1607
17375TIP3    H173616   2.877   2.388  15.581  0.5207  0.0605 -1.5552
17375TIP3    H273617   2.901   2.518  15.655 -1.0213 -0.8577  0.6231
17376TIP3   OH273618   6.108   4.166   6.935  0.3831  0.2932 -0.2809
17376TIP3    H173619   6.084   4.252   6.969  0.8766  1.4727 -2.8313
17376TIP3    H273620   6.200   4.174   6.911  0.7080 -1.2624  0.3592
17377TIP3   OH273621   5.624   3.797  16.824  0.4688  0.1863 -0.5151
17377TIP3    H173622   5.698   3.823  16.768 -0.1221  0.2083 -1.2834
17377TIP3    H273623   5.636   3.703  16.837 -0.3205 -0.1426 -2.0592
17378TIP3   OH273624   5.148   4.119   3.000  0.2011  0.2097  0.2478
17378TIP3    H173625   5.165   4.032   3.037  2.1744 -0.1373 -1.4223
17378TIP3    H273626   5.114   4.101   2.913 -2.1216  1.0856  0.9346
17379TIP3   OH273627   6.772   2.912  10.816 -0.4053  0.0687  0.2196
17379TIP3    H173628   6.840   2.962  10.860 -0.0196 -0.3181  0.0667
17379TIP3    H273629   6.770   2.948  10.727  0.8562 -1.1423 -0.3134
17380TIP3   OH273630   2.813   6.003  15.417 -0.1475  0.7501 -0.3982
17380TIP3    H173631   2.727   6.011  15.377 -0.8803  0.5390  1.0926
17380TIP3    H273632   2.860   6.082  15.390  0.0286 -0.2363 -3.1512
17381TIP3   OH273633   4.227   5.614   0.393  0.2696 -0.3793 -0.2060
17381TIP3    H173634   4.136   5.589   0.407 -0.0491  0.9452  0.2637
17381TIP3    H273635   4.278   5.543   0.430 -0.5903 -0.0283  1.7424
17382TIP3   OH273636   6.715   5.909   5.677  0.1997 -0.9307 -0.3007
17382TIP3    H173637   6.664   5.832   5.652 -1.3709 -0.4894  1.4336
17382TIP3    H273638   6.726   5.901   5.772 -0.4392  1.2553 -0.0147
17383TIP3   OH273639   3.446   4.172   4.068  0.0931  0.1682 -0.1787
17383TIP3    H173640   3.433   4.138   4.156  0.8904  0.2135 -0.0411
17383TIP3    H273641   3.417   4.101   4.010  2.8471 -1.2205  0.0913
17384TIP3   OH273642   4.250   0.713  14.880  0.2054  0.4811  1.3599
17384TIP3    H173643   4.290   0.677  14.801  1.7013  1.3200  1.7105
17384TIP3    H273644   4.223   0.637  14.931  0.2084 -0.0749  0.5384
17385TIP3   OH273645   5.531   1.809  15.489  0.0281 -0.3346  0.4466
17385TIP3    H173646   5.598   1.782  15.552 -1.4555 -0.7609  1.8867
17385TIP3    H273647   5.459   1.840  15.544 -2.2412 -2.9367 -0.9621
17386TIP3   OH273648   5.661   3.380  15.587 -0.5178 -0.2365 -0.2268
17386TIP3    H173649   5.701   3.466  15.574 -1.3098  0.1653 -0.0337
17386TIP3    H273650   5.607   3.366  15.509  1.2594 -1.4986 -1.2643
17387TIP3   OH273651   4.617   6.686  11.145 -0.4202  0.5200 -0.0726
17387TIP3    H173652   4.530   6.661  11.177 -0.5866  0.9375 -0.1833
17387TIP3    H273653   4.602   6.771  11.102 -0.0889  0.2431 -0.7375
17388TIP3   OH273654   4.124   3.745   5.784  0.0731 -0.3340  0.4389
17388TIP3    H173655   4.102   3.827   5.739  1.1193 -0.9690 -1.3064
17388TIP3    H273656   4.154   3.772   5.870 -1.0039  1.0057  0.4166
17389TIP3   OH273657   2.620   1.841   0.105 -0.1317 -0.1911 -0.5094
17389TIP3    H173658   2.566   1.840   0.184  0.0343  0.8047 -0.3699
17389TIP3    H273659   2.557   1.824   0.034 -0.6242  0.8119 -0.3329
17390TIP3   OH273660   3.064   3.778  15.186 -0.3442  0.0817 -0.2177
17390TIP3    H173661   3.049   3.721  15.111  2.5266 -0.2808 -0.5660
17390TIP3    H273662   3.047   3.721  15.262  0.2828 -0.5968 -0.5760
17391TIP3   OH273663   2.503   1.021   5.530  0.0184 -0.4968  0.0267
17391TIP3    H173664   2.535   1.015   5.620 -0.6585 -0.7192  0.2561
17391TIP3    H273665   2.531   1.107   5.500  0.3026 -0.4479  0.4335
17392TIP3   OH273666   1.750   0.299  16.207  0.0831 -0.0137  0.3234
17392TIP3    H173667   1.823   0.349  16.245  0.6108 -1.3269  1.0615
17392TIP3    H273668   1.772   0.208  16.224 -1.5169 -0.4458  0.1399
17393TIP3   OH273669   6.113   3.674  17.229  0.1937 -0.1756 -0.0637
17393TIP3    H173670   6.124   3.595  17.175 -0.2914  1.1154 -2.1359
17393TIP3    H273671   6.203   3.697  17.255  0.4712 -0.6492 -0.5780
17394TIP3   OH273672   2.430   6.592  17.262 -0.8008 -0.4761 -0.0144
17394TIP3    H173673   2.380   6.669  17.235  0.0336 -0.2652 -1.0022
17394TIP3    H273674   2.520   6.622  17.266 -0.8247 -0.6581  2.5140
17395TIP3   OH273675   2.455   3.680  13.043 -0.2175  0.3141  0.3406
17395TIP3    H173676   2.487   3.615  13.106  0.4710 -1.3791 -1.6802
17395TIP3    H273677   2.533   3.731  13.021 -0.1185 -0.0823 -0.2516
17396TIP3   OH273678   2.506   3.118   4.571 -0.3806 -0.0675 -0.0299
17396TIP3    H173679   2.574   3.184   4.586 -0.7935  0.5082 -0.6597
17396TIP3    H273680   2.449   3.157   4.505  0.4902 -1.8466 -1.8957
17397TIP3   OH273681   5.904   2.299  16.014 -0.1088 -0.8914 -0.5670
17397TIP3    H173682   5.831   2.237  16.026 -0.0696 -0.6583  0.9823
17397TIP3    H273683   5.969   2.250  15.963  0.0997 -2.2708  0.9988
17398TIP3   OH273684   1.823   3.102   2.795 -0.4632  0.9326  0.0921
17398TIP3    H173685   1.729   3.088   2.781 -0.8505  1.7519  1.7589
17398TIP3    H273686   1.865   3.053   2.725 -2.1344  0.3530 -0.5298
17399TIP3   OH273687   1.573   0.501  16.761  0.3733  0.2609  0.1061
17399TIP3    H173688   1.560   0.594  16.743 -0.0880 -0.1442 -1.7372
17399TIP3    H273689   1.666   0.494  16.782  0.5979  0.9938 -0.6200
17400TIP3   OH273690   3.924   1.244  12.823 -0.3665  0.1011  0.0070
17400TIP3    H173691   4.003   1.237  12.877  0.3044  1.2853 -0.8088
17400TIP3    H273692   3.954   1.283  12.741 -2.0439  2.0924  0.2901
17401TIP3   OH273693   5.380   4.666  14.596  0.0616 -0.0090  0.3903
17401TIP3    H173694   5.340   4.746  14.562  0.3794  1.3558  3.0380
17401TIP3    H273695   5.471   4.671  14.570 -0.2464 -0.2837 -0.7629
17402TIP3   OH273696   0.163   1.277  16.107 -0.4036  0.5210  0.4371
17402TIP3    H173697   0.096   1.212  16.088 -3.0683  3.0144  1.0357
17402TIP3    H273698   0.219   1.278  16.029 -2.5829  0.2766 -1.1617
17403TIP3   OH273699   3.623   3.577  14.903 -0.6706 -0.3979 -0.3601
17403TIP3    H173700   3.623   3.614  14.814 -0.0445  0.8121  0.1188
17403TIP3    H273701   3.624   3.654  14.960 -0.7429 -1.1701  0.6889
17404TIP3   OH273702   4.248   1.276   6.118 -0.0275 -0.6461  0.4571
17404TIP3    H173703   4.195   1.299   6.194 -0.8642 -2.1596  0.3578
17404TIP3    H273704   4.317   1.221   6.153  1.3705  1.1182  0.5461
17405TIP3   OH273705   0.817   5.177   4.212 -0.3623  0.9702 -0.4747
17405TIP3    H173706   0.884   5.166   4.146  1.1857 -0.7170  1.3305
17405TIP3    H273707   0.845   5.254   4.262  0.2291  0.3019  0.2410
17406TIP3   OH273708   3.310   1.345   0.291 -0.1719 -0.0981  0.3682
17406TIP3    H173709   3.301   1.251   0.305  2.1420  0.0956  4.1079
17406TIP3    H273710   3.230   1.382   0.327 -0.7495 -0.6044 -0.3985
17407TIP3   OH273711   3.713   3.772   4.826 -0.3331  0.1082  0.0015
17407TIP3    H173712   3.692   3.814   4.743 -0.9003 -2.2289 -1.0727
17407TIP3    H273713   3.799   3.733   4.812  0.6136  1.6419  1.2973
17408TIP3   OH273714   5.089   5.046  11.058  0.1436  0.4775 -0.1095
17408TIP3    H173715   5.161   5.048  10.996  0.8431 -0.6005  0.6379
17408TIP3    H273716   5.060   4.954  11.058  0.3577  0.3896  1.3436
17409TIP3   OH273717   6.643   1.683  15.395 -0.8480 -0.2016  0.2326
17409TIP3    H173718   6.591   1.603  15.407 -1.5728 -0.4306 -3.6133
17409TIP3    H273719   6.733   1.654  15.407 -1.0485 -1.8303 -1.7945
17410TIP3   OH273720   1.635   3.117   0.590 -0.3111  0.2251 -0.4237
17410TIP3    H173721   1.609   3.127   0.498  1.8885  3.3993 -0.7591
17410TIP3    H273722   1.725   3.147   0.594  0.1658 -1.3577  2.5330
17411TIP3   OH273723   5.407   5.695  12.778 -0.0794 -0.0145  0.1233
17411TIP3    H173724   5.404   5.623  12.841 -1.8174 -0.8025 -0.8396
17411TIP3    H273725   5.376   5.657  12.696  2.0289  1.0339 -1.2129
17412TIP3   OH273726   4.679   6.019  16.726  0.2065 -0.2194  0.1695
17412TIP3    H173727   4.702   6.106  16.694  0.6143 -0.3617  0.0659
17412TIP3    H273728   4.761   5.969  16.718 -0.0030 -0.5833  0.3123
17413TIP3   OH273729   2.411   1.325  12.275  0.2202 -0.1689 -0.4022
17413TIP3    H173730   2.421   1.292  12.364 -0.8640 -0.9987 -0.5768
17413TIP3    H273731   2.435   1.251  12.219 -2.0858 -0.6408 -0.7976
17414TIP3   OH273732   3.732   3.146   5.070 -0.7228 -0.2140 -0.2374
17414TIP3    H173733   3.783   3.124   5.148 -1.5962 -0.5976  0.2428
17414TIP3    H273734   3.774   3.224   5.034  0.6894 -0.9966 -0.3200
17415TIP3   OH273735   3.783   5.911  15.056 -0.6060 -0.3976  0.9835
17415TIP3    H173736   3.840   5.910  14.979  0.0017  2.9308  1.3387
17415TIP3    H273737   3.842   5.896  15.130 -0.6848 -0.1047  1.1038
17416TIP3   OH273738   4.226   1.664   3.389  0.0615 -0.5147 -1.0136
17416TIP3    H173739   4.226   1.675   3.484 -2.2890  1.9136 -1.2510
17416TIP3    H273740   4.148   1.611   3.372 -0.3231  0.2842 -1.7195
17417TIP3   OH273741   0.409   1.843  11.251  0.2347  0.1560  0.0237
17417TIP3    H173742   0.331   1.844  11.308  0.9202 -0.8211  1.0086
17417TIP3    H273743   0.393   1.771  11.190  0.5173 -0.2650  0.4459
17418TIP3   OH273744   3.117   1.681  14.078  0.9772 -0.5515 -0.1933
17418TIP3    H173745   3.108   1.678  14.173  1.0300 -2.0579 -0.2139
17418TIP3    H273746   3.059   1.610  14.047 -1.9951  2.3093 -1.5172
17419TIP3   OH273747   4.316   0.765  12.152  0.0740 -0.0185  0.5588
17419TIP3    H173748   4.348   0.775  12.063 -0.3151  2.7033  0.7011
17419TIP3    H273749   4.229   0.727  12.142 -0.7280  1.9868 -0.3448
17420TIP3   OH273750   1.851   3.106   2.247 -0.4690 -0.5300  0.2652
17420TIP3    H173751   1.866   3.139   2.159  1.9707 -0.9371  0.5066
17420TIP3    H273752   1.763   3.069   2.244 -1.0080  0.8217 -1.5596
17421TIP3   OH273753   4.614   4.818   0.046 -0.0304 -0.0823 -0.4247
17421TIP3    H173754   4.670   4.891   0.071  2.3589 -1.9998  0.0625
17421TIP3    H273755   4.623   4.812  -0.049  1.4606 -0.9983 -0.2516
17422TIP3   OH273756   2.522   6.606   5.110 -0.7062  0.1606  0.2928
17422TIP3    H173757   2.489   6.517   5.110  0.1114 -0.1942 -1.9384
17422TIP3    H273758   2.567   6.616   5.194  1.9822 -2.6464 -0.7029
17423TIP3   OH273759   2.633   3.871   2.390  0.1817  0.3939 -0.0558
17423TIP3    H173760   2.636   3.962   2.419 -3.1716  0.6340 -0.3137
17423TIP3    H273761   2.639   3.875   2.295 -0.3703  0.3796 -0.0927
17424TIP3   OH273762   3.628   5.932   5.692 -0.4498  0.1546  0.3993
17424TIP3    H173763   3.617   5.849   5.738 -2.4248  0.7104  0.9537
17424TIP3    H273764   3.540   5.956   5.663  0.1697  1.8191 -0.1639
17425TIP3   OH273765   0.343   2.690  11.468 -0.1861 -0.0087  0.3248
17425TIP3    H173766   0.426   2.695  11.515 -0.3123 -1.7481  0.7541
17425TIP3    H273767   0.276   2.709  11.534 -0.2034  0.4469  0.1825
17426TIP3   OH273768   4.195   1.405  12.237 -0.0396  0.1031 -0.4689
17426TIP3    H173769   4.184   1.449  12.321  0.9408 -2.7745  1.2206
17426TIP3    H273770   4.274   1.444  12.199  0.6219  0.0444  0.8378
17427TIP3   OH273771   4.606   3.855  14.919 -0.0959 -0.1581  0.0220
17427TIP3    H173772   4.572   3.907  14.846 -0.7293  0.0313  0.4449
17427TIP3    H273773   4.649   3.780  14.878  1.6592  1.1943 -0.6257
17428TIP3   OH273774   3.825   1.666   4.236  0.2169 -0.0142 -0.1622
17428TIP3    H173775   3.732   1.689   4.240 -0.2599 -2.0727  1.5359
17428TIP3    H273776   3.827   1.577   4.201  1.6097  0.2629 -0.8324
17429TIP3   OH273777   0.062   6.662   3.079  0.2560 -0.1882  0.9160
17429TIP3    H173778   0.053   6.751   3.045  2.5761  0.1341  1.0725
17429TIP3    H273779   0.152   6.637   3.059 -0.0300 -2.0946  1.8542
17430TIP3   OH273780   2.672   2.089  16.247 -0.4652 -0.1348 -0.5780
17430TIP3    H173781   2.656   2.182  16.232 -3.3337 -0.2538  1.3565
17430TIP3    H273782   2.590   2.046  16.224 -0.7146 -1.6600  2.7759
17431TIP3   OH273783   1.653   1.370   5.035  0.3147 -0.5154 -0.0720
17431TIP3    H173784   1.720   1.311   5.069  1.6127  0.6461 -0.5315
17431TIP3    H273785   1.703   1.446   5.004 -1.0857 -0.2853 -1.8281
17432TIP3   OH273786   2.425   6.328  17.144  0.0856  0.0958  0.1108
17432TIP3    H173787   2.489   6.299  17.209 -2.5356  1.0059  3.2590
17432TIP3    H273788   2.420   6.423  17.156 -1.7151  0.0603 -0.0967
17433TIP3   OH273789   5.405   1.864  13.898 -0.5277 -0.1782  0.0035
17433TIP3    H173790   5.491   1.857  13.856  0.1122  2.0916  0.8420
17433TIP3    H273791   5.424   1.852  13.991 -1.4607 -1.9418 -0.0216
17434TIP3   OH273792   3.635   2.498  12.269  0.8797  0.0357 -0.0733
17434TIP3    H173793   3.700   2.546  12.322  0.3642 -0.4015  0.9781
17434TIP3    H273794   3.629   2.547  12.187  0.6325  1.5611  0.8419
17435TIP3   OH273795   1.520   1.973   5.717  0.3253  0.0168 -0.1209
17435TIP3    H173796   1.554   1.900   5.666  0.5439  0.2605 -0.3289
17435TIP3    H273797   1.425   1.966   5.711  0.3504  1.0700 -2.0398
17436TIP3   OH273798   2.203   3.024  12.878 -0.1374  0.5712 -0.1411
17436TIP3    H173799   2.174   2.933  12.891 -2.5727  1.0386 -1.8506
17436TIP3    H273800   2.233   3.052  12.964 -2.5505 -0.8065  1.2185
17437TIP3   OH273801   2.118   6.616  12.466 -0.4838  0.0097 -0.8282
17437TIP3    H173802   2.135   6.682  12.398 -0.7655 -0.6799 -1.5786
17437TIP3    H273803   2.042   6.567  12.433  0.6960 -1.7142 -1.0302
17438TIP3   OH273804   4.093   6.422  16.541 -0.0469  0.0289 -0.0305
17438TIP3    H173805   4.119   6.489  16.478  1.0235 -0.5324 -0.2036
17438TIP3    H273806   4.120   6.339  16.501 -1.7467 -0.5535 -0.0180
17439TIP3   OH273807   0.488   1.201   5.266  0.3819 -0.3357  0.0552
17439TIP3    H173808   0.423   1.262   5.232  1.9402  0.3458 -1.7936
17439TIP3    H273809   0.557   1.257   5.302  1.7034 -0.9759 -1.4120
17440TIP3   OH273810   6.361   6.238   0.171 -0.4176  0.1286  0.0336
17440TIP3    H173811   6.309   6.268   0.096 -1.0889 -0.0633  0.4240
17440TIP3    H273812   6.302   6.245   0.246  0.3675  0.6594  0.6081
17441TIP3   OH273813   1.015   0.262   0.572 -0.2060  0.5647  0.4145
17441TIP3    H173814   1.062   0.183   0.547 -1.3293 -0.2408  0.7974
17441TIP3    H273815   1.059   0.292   0.652  0.9312  0.9725 -0.3545
17442TIP3   OH273816   0.070   4.206  14.950 -0.2313  1.0515 -0.3721
17442TIP3    H173817  -0.012   4.247  14.922 -1.6036 -1.6986 -0.5892
17442TIP3    H273818   0.095   4.151  14.875 -0.5291 -1.4660  1.3271
17443TIP3   OH273819   3.757   6.626   2.792 -0.6460  0.0116  0.0521
17443TIP3    H173820   3.747   6.533   2.770 -0.4986  0.1692 -0.6874
17443TIP3    H273821   3.850   6.644   2.777 -0.6125  0.2057  0.4854
17444TIP3   OH273822   3.134   5.141  13.695  0.1170  0.2817  0.2610
17444TIP3    H173823   3.212   5.087  13.680  1.0059  2.1305 -2.0694
17444TIP3    H273824   3.069   5.107  13.634  0.5920  1.6738 -1.0228
17445TIP3   OH273825   0.629   6.473   0.255  0.2762 -0.2040  0.6747
17445TIP3    H173826   0.553   6.508   0.209  1.6133  1.7144 -0.1470
17445TIP3    H273827   0.610   6.488   0.348  0.1553  1.3779  0.4126
17446TIP3   OH273828   0.802   2.823   4.400  0.2844 -0.0684 -0.2218
17446TIP3    H173829   0.717   2.784   4.423  0.4155 -0.0954  0.2175
17446TIP3    H273830   0.852   2.751   4.361  0.2240 -0.1310 -0.1837
17447TIP3   OH273831   6.480   0.467  12.592 -0.0640  0.0304  0.0089
17447TIP3    H173832   6.428   0.408  12.646 -2.0777  1.2928 -0.4719
17447TIP3    H273833   6.510   0.535  12.653  1.4449 -0.9655  0.3794
17448TIP3   OH273834   2.631   5.535   0.483  0.2017  0.2088  0.0315
17448TIP3    H173835   2.618   5.581   0.400 -0.4352 -1.4420 -0.8046
17448TIP3    H273836   2.619   5.603   0.550  1.2072  1.6671 -1.2261
17449TIP3   OH273837   2.956   1.778  13.552 -0.2505 -0.8494  0.4095
17449TIP3    H173838   2.974   1.796  13.460  0.8265 -4.6591 -0.1887
17449TIP3    H273839   3.038   1.799  13.597 -0.1131 -0.9564  0.2100
17450TIP3   OH273840   5.540   6.073   3.587  0.0387 -0.1619 -0.0447
17450TIP3    H173841   5.621   6.024   3.605  1.7437  2.0039 -1.5958
17450TIP3    H273842   5.506   6.032   3.508  2.2234  1.9875 -2.1641
17451TIP3   OH273843   0.478   3.785   2.975 -0.1511  0.8049 -0.4436
17451TIP3    H173844   0.424   3.774   2.897  0.8582  1.0926 -1.1787
17451TIP3    H273845   0.536   3.858   2.955  1.3829 -0.3018 -0.1455
17452TIP3   OH273846   3.806   2.880   2.777 -0.2449 -0.3037  0.1146
17452TIP3    H173847   3.881   2.888   2.837 -0.9006  1.9007  0.6645
17452TIP3    H273848   3.735   2.849   2.832  0.4011 -3.1899 -0.5643
17453TIP3   OH273849   2.932   4.235  13.942  0.2019  0.0055 -0.0119
17453TIP3    H173850   2.954   4.196  14.027  2.2857 -0.3932 -0.6948
17453TIP3    H273851   2.848   4.196  13.919 -0.4891  0.3008  1.9734
17454TIP3   OH273852   5.135   2.473  16.115 -0.2961 -0.3789  0.3799
17454TIP3    H173853   5.170   2.387  16.139 -0.4981 -0.1763  1.4507
17454TIP3    H273854   5.058   2.484  16.171  0.0401  0.7250  0.6441
17455TIP3   OH273855   6.745   2.732   4.040  0.0948 -0.1778 -0.2791
17455TIP3    H173856   6.768   2.745   3.948 -0.9160  1.0382 -0.3756
17455TIP3    H273857   6.669   2.674   4.037  0.0033 -0.0610 -0.2265
17456TIP3   OH273858   6.377   2.260   5.810  0.4261 -0.3017 -0.3581
17456TIP3    H173859   6.382   2.243   5.904 -0.1481  1.5386  0.0249
17456TIP3    H273860   6.445   2.205   5.772  2.3431  0.7850  1.4166
17457TIP3   OH273861   5.788   3.803   0.464 -0.0287  0.2556 -0.5536
17457TIP3    H173862   5.779   3.776   0.373  2.8166  1.5042 -1.2756
17457TIP3    H273863   5.869   3.762   0.494 -2.1696 -2.1242  2.2300
17458TIP3   OH273864   5.331   0.372  16.452 -0.4708 -0.0985  0.2608
17458TIP3    H173865   5.426   0.361  16.463 -0.3063  1.8601  0.9880
17458TIP3    H273866   5.319   0.386  16.358  0.1764  1.4477  0.3942
17459TIP3   OH273867   5.040   3.815   4.074 -0.4952  0.3667  0.2195
17459TIP3    H173868   4.984   3.754   4.122 -0.4257  0.5808  0.5760
17459TIP3    H273869   4.979   3.882   4.042 -0.7663 -0.5946 -1.3089
17460TIP3   OH273870   1.120   3.563  11.305  0.1934 -0.8462  0.1414
17460TIP3    H173871   1.103   3.469  11.312  1.5750 -0.9806  2.4354
17460TIP3    H273872   1.033   3.603  11.299 -0.3548 -2.3875 -3.5319
17461TIP3   OH273873   3.720   3.281  15.583  0.1565 -0.4673 -0.5447
17461TIP3    H173874   3.778   3.271  15.659 -1.0614  0.3650  0.5159
17461TIP3    H273875   3.771   3.247  15.510  0.7664 -2.7972  0.8960
17462TIP3   OH273876   1.210   6.337  14.305  0.5348 -0.0861 -0.6615
17462TIP3    H173877   1.150   6.387  14.361  0.8612 -2.3936  1.8245
17462TIP3    H273878   1.268   6.404  14.268 -0.3502  1.6200  0.9121
17463TIP3   OH273879   2.839   0.370   0.794 -0.0656  0.1043  0.1749
17463TIP3    H173880   2.872   0.307   0.730 -0.4973 -0.5795  0.6197
17463TIP3    H273881   2.913   0.427   0.813 -0.0965  0.6953 -1.3998
17464TIP3   OH273882   4.559   6.802   3.412  0.4951 -0.1626 -0.3773
17464TIP3    H173883   4.519   6.774   3.495  0.1978 -0.7094 -0.7031
17464TIP3    H273884   4.484   6.818   3.355  0.6930  0.4997 -0.4509
17465TIP3   OH273885   4.262   5.208  16.510  0.6825 -0.4832  0.0321
17465TIP3    H173886   4.168   5.213  16.492  0.5229 -0.5445  0.8492
17465TIP3    H273887   4.284   5.117  16.492  1.0421  0.0310 -2.3234
17466TIP3   OH273888   4.799   3.733   5.534  0.1057  0.2750  0.3708
17466TIP3    H173889   4.755   3.657   5.495  3.7702 -1.5282 -0.4806
17466TIP3    H273890   4.813   3.708   5.625  0.2353  0.4141  0.3902
17467TIP3   OH273891   0.584   6.008  12.400  0.4258  0.6301  0.1141
17467TIP3    H173892   0.548   5.927  12.365 -1.6529  1.1308  0.9948
17467TIP3    H273893   0.624   6.052  12.325  0.6242 -0.7024 -0.5663
17468TIP3   OH273894   0.101   3.022   5.528  0.1531 -0.5288 -0.4846
17468TIP3    H173895   0.031   2.958   5.538 -1.2367  0.8726 -1.0400
17468TIP3    H273896   0.151   3.016   5.609 -1.6577 -0.3311  0.6787
17469TIP3   OH273897   4.138   1.538   0.450 -0.2501  0.3770 -0.4186
17469TIP3    H173898   4.072   1.525   0.382  0.3921 -1.8387 -0.6742
17469TIP3    H273899   4.221   1.515   0.408  0.5365  1.9006  0.2601
17470TIP3   OH273900   0.511   2.399  13.839  0.2249 -0.0127  0.0915
17470TIP3    H173901   0.583   2.436  13.789  0.9763 -1.1933  0.2710
17470TIP3    H273902   0.554   2.348  13.909 -0.7868  0.1778  0.8602
17471TIP3   OH273903   6.236   3.837   1.823  0.4381 -0.0005  0.2211
17471TIP3    H173904   6.265   3.749   1.797  1.4542  1.3111 -3.4736
17471TIP3    H273905   6.141   3.835   1.812  0.5326 -0.4331 -0.5604
17472TIP3   OH273906   6.001   3.529  16.885  0.7914  0.8427  0.0383
17472TIP3    H173907   6.043   3.499  16.966 -3.1734 -0.7914  1.6284
17472TIP3    H273908   6.018   3.623  16.883 -0.9697  1.3697  4.0928
17473TIP3   OH273909   0.408   3.488   0.384 -0.1370  0.5254 -0.1847
17473TIP3    H173910   0.444   3.406   0.350 -0.2460 -0.2574  1.5290
17473TIP3    H273911   0.473   3.517   0.448 -1.7604 -0.0407  1.7359
17474TIP3   OH273912   2.179   4.787   2.382  0.7135  0.0048  0.0491
17474TIP3    H173913   2.224   4.708   2.352  1.9713  0.7059  0.0635
17474TIP3    H273914   2.096   4.755   2.418  1.5122 -1.3869  0.7072
17475TIP3   OH273915   5.493   2.571  16.433 -0.2191  0.2555 -0.0859
17475TIP3    H173916   5.483   2.660  16.399  4.5422  1.2235  0.6640
17475TIP3    H273917   5.479   2.579  16.527  3.2148  0.9213  0.4389
17476TIP3   OH273918   1.342   4.228   4.592  0.0304  0.7667 -0.1258
17476TIP3    H173919   1.278   4.299   4.588 -0.9001 -0.0066  0.7519
17476TIP3    H273920   1.315   4.176   4.668  1.3895  0.1338 -0.0609
17477TIP3   OH273921   2.710   5.883   1.322 -0.3628 -0.1556 -0.4345
17477TIP3    H173922   2.799   5.916   1.325 -0.1463 -0.6704 -0.9609
17477TIP3    H273923   2.678   5.910   1.236 -0.9545  0.6224  0.0205
17478TIP3   OH273924   0.192   1.197  14.338  0.8287  0.6257  0.6013
17478TIP3    H173925   0.251   1.269  14.358 -0.8903  2.2153  0.1155
17478TIP3    H273926   0.199   1.187  14.243  0.7200  0.4641  0.6105
17479TIP3   OH273927   2.221   0.353  16.686  0.1782  0.4124 -0.7600
17479TIP3    H173928   2.219   0.390  16.598  1.8215 -1.2980 -1.5703
17479TIP3    H273929   2.143   0.298  16.690 -0.1609  0.8752 -0.9741
17480TIP3   OH273930   3.091   4.187   4.094 -0.4159 -0.2241 -0.1543
17480TIP3    H173931   3.058   4.127   4.160 -1.5254 -2.9450 -3.0663
17480TIP3    H273932   3.014   4.234   4.063  0.3171  2.1412  1.4632
17481TIP3   OH273933   1.632   3.856   3.671 -0.0482  0.0706 -0.9998
17481TIP3    H173934   1.568   3.786   3.685 -0.1287 -0.2257 -2.7003
17481TIP3    H273935   1.578   3.934   3.656  0.0284  0.3151 -0.0127
17482TIP3   OH273936   4.027   2.117  11.974  0.0175 -0.6808  0.2397
17482TIP3    H173937   4.044   2.129  11.880 -0.1035  0.1558  0.3136
17482TIP3    H273938   3.992   2.202  12.002  1.6418 -0.3753  1.3992
17483TIP3   OH273939   6.589   0.850  13.644  0.0904 -0.0794  0.0142
17483TIP3    H173940   6.545   0.773  13.610  1.0571 -0.5636 -0.1518
17483TIP3    H273941   6.526   0.921  13.634 -0.8231 -0.8617  0.2363
17484TIP3   OH273942   2.682   3.021   4.985 -0.0723 -0.0732  0.0465
17484TIP3    H173943   2.616   3.005   4.917 -0.2084  1.4225 -0.1971
17484TIP3    H273944   2.719   3.106   4.961  0.9688 -0.2698  0.9741
17485TIP3   OH273945   3.267   3.424   4.776 -0.8890 -0.7465  0.2262
17485TIP3    H173946   3.362   3.420   4.787 -0.8485 -0.7255 -0.0989
17485TIP3    H273947   3.244   3.515   4.795 -0.5916 -0.2759 -1.5911
17486TIP3   OH273948   2.077   2.336   4.697 -0.1930  0.7885  0.2389
17486TIP3    H173949   2.102   2.309   4.608 -1.9105  1.4111 -0.4504
17486TIP3    H273950   1.993   2.294   4.712 -1.8638  3.8950 -0.0181
17487TIP3   OH273951   1.051   1.684  15.004 -0.1437 -0.3710 -0.2657
17487TIP3    H173952   0.962   1.692  15.036  0.2291 -1.2302  1.0293
17487TIP3    H273953   1.098   1.638  15.074  1.0767 -0.8095 -1.3454
17488TIP3   OH273954   5.708   2.897   5.623 -0.0324  0.3734  0.4932
17488TIP3    H173955   5.770   2.909   5.695  1.4944  0.4408 -0.8113
17488TIP3    H273956   5.678   2.986   5.603  1.5753  0.6861 -0.6887
17489TIP3   OH273957   0.631   0.971   4.744  0.2664 -0.4907  0.2088
17489TIP3    H173958   0.659   0.981   4.653 -0.4697  1.4172  0.1774
17489TIP3    H273959   0.713   0.967   4.793  0.6630  0.6536 -0.3334
17490TIP3   OH273960   2.872   0.818  13.699  0.1249  0.2918  0.6183
17490TIP3    H173961   2.932   0.766  13.646  0.9770  1.1228  0.7548
17490TIP3    H273962   2.846   0.760  13.771 -0.7441 -0.7195 -0.4868
17491TIP3   OH273963   3.681   3.254   5.416  0.1822  0.1714  0.5129
17491TIP3    H173964   3.760   3.281   5.370  0.7775 -2.4313 -0.0621
17491TIP3    H273965   3.712   3.212   5.495 -0.7276  1.1162  1.3964
17492TIP3   OH273966   2.760   3.831   4.777 -0.5181 -0.2961  0.0895
17492TIP3    H173967   2.734   3.753   4.825 -0.8726  0.2319  0.7579
17492TIP3    H273968   2.791   3.892   4.844 -2.3170  0.9612 -0.1753
17493TIP3   OH273969   5.211   2.199  14.999 -0.2979  0.5707 -0.1276
17493TIP3    H173970   5.226   2.207  15.093  0.3954 -1.1307 -0.0837
17493TIP3    H273971   5.212   2.290  14.967 -0.6921  1.1630  1.5151
17494TIP3   OH273972   6.764   5.811   5.089  0.1025 -0.4585  0.2966
17494TIP3    H173973   6.812   5.731   5.110 -0.1277 -0.8608 -0.6967
17494TIP3    H273974   6.674   5.793   5.119 -0.2977 -1.1503 -1.2605
17495TIP3   OH273975   5.036   4.320  17.147 -0.4573  0.3360 -0.7794
17495TIP3    H173976   5.119   4.278  17.167 -1.7303 -1.4758  0.9409
17495TIP3    H273977   5.037   4.333  17.052  0.5509 -2.4101 -1.1908
17496TIP3   OH273978   0.439   3.032  13.685 -0.2159 -0.4905  0.9677
17496TIP3    H173979   0.351   3.048  13.652 -0.0262 -1.4513 -0.0473
17496TIP3    H273980   0.471   3.117  13.714 -1.9785 -0.3587  2.5949
17497TIP3   OH273981   0.094   6.327  11.824  0.4045  0.4857  0.1155
17497TIP3    H173982   0.038   6.370  11.889 -0.8550 -0.8479 -0.0652
17497TIP3    H273983   0.169   6.295  11.874  0.2731  0.9677  0.6196
17498TIP3   OH273984   5.476   1.361   4.472  0.4172  0.1966  0.0471
17498TIP3    H173985   5.388   1.337   4.441  0.5936 -0.4665  0.0390
17498TIP3    H273986   5.463   1.440   4.525 -0.1522  0.2321 -0.1477
17499TIP3   OH273987   2.302   0.993   4.561 -0.6133 -0.2770 -0.0308
17499TIP3    H173988   2.352   0.972   4.482  0.4770  1.3659  0.1964
17499TIP3    H273989   2.344   0.942   4.630  1.2149  1.5916  0.2869
17500TIP3   OH273990   5.098   5.635   5.941  0.1525 -0.4848  0.0421
17500TIP3    H173991   5.096   5.659   6.033 -0.9137  1.2317 -0.3981
17500TIP3    H273992   5.011   5.600   5.923  0.1575 -0.2594 -0.4369
17501TIP3   OH273993   6.114   5.567   2.059 -0.1173 -0.1018  0.3458
17501TIP3    H173994   6.116   5.532   1.970  0.3114 -1.1724  0.7687
17501TIP3    H273995   6.200   5.606   2.071 -0.5673  1.0432 -0.0971
17502TIP3   OH273996   4.170   6.186  12.733 -0.2598  0.0195  0.0539
17502TIP3    H173997   4.177   6.271  12.775  0.9541 -0.7705  1.4912
17502TIP3    H273998   4.186   6.123  12.803 -0.6044 -1.3886 -1.1017
17503TIP3   OH273999   3.458   5.132   1.153 -0.0483 -0.4328 -0.3991
17503TIP3    H174000   3.434   5.148   1.062  0.0227  0.8957 -0.1975
17503TIP3    H274001   3.374   5.113   1.196 -0.0175 -1.5816 -0.8398
17504TIP3   OH274002   6.066   4.373  16.348  0.3519  0.2330 -0.2512
17504TIP3    H174003   6.068   4.462  16.381  1.2380  0.5842 -1.2107
17504TIP3    H274004   5.985   4.368  16.298 -0.9064 -0.2515  1.7810
17505TIP3   OH274005   5.660   2.296  16.673  0.2028 -0.3223  0.0232
17505TIP3    H174006   5.627   2.216  16.714 -2.0183  0.1999 -0.6951
17505TIP3    H274007   5.620   2.297  16.586 -2.7942  3.3688  1.2966
17506TIP3   OH274008   2.377   2.769  15.282  0.3031 -0.3658  0.1240
17506TIP3    H174009   2.370   2.850  15.233 -1.8308 -0.9747 -0.6487
17506TIP3    H274010   2.418   2.707  15.222  0.4055 -0.2985  0.1265
17507TIP3   OH274011   1.661   6.350  11.727  0.5501  0.2398 -0.1571
17507TIP3    H174012   1.739   6.389  11.688 -0.3188  0.5941 -1.5794
17507TIP3    H274013   1.695   6.288  11.792  1.9656  1.6992  0.5205
17508TIP3   OH274014   2.531   5.741   1.660  0.2758  0.2553  0.1722
17508TIP3    H174015   2.463   5.806   1.643  0.0027 -0.1359 -0.2395
17508TIP3    H274016   2.490   5.657   1.640  1.3451  0.1239 -1.5091
17509TIP3   OH274017   2.855   3.778  10.453 -0.3516  0.1449  0.3148
17509TIP3    H174018   2.824   3.840  10.518 -1.1102  1.0785 -0.9005
17509TIP3    H274019   2.871   3.831  10.375  1.5104 -0.7952  0.0296
17510TIP3   OH274020   3.021   3.646   4.061  0.2565  0.0850  0.2923
17510TIP3    H174021   3.084   3.591   4.107 -1.9169 -2.4538  0.3408
17510TIP3    H274022   3.037   3.629   3.968 -0.6062 -0.8640  0.3143
17511TIP3   OH274023   3.676   4.580   4.533 -0.2875 -0.2662 -0.2730
17511TIP3    H174024   3.660   4.671   4.507  0.0366 -0.0231  0.3717
17511TIP3    H274025   3.638   4.573   4.620  0.5013 -0.4979  0.0576
17512TIP3   OH274026   1.107   3.771  16.154  0.2789 -0.1015 -0.5139
17512TIP3    H174027   1.041   3.839  16.169  0.4834  0.1013 -0.5327
17512TIP3    H274028   1.057   3.689  16.149  0.0111  0.0792 -0.7433
17513TIP3   OH274029   2.351   6.673   2.196  0.6839  0.0122  0.2339
17513TIP3    H174030   2.315   6.604   2.141  1.1320  0.0454 -0.1072
17513TIP3    H274031   2.419   6.629   2.248  0.2035 -0.0394  0.8290
17514TIP3   OH274032   0.816   4.447   5.197  0.1042 -0.1795 -0.4031
17514TIP3    H174033   0.861   4.432   5.114  0.9346 -0.9396  0.1639
17514TIP3    H274034   0.752   4.377   5.204 -1.3904  1.0705 -1.3452
17515TIP3   OH274035   3.591   5.433   4.011 -0.7372 -0.1860  0.1604
17515TIP3    H174036   3.622   5.400   4.095 -0.3293 -1.0776 -0.3329
17515TIP3    H274037   3.568   5.355   3.961  0.8277  0.2103 -1.2564
17516TIP3   OH274038   2.239   0.241  11.250  0.1390  0.8877 -0.2878
17516TIP3    H174039   2.321   0.215  11.291 -1.2744  1.1486  2.8311
17516TIP3    H274040   2.184   0.163  11.255 -0.4229  1.2417 -0.7671
17517TIP3   OH274041   6.075   4.541   3.457 -0.1557  0.2587 -0.8592
17517TIP3    H174042   6.008   4.504   3.400 -0.8737 -0.4309  0.4171
17517TIP3    H274043   6.097   4.471   3.518  0.5236  1.0182 -0.2076
17518TIP3   OH274044   4.187   1.757  11.925 -0.4838 -0.0751 -0.2135
17518TIP3    H174045   4.124   1.707  11.978  0.9720 -0.7328  0.9267
17518TIP3    H274046   4.249   1.692  11.893  0.5816  0.7811  0.0643
17519TIP3   OH274047   1.807   2.109   6.563 -1.4245  0.3366 -0.0516
17519TIP3    H174048   1.738   2.049   6.534  0.6586 -1.1933 -2.0503
17519TIP3    H274049   1.887   2.056   6.560 -0.2116  1.9321  2.6782
17520TIP3   OH274050   0.519   2.468  11.899  0.5305  0.4274  0.0830
17520TIP3    H174051   0.596   2.483  11.843 -0.8546  2.7216 -1.2979
17520TIP3    H274052   0.503   2.552  11.941 -1.2242 -0.0022  0.3303
17521TIP3   OH274053   1.626   5.638   0.084  0.6498  0.0189  0.5450
17521TIP3    H174054   1.649   5.721   0.043  0.3602  0.5191  1.3804
17521TIP3    H274055   1.672   5.638   0.168 -0.5601  0.0304  1.2270
17522TIP3   OH274056   1.879   4.584  12.485 -0.4051  0.1956  0.0432
17522TIP3    H174057   1.857   4.676  12.498 -0.2584  0.7779 -3.4631
17522TIP3    H274058   1.794   4.540  12.479 -0.4840  0.4324 -0.5303
17523TIP3   OH274059   3.181   0.974  16.056 -0.8440 -0.2497 -0.1216
17523TIP3    H174060   3.096   0.955  16.097 -1.1224 -2.0947 -1.4949
17523TIP3    H274061   3.244   0.961  16.127 -1.4129 -2.4308  0.0510
17524TIP3   OH274062   1.689   4.190  15.486 -0.4405 -0.0910 -0.1941
17524TIP3    H174063   1.684   4.241  15.566 -0.8107 -1.0392  0.3924
17524TIP3    H274064   1.730   4.249  15.422  0.8437  0.3105  0.9724
17525TIP3   OH274065   1.258   1.657   4.593 -0.5082  0.6038 -0.2817
17525TIP3    H174066   1.265   1.588   4.659 -2.0882  1.0382  0.3556
17525TIP3    H274067   1.338   1.648   4.540 -1.2014 -2.4173 -0.8868
17526TIP3   OH274068   1.816   1.439   1.716  0.8706  0.0501 -0.8433
17526TIP3    H174069   1.763   1.360   1.726 -0.1085  0.6174 -1.6087
17526TIP3    H274070   1.896   1.419   1.765 -0.2481 -0.6039  0.7759
17527TIP3   OH274071   3.110   3.504  17.058  0.5169 -0.0079 -0.2788
17527TIP3    H174072   3.077   3.587  17.093 -3.9436 -2.3954  1.5679
17527TIP3    H274073   3.076   3.499  16.969  3.2678  1.3523 -1.4929
17528TIP3   OH274074   3.196   2.420   1.922  0.1777  0.3845  0.0151
17528TIP3    H174075   3.276   2.397   1.875  0.6766 -1.0070  1.4842
17528TIP3    H274076   3.192   2.515   1.918  2.3125  0.5160  0.5481
17529TIP3   OH274077   4.732   0.903   5.376 -0.3631  0.2570 -0.5969
17529TIP3    H174078   4.715   0.986   5.331  0.1474 -0.2310 -1.7015
17529TIP3    H274079   4.645   0.870   5.401 -0.8116 -0.4456 -2.9884
17530TIP3   OH274080   1.877   5.910  10.778 -0.2304 -0.1303  0.0506
17530TIP3    H174081   1.875   5.945  10.867 -0.9594 -0.3434  0.1187
17530TIP3    H274082   1.941   5.839  10.781  1.4338  1.3307 -0.1409
17531TIP3   OH274083   3.061   2.297  13.854 -0.0623  0.4673  0.1128
17531TIP3    H174084   3.034   2.233  13.787  1.9482 -1.8865  1.4554
17531TIP3    H274085   2.979   2.322  13.897 -1.2139  0.9517 -2.2634
17532TIP3   OH274086   5.970   0.798  16.909  0.1697 -0.2239  0.4146
17532TIP3    H174087   6.005   0.825  16.824  1.1150 -1.9510  0.2292
17532TIP3    H274088   5.901   0.735  16.888 -0.1828 -0.0045  0.9107
17533TIP3   OH274089   6.541   3.577  13.444  0.5120  0.1483  0.1033
17533TIP3    H174090   6.529   3.493  13.488  0.1148  0.5650  0.7950
17533TIP3    H274091   6.563   3.554  13.354  0.4241 -0.6974  0.2949
17534TIP3   OH274092   1.691   3.595  11.533  0.2616  0.2897 -0.2522
17534TIP3    H174093   1.660   3.637  11.453  0.7584  0.3705 -0.4042
17534TIP3    H274094   1.633   3.521  11.546 -0.3345  0.7552 -0.2362
17535TIP3   OH274095   1.517   0.557  14.024  0.3820  0.0440 -0.0698
17535TIP3    H174096   1.494   0.588  14.111 -1.5590  2.3410 -1.3223
17535TIP3    H274097   1.434   0.529  13.986  1.4213 -2.2914 -0.6734
17536TIP3   OH274098   0.203   1.749  12.733 -0.1033  0.0052 -0.0092
17536TIP3    H174099   0.168   1.725  12.647  2.1029  3.4176 -1.9991
17536TIP3    H274100   0.142   1.815  12.766  0.6709  0.9439 -0.4042
17537TIP3   OH274101   1.617   1.868  12.278  0.6879 -0.4464 -0.7908
17537TIP3    H174102   1.571   1.795  12.319  1.7328 -1.2542 -1.0271
17537TIP3    H274103   1.639   1.926  12.351 -0.1156 -0.3827 -0.5941
17538TIP3   OH274104   1.876   0.120   5.398 -0.4034 -0.1808  0.1588
17538TIP3    H174105   1.955   0.153   5.440  0.4058 -1.7776 -0.0732
17538TIP3    H274106   1.813   0.192   5.405  1.2317  1.3154 -0.1379
17539TIP3   OH274107   1.556   6.501   2.548  0.5727  0.6323  0.5189
17539TIP3    H174108   1.563   6.585   2.593 -3.3464  0.9847  0.6278
17539TIP3    H274109   1.516   6.522   2.463 -0.0204 -1.0708  0.3494
17540TIP3   OH274110   6.604   2.314  11.401  0.5423  0.8901  0.4564
17540TIP3    H174111   6.571   2.327  11.490 -2.2062 -1.5697 -0.1239
17540TIP3    H274112   6.531   2.339  11.344  1.4730  0.3125 -1.0331
17541TIP3   OH274113   4.221   5.571   6.048  0.2128  0.0058  0.3206
17541TIP3    H174114   4.148   5.620   6.011  0.8794  0.2256 -0.7550
17541TIP3    H274115   4.275   5.637   6.092 -0.0867 -0.1139  0.8726
17542TIP3   OH274116   5.883   1.283  12.448  0.2601  0.2848  0.4983
17542TIP3    H174117   5.795   1.314  12.429  1.3382  2.2696 -1.5679
17542TIP3    H274118   5.932   1.300  12.367  2.4930 -0.9083  1.5597
17543TIP3   OH274119   3.960   3.293  12.372 -0.3515  0.6922  0.5608
17543TIP3    H174120   4.008   3.272  12.291 -0.4355  2.7279 -0.0381
17543TIP3    H274121   3.953   3.209  12.417  0.4707 -0.3311 -1.1319
17544TIP3   OH274122   1.757   5.018   0.320  0.3764 -0.5346  0.0400
17544TIP3    H174123   1.798   5.094   0.363 -1.7737  1.9604 -2.1110
17544TIP3    H274124   1.665   5.042   0.312  0.1533 -2.1820 -3.1815
17545TIP3   OH274125   5.659   5.122   2.047  0.1916  0.0134 -0.0240
17545TIP3    H174126   5.595   5.086   2.108  0.2169  0.3536  0.2117
17545TIP3    H274127   5.670   5.213   2.076  0.1764  0.1876 -0.5627
17546TIP3   OH274128   4.410   4.814  17.074  0.1522  0.2793  0.3539
17546TIP3    H174129   4.452   4.897  17.098  0.9709  0.0533 -0.2706
17546TIP3    H274130   4.468   4.777  17.008  0.8648 -1.7538  2.0848
17547TIP3   OH274131   0.809   4.813   4.363  0.1687 -0.0694 -0.2084
17547TIP3    H174132   0.894   4.798   4.321  1.2024  1.1423  1.3685
17547TIP3    H274133   0.789   4.731   4.407  2.0386  0.5928  1.9552
17548TIP3   OH274134   1.098   2.169  16.283  0.0759 -0.2360 -0.2836
17548TIP3    H174135   1.023   2.132  16.236 -0.0357 -0.9996  0.4886
17548TIP3    H274136   1.173   2.155  16.225 -0.2927  0.1176 -0.8545
17549TIP3   OH274137   0.601   2.094   2.619  0.1800 -0.4536  0.1080
17549TIP3    H174138   0.629   2.181   2.646 -1.0672 -0.2034  0.6268
17549TIP3    H274139   0.589   2.101   2.524 -0.8417  0.2208  0.2745
17550TIP3   OH274140   3.770   3.755  12.194 -0.1254  0.5202  0.8969
17550TIP3    H174141   3.710   3.714  12.256 -1.5320  1.3359  0.0957
17550TIP3    H274142   3.714   3.791  12.126  1.3999 -0.3313 -0.8461
17551TIP3   OH274143   0.886   0.217  14.262  0.5145 -1.1343 -0.3378
17551TIP3    H174144   0.829   0.149  14.297  1.2470 -1.1761  0.7790
17551TIP3    H274145   0.827   0.291  14.244  0.1055 -1.1977  0.7449
17552TIP3   OH274146   0.988   1.687   3.902  0.6492  0.0247  0.7221
17552TIP3    H174147   1.025   1.760   3.853  1.8643 -0.1051  1.4412
17552TIP3    H274148   0.893   1.700   3.897  0.8046  0.5913 -0.7606
17553TIP3   OH274149   6.818   6.657  14.712 -0.0304 -0.7537  0.0039
17553TIP3    H174150   6.783   6.568  14.715  0.5530 -1.0053 -0.4268
17553TIP3    H274151   6.903   6.647  14.669 -0.4286  0.1669 -0.9921
17554TIP3   OH274152   2.109   5.069  15.947 -0.3397  0.1024  0.0083
17554TIP3    H174153   2.022   5.064  15.986 -0.5729  0.1746 -0.4965
17554TIP3    H274154   2.099   5.029  15.860  0.4584 -1.1910  0.4974
17555TIP3   OH274155   5.734   1.362  11.923 -0.1886  0.4591 -0.0891
17555TIP3    H174156   5.699   1.444  11.958 -0.2541  0.7226 -0.7497
17555TIP3    H274157   5.668   1.334  11.859  0.2352  0.3287 -0.4677
17556TIP3   OH274158   0.760   3.767  16.100 -0.0609  0.2007 -0.0543
17556TIP3    H174159   0.813   3.843  16.125 -1.9269  1.6504 -0.3765
17556TIP3    H274160   0.786   3.747  16.010  3.2814 -2.0805  1.3158
17557TIP3   OH274161   3.872   3.039   3.987  0.1920 -0.2345 -0.4047
17557TIP3    H174162   3.781   3.040   4.015  0.0939 -4.0566 -0.3568
17557TIP3    H274163   3.879   3.113   3.926 -2.7811  0.3820 -0.0783
17558TIP3   OH274164   0.160   3.063   4.680 -0.1471 -0.1037  0.1356
17558TIP3    H174165   0.222   3.135   4.682  0.6099 -0.7560  0.6124
17558TIP3    H274166   0.098   3.086   4.611  1.8950 -0.4584 -1.8719
17559TIP3   OH274167   2.277   4.347   4.198  0.6842 -0.4288 -0.4621
17559TIP3    H174168   2.258   4.406   4.271  0.6016  0.1828 -0.9699
17559TIP3    H274169   2.223   4.381   4.126  1.7484 -0.2449 -1.1800
17560TIP3   OH274170   0.096   3.346  11.726  0.1783  0.7816 -0.1350
17560TIP3    H174171   0.147   3.365  11.647  1.5633  1.3083  0.8668
17560TIP3    H274172   0.066   3.256  11.714  0.4586  0.8251 -1.2227
17561TIP3   OH274173   3.267   2.418  11.217  0.0573  0.1107 -0.4861
17561TIP3    H174174   3.253   2.488  11.281  3.0448  0.0105  0.3603
17561TIP3    H274175   3.277   2.339  11.270 -1.4314 -0.6645 -1.3326
17562TIP3   OH274176   4.805   5.544   2.113  0.0651  0.3285 -0.3813
17562TIP3    H174177   4.731   5.593   2.078 -0.2155 -0.3340 -0.7253
17562TIP3    H274178   4.882   5.591   2.082 -0.1826 -0.1952 -1.8121
17563TIP3   OH274179   0.274   2.534  12.104  0.4678 -1.2180  0.1999
17563TIP3    H174180   0.277   2.607  12.165  2.4394  0.0328 -1.3236
17563TIP3    H274181   0.195   2.549  12.052  2.1433  1.2793 -1.7550
17564TIP3   OH274182   4.360   6.632  11.215 -0.1038  0.0451  0.5355
17564TIP3    H174183   4.282   6.668  11.256 -1.4227 -0.7527 -1.1818
17564TIP3    H274184   4.333   6.546  11.184  1.2627  0.0239 -0.6645
17565TIP3   OH274185   4.585   4.862  11.743 -0.2726  0.3532  0.0107
17565TIP3    H174186   4.620   4.948  11.722 -1.6432  1.2557  1.3642
17565TIP3    H274187   4.524   4.842  11.673  0.5430  0.1656 -0.6628
17566TIP3   OH274188   1.798   5.436  12.936 -0.1207 -0.6294 -0.1824
17566TIP3    H174189   1.715   5.413  12.894 -0.4532  0.5858 -0.2003
17566TIP3    H274190   1.775   5.499  13.004  0.8175 -0.0488 -0.3814
17567TIP3   OH274191   1.156   1.238   0.408 -0.1062  0.3424  0.1896
17567TIP3    H174192   1.130   1.146   0.408  1.8364 -0.2486 -0.7371
17567TIP3    H274193   1.194   1.253   0.494 -1.1101  0.4898  0.6095
17568TIP3   OH274194   2.470   6.041   2.583  0.0992 -0.2866 -0.3575
17568TIP3    H174195   2.529   6.063   2.655  1.9319 -4.6620 -0.3706
17568TIP3    H274196   2.385   6.028   2.624  0.1672  1.3996  0.3570
17569TIP3   OH274197   6.222   4.692  15.544  0.8795  0.0953 -0.0275
17569TIP3    H174198   6.239   4.776  15.587  0.0788 -0.2569  1.0040
17569TIP3    H274199   6.257   4.702  15.456  0.8797  1.4792  0.1265
17570TIP3   OH274200   0.978   3.300  15.416 -0.4181 -0.0244 -0.1283
17570TIP3    H174201   0.930   3.321  15.336 -0.8069  0.4612  0.2244
17570TIP3    H274202   0.910   3.280  15.481 -0.1201 -0.0273  0.1862
17571TIP3   OH274203   4.719   1.551  16.797 -0.3076  0.3639 -0.1395
17571TIP3    H174204   4.791   1.613  16.790 -1.4735  1.4502 -3.7505
17571TIP3    H274205   4.643   1.605  16.818 -0.6496 -0.3713  0.5625
17572TIP3   OH274206   3.517   5.454  11.802  0.2675  0.0234 -0.0824
17572TIP3    H174207   3.563   5.376  11.771  0.8631  0.2436  0.2596
17572TIP3    H274208   3.485   5.495  11.722 -0.3839 -0.7780 -0.2432
17573TIP3   OH274209   1.921   4.228   3.680 -0.7669  0.8358 -0.5673
17573TIP3    H174210   1.893   4.228   3.771 -0.1391  0.7135 -0.3764
17573TIP3    H274211   1.863   4.165   3.637  0.6647 -1.0878  0.2721
17574TIP3   OH274212   0.106   0.674   0.327 -0.0631 -0.6996  0.0713
17574TIP3    H174213   0.175   0.712   0.273  0.2646  0.4120  1.2451
17574TIP3    H274214   0.092   0.738   0.397 -1.7847 -1.2418  0.2535
17575TIP3   OH274215   6.297   5.869  15.985  0.1881 -0.1639 -0.4318
17575TIP3    H174216   6.316   5.860  15.892 -3.7912 -0.2206 -1.3248
17575TIP3    H274217   6.265   5.783  16.012  0.1265  0.1954  0.6893
17576TIP3   OH274218   3.723   4.305   4.984  0.1938  0.2509  0.2423
17576TIP3    H174219   3.704   4.380   5.039  1.7620 -0.4811  1.8325
17576TIP3    H274220   3.687   4.230   5.031 -0.8613 -0.0760 -1.0551
17577TIP3   OH274221   5.962   3.897  10.811 -0.0747  0.8376  0.3672
17577TIP3    H174222   5.894   3.963  10.803 -0.0106  0.8203 -0.3948
17577TIP3    H274223   5.932   3.825  10.755  1.2782  1.4364 -1.1793
17578TIP3   OH274224   1.936   5.993  11.049  0.1462 -0.0212 -0.1928
17578TIP3    H174225   1.933   5.968  11.142  0.3426 -0.0080 -0.1816
17578TIP3    H274226   1.891   6.077  11.046 -2.3339 -1.3098 -0.5506
17579TIP3   OH274227   4.826   3.835  16.723 -0.1526 -0.0667 -0.3279
17579TIP3    H174228   4.808   3.850  16.630  0.5859 -0.9840 -0.6153
17579TIP3    H274229   4.848   3.742  16.729  0.6624  0.1887  0.6346
17580TIP3   OH274230   1.829   2.649  16.867  0.3983  0.6723  0.1937
17580TIP3    H174231   1.765   2.718  16.884 -1.1022 -0.4458 -0.8348
17580TIP3    H274232   1.805   2.613  16.782  1.0851 -1.2059  0.7623
17581TIP3   OH274233   2.384   4.479   4.700 -0.1404  0.2940 -0.1433
17581TIP3    H174234   2.474   4.483   4.669 -0.0768 -0.6426 -0.1143
17581TIP3    H274235   2.390   4.486   4.795 -0.1333  0.7022 -0.1754
17582TIP3   OH274236   2.068   1.958   4.374 -0.0690  0.4304 -0.4469
17582TIP3    H174237   2.035   2.041   4.339 -2.0644  0.2475  0.9055
17582TIP3    H274238   1.989   1.908   4.395  1.0773 -2.1022 -1.8331
17583TIP3   OH274239   2.957   4.654  15.468 -0.6489  0.0384  0.4568
17583TIP3    H174240   3.039   4.678  15.425  0.3730 -0.6697  1.9546
17583TIP3    H274241   2.971   4.678  15.560 -2.4119  0.6183  0.5730
17584TIP3   OH274242   0.592   6.071   2.042 -0.1110  0.9379  0.2068
17584TIP3    H174243   0.588   6.152   2.093  1.5578  1.4423 -0.4161
17584TIP3    H274244   0.679   6.035   2.061 -0.5415 -0.3126 -0.1189
17585TIP3   OH274245   1.218   0.097   0.740  0.3394  0.1313  0.3057
17585TIP3    H174246   1.144   0.069   0.795 -0.6227 -1.2112 -1.6316
17585TIP3    H274247   1.295   0.078   0.793 -0.6017 -0.5036  1.4702
17586TIP3   OH274248   4.289   5.903  13.508 -0.3283  0.6018 -0.6628
17586TIP3    H174249   4.295   5.994  13.479  2.1642  0.5378 -0.4899
17586TIP3    H274250   4.376   5.867  13.491 -1.1170 -1.6018 -0.2147
17587TIP3   OH274251   0.973   4.527  12.645 -0.8091  0.3600 -0.2996
17587TIP3    H174252   0.926   4.609  12.658  1.6898  1.8316 -0.0588
17587TIP3    H274253   1.004   4.530  12.555 -0.8217 -0.3745 -0.3361
17588TIP3   OH274254   0.870   2.930   0.965  0.3565 -0.2689  0.1790
17588TIP3    H174255   0.906   2.869   1.029  1.3391  0.7830  0.6333
17588TIP3    H274256   0.853   3.010   1.015  4.2156  1.6938 -1.4918
17589TIP3   OH274257   2.132   0.856   3.855  0.4104 -0.0007  0.0397
17589TIP3    H174258   2.104   0.868   3.946  0.9667 -1.4631  0.4214
17589TIP3    H274259   2.052   0.837   3.807  0.3325 -0.9495  0.5435
17590TIP3   OH274260   6.182   1.300  13.327 -0.5058  0.2612 -0.2966
17590TIP3    H174261   6.219   1.313  13.240  0.6030 -1.6455 -0.1514
17590TIP3    H274262   6.145   1.385  13.351  1.2479  1.4365 -1.6500
17591TIP3   OH274263   4.484   5.024   2.545  0.6278  0.1187 -0.0614
17591TIP3    H174264   4.397   5.046   2.511  0.9410  1.5308  0.0042
17591TIP3    H274265   4.545   5.060   2.481  1.1663 -0.5201  0.0930
17592TIP3   OH274266   2.296   4.508  10.800  0.0615 -0.6212  0.2949
17592TIP3    H174267   2.376   4.539  10.757 -1.0895  2.5329  0.3248
17592TIP3    H274268   2.328   4.452  10.871  2.1858 -0.6522 -0.6456
17593TIP3   OH274269   1.181   6.415   3.932  0.6673 -0.9536  0.6359
17593TIP3    H174270   1.121   6.474   3.887 -0.2518 -1.6018  1.0063
17593TIP3    H274271   1.155   6.328   3.903  2.4749 -1.1621 -0.4588
17594TIP3   OH274272   1.001   2.786  14.737 -0.0983  0.0452  0.1762
17594TIP3    H174273   1.022   2.698  14.768  1.6005 -0.3379 -1.9072
17594TIP3    H274274   0.958   2.772  14.653 -1.8359  1.1614  0.8529
17595TIP3   OH274275   4.768   4.667   1.948  0.0194  0.0448  0.3895
17595TIP3    H174276   4.812   4.750   1.965  0.7344 -0.3951  0.7129
17595TIP3    H274277   4.730   4.642   2.033 -1.6278  0.8593 -0.0847
17596TIP3   OH274278   6.203   2.243  11.066  0.3985 -0.9127  0.1726
17596TIP3    H174279   6.185   2.290  10.984  3.2989 -1.2580 -0.7135
17596TIP3    H274280   6.234   2.157  11.038  0.3546 -1.4300  1.6684
17597TIP3   OH274281   1.279   3.086  13.932 -0.3714 -0.0974 -0.1506
17597TIP3    H174282   1.195   3.117  13.965 -0.8916 -0.3956 -1.2063
17597TIP3    H274283   1.343   3.120  13.996 -1.1838  0.9322  0.1320
17598TIP3   OH274284   4.368   0.846  11.595  0.0641  0.4554  0.5946
17598TIP3    H174285   4.427   0.901  11.544  0.9520 -0.8406  0.1962
17598TIP3    H274286   4.281   0.882  11.578  0.3124 -0.1053 -2.0703
17599TIP3   OH274287   2.575   5.550  17.204  0.0745  0.0744 -0.3724
17599TIP3    H174288   2.493   5.526  17.247 -2.0664  4.2320 -1.8544
17599TIP3    H274289   2.590   5.480  17.140 -1.5474 -1.4398  0.8479
17600TIP3   OH274290   0.914   6.760   5.003  0.1086  0.3642 -0.0040
17600TIP3    H174291   0.853   6.789   4.936  0.3075  1.5062  0.3000
17600TIP3    H274292   0.930   6.668   4.983 -0.6686  0.4167 -0.8741
17601TIP3   OH274293   2.139   6.156   1.707  0.1660 -0.5115  0.5391
17601TIP3    H174294   2.106   6.150   1.617  0.5057 -3.1339  0.5654
17601TIP3    H274295   2.063   6.140   1.762  0.6859 -2.7887  0.6428
17602TIP3   OH274296   1.999   1.493  12.137 -0.7226  0.6528  0.3303
17602TIP3    H174297   2.002   1.494  12.041  1.6409 -2.0338  0.3309
17602TIP3    H274298   1.906   1.496  12.158 -1.3100  0.3081 -2.0743
17603TIP3   OH274299   5.660   0.434  11.373  0.2195 -0.1418  0.1276
17603TIP3    H174300   5.679   0.433  11.466 -0.7755  1.2277  0.3728
17603TIP3    H274301   5.705   0.358  11.338  1.4656 -0.0888  1.5553
17604TIP3   OH274302   6.790   5.961  16.710  0.1988  0.1576  0.0408
17604TIP3    H174303   6.756   6.007  16.633 -0.8265 -0.2554  0.2333
17604TIP3    H274304   6.824   6.030  16.766 -1.7002  0.7538  0.5106
17605TIP3   OH274305   0.348   2.588   2.378  0.3158 -0.3272  0.2049
17605TIP3    H174306   0.302   2.533   2.315  0.8119 -1.4279  0.7945
17605TIP3    H274307   0.293   2.589   2.456  1.8775 -2.8006  1.4286
17606TIP3   OH274308   6.703   2.858  13.198 -0.1937 -0.0557  0.5677
17606TIP3    H174309   6.608   2.857  13.206 -0.1204  0.1741  1.6113
17606TIP3    H274310   6.732   2.777  13.240  0.0636 -0.2237  0.0720
17607TIP3   OH274311   3.796   0.822  14.882  0.7520 -0.6452  0.1935
17607TIP3    H174312   3.812   0.754  14.817 -1.6932 -2.3321  1.2693
17607TIP3    H274313   3.706   0.850  14.866  2.1581  3.5468 -1.2478
17608TIP3   OH274314   4.103   3.627  15.418 -0.0356  0.1281  0.4253
17608TIP3    H174315   4.173   3.574  15.380  0.2343  0.6573  0.1892
17608TIP3    H274316   4.081   3.691  15.350 -1.1226 -0.3745  0.2831
17609TIP3   OH274317   1.935   3.413  13.914  0.2833  0.0104  0.8063
17609TIP3    H174318   1.897   3.419  13.826  0.4735  1.0814  0.7998
17609TIP3    H274319   1.929   3.502  13.950  2.0069  0.0108  1.1384
17610TIP3   OH274320   4.275   3.813   5.041  0.1084  0.1228 -0.3868
17610TIP3    H174321   4.353   3.830   5.093  0.3193 -1.0903 -0.2966
17610TIP3    H274322   4.309   3.784   4.956 -0.2363  1.4369 -0.9807
17611TIP3   OH274323   5.761   4.692   2.998 -0.0832 -0.2784  0.3648
17611TIP3    H174324   5.743   4.687   3.092 -1.9309 -0.2177  0.0271
17611TIP3    H274325   5.788   4.783   2.985  0.0456 -0.2486  0.8044
17612TIP3   OH274326   4.051   2.257  14.723  0.1570 -0.4164  0.1868
17612TIP3    H174327   4.060   2.176  14.672 -0.5025 -0.0567 -0.5059
17612TIP3    H274328   3.993   2.312  14.671  0.7864  0.5982  0.5510
17613TIP3   OH274329   4.027   3.276   0.431 -0.3243  0.1231  0.4107
17613TIP3    H174330   4.014   3.240   0.344 -0.1899 -1.5628  1.0704
17613TIP3    H274331   4.115   3.247   0.456  0.3163  2.0000  0.4556
17614TIP3   OH274332   6.735   0.575   5.592 -0.6201  0.6406 -0.0768
17614TIP3    H174333   6.728   0.669   5.606  0.0731  0.5835  0.6553
17614TIP3    H274334   6.790   0.566   5.514  0.5762  0.8105  0.7371
17615TIP3   OH274335   3.068   5.360   5.891 -0.6408 -0.2076  0.3433
17615TIP3    H174336   3.125   5.286   5.914  0.9931  0.7738 -0.4664
17615TIP3    H274337   2.998   5.357   5.956 -0.9600 -2.8543 -0.0547
17616TIP3   OH274338   0.436   6.280  17.225 -0.2908  0.8807 -0.1615
17616TIP3    H174339   0.377   6.246  17.292  0.2619  0.5570  0.1615
17616TIP3    H274340   0.462   6.202  17.174  0.6685  0.8608  0.3381
17617TIP3   OH274341   0.841   2.750  12.038  0.0116  0.0543  0.2790
17617TIP3    H174342   0.793   2.776  12.116  2.0354  1.1121  1.1925
17617TIP3    H274343   0.885   2.669  12.062 -2.2979 -1.6681 -0.9923
17618TIP3   OH274344   5.399   1.452  15.999 -0.0665 -0.0789  0.1578
17618TIP3    H174345   5.493   1.437  15.986 -0.0765  1.0304 -1.2877
17618TIP3    H274346   5.359   1.366  15.984  0.8615 -1.0100  2.6783
17619TIP3   OH274347   4.456   1.773  15.637  0.6901 -0.9246 -0.1742
17619TIP3    H174348   4.511   1.816  15.571  1.9592  1.8517  2.5752
17619TIP3    H274349   4.507   1.698  15.666  0.3853 -1.8113 -1.8558
17620TIP3   OH274350   4.471   2.729   3.034 -0.4059  0.3616 -0.1848
17620TIP3    H174351   4.395   2.736   2.976  0.9250  1.5968 -1.8080
17620TIP3    H274352   4.538   2.783   2.993  0.7759  0.7645  2.2057
17621TIP3   OH274353   4.805   4.587  13.463  0.4917 -0.4961  0.8132
17621TIP3    H174354   4.818   4.682  13.467  1.3841 -0.5639 -0.3185
17621TIP3    H274355   4.789   4.569  13.370 -0.6628 -1.3349  1.1627
17622TIP3   OH274356   0.582   4.295  15.409  0.0212  0.1768  0.0883
17622TIP3    H174357   0.605   4.383  15.438 -1.3387  0.7375 -0.4803
17622TIP3    H274358   0.520   4.309  15.338 -0.0220 -1.2445 -0.1674
17623TIP3   OH274359   5.203   5.425  17.067 -0.3532  0.3042 -0.1025
17623TIP3    H174360   5.198   5.503  17.121 -1.3856 -0.6549  1.2436
17623TIP3    H274361   5.136   5.438  17.000 -2.3766 -0.5340  1.6811
17624TIP3   OH274362   5.848   3.443  11.292 -0.1406 -0.0991 -0.3467
17624TIP3    H174363   5.817   3.357  11.320  1.7659 -0.5970  0.3256
17624TIP3    H274364   5.861   3.435  11.197 -1.0168 -0.2167 -0.4548
17625TIP3   OH274365   2.936   3.286   4.250 -0.4325  0.8410 -0.0933
17625TIP3    H174366   2.996   3.212   4.242 -0.9638  0.1608  1.9021
17625TIP3    H274367   2.986   3.353   4.298 -1.0369  0.5196  0.9956
17626TIP3   OH274368   2.087   2.795   3.798 -0.4187 -0.8229  0.2052
17626TIP3    H174369   2.162   2.763   3.750 -0.3890  0.5832 -0.7113
17626TIP3    H274370   2.012   2.749   3.761 -0.2830 -0.4506 -0.5295
17627TIP3   OH274371   0.055   4.900  15.070  0.2623 -0.3790  0.4297
17627TIP3    H174372  -0.013   4.967  15.073  0.5023 -0.1678  1.3965
17627TIP3    H274373   0.118   4.933  15.006 -1.0262 -1.0518 -1.2002
17628TIP3   OH274374   3.093   0.642   3.855  0.1777 -0.4946  0.4385
17628TIP3    H174375   3.113   0.551   3.876  0.8027 -0.7077 -1.0367
17628TIP3    H274376   3.159   0.667   3.790 -0.6864  0.6627 -0.0099
17629TIP3   OH274377   4.938   4.119   0.435  0.4528  0.0493  0.1253
17629TIP3    H174378   4.886   4.074   0.369  1.0313 -1.0777  0.4154
17629TIP3    H274379   4.895   4.097   0.518  1.2435 -0.7155  0.3451
17630TIP3   OH274380   0.304   1.478  16.211 -0.3339  0.0054  0.0544
17630TIP3    H174381   0.309   1.517  16.124  1.6764 -1.2217 -0.3952
17630TIP3    H274382   0.258   1.396  16.198  0.9099 -0.6900 -0.0587
17631TIP3   OH274383   2.940   3.752  14.209 -0.1991  0.2228  0.2359
17631TIP3    H174384   3.028   3.789  14.206 -1.6142  3.6562 -1.3753
17631TIP3    H274385   2.934   3.711  14.296  3.0036 -0.2544  0.3006
17632TIP3   OH274386   0.201   6.549   3.792 -0.0391 -0.0487 -0.0628
17632TIP3    H174387   0.179   6.459   3.817 -1.9841  1.1049  2.6563
17632TIP3    H274388   0.117   6.596   3.796  1.2371  2.2785  0.3440
17633TIP3   OH274389   5.205   5.385   0.882 -0.8697 -0.7196  0.0156
17633TIP3    H174390   5.265   5.323   0.923 -1.2905 -1.6837 -0.8354
17633TIP3    H274391   5.222   5.467   0.929  0.1397 -1.3012  0.7093
17634TIP3   OH274392   2.989   4.544  16.300  0.8260  0.1104  0.1723
17634TIP3    H174393   2.935   4.603  16.248  0.1244 -0.7461 -0.0838
17634TIP3    H274394   3.033   4.488  16.235  1.5901  0.4396  0.4075
17635TIP3   OH274395   1.564   3.674  12.409 -0.6455 -0.0592  0.1795
17635TIP3    H174396   1.583   3.634  12.493 -2.1512 -2.1976 -0.4496
17635TIP3    H274397   1.618   3.627  12.346  0.2325  1.3080 -0.1087
17636TIP3   OH274398   4.568   0.912   2.003  0.2611 -1.0331 -0.4460
17636TIP3    H174399   4.616   0.846   1.953  2.6015  1.6838 -1.9253
17636TIP3    H274400   4.492   0.932   1.949  0.0756 -1.7872 -0.4698
17637TIP3   OH274401   0.213   5.517  12.903  0.3595 -0.0800  0.1439
17637TIP3    H174402   0.152   5.539  12.973 -0.1974  0.4641 -0.5191
17637TIP3    H274403   0.249   5.601  12.875 -1.4711 -0.0060 -2.1059
17638TIP3   OH274404   2.546   5.130   0.522  0.0439  0.3358  0.2119
17638TIP3    H174405   2.533   5.166   0.610 -0.4305  1.2760 -0.2365
17638TIP3    H274406   2.457   5.109   0.491  0.3480 -1.8404  0.7081
17639TIP3   OH274407   0.900   4.844  13.150  0.0742 -0.0268  0.0333
17639TIP3    H174408   0.947   4.832  13.067 -1.7040  1.0373 -1.1929
17639TIP3    H274409   0.887   4.939  13.156 -1.3337 -0.2429  0.6383
17640TIP3   OH274410   1.751   4.698  17.255  0.2215  0.0699  0.3896
17640TIP3    H174411   1.723   4.788  17.238  1.0347  0.2535 -0.0394
17640TIP3    H274412   1.814   4.706  17.327  2.0391  0.1338 -1.1768
17641TIP3   OH274413   3.196   1.004  14.879  0.5327 -0.4683  0.4644
17641TIP3    H174414   3.130   1.008  14.948 -0.1316  3.7918 -0.2913
17641TIP3    H274415   3.156   1.051  14.805  3.2331 -0.4338 -1.0311
17642TIP3   OH274416   2.116   1.965  13.325 -0.2755  0.1843  0.3158
17642TIP3    H174417   2.034   2.014  13.334  0.4566  1.3168  0.8847
17642TIP3    H274418   2.090   1.873  13.337 -1.2290  0.6598  2.0425
17643TIP3   OH274419   6.686   5.486  13.362  0.0870  0.4667 -0.1013
17643TIP3    H174420   6.773   5.463  13.330  0.9296 -0.0134  2.4224
17643TIP3    H274421   6.643   5.401  13.376 -0.9286  0.7068 -1.6642
17644TIP3   OH274422   6.286   2.965   1.859 -0.1862 -0.5416  0.2551
17644TIP3    H174423   6.349   2.930   1.923  0.7763 -0.6059 -0.7056
17644TIP3    H274424   6.341   2.993   1.785 -1.3274 -1.0185 -0.7817
17645TIP3   OH274425   6.173   4.185  11.603  0.0065 -0.8278 -0.3331
17645TIP3    H174426   6.153   4.099  11.568 -0.3331 -0.2707 -1.5113
17645TIP3    H274427   6.148   4.246  11.534  0.6883  0.1876  0.3041
17646TIP3   OH274428   0.853   4.201   0.720  0.4590  0.1123 -0.2736
17646TIP3    H174429   0.837   4.152   0.639  0.2832  0.6848 -0.5870
17646TIP3    H274430   0.906   4.275   0.693 -2.5894  2.3044 -0.4843
17647TIP3   OH274431   6.044   6.740  11.866 -0.5964 -0.4873 -0.1517
17647TIP3    H174432   6.124   6.792  11.873  0.3717 -1.8651 -0.6514
17647TIP3    H274433   6.074   6.650  11.876 -2.7632 -0.7810  4.8169
17648TIP3   OH274434   4.741   4.395  16.518 -0.1223  0.0672  0.3864
17648TIP3    H174435   4.802   4.367  16.587 -0.1249 -0.7311  0.0616
17648TIP3    H274436   4.778   4.360  16.437  0.3101  1.6778 -0.1444
17649TIP3   OH274437   4.425   4.486  11.149 -0.2704 -0.2714 -0.1120
17649TIP3    H174438   4.516   4.458  11.143 -0.5846 -1.1492 -0.8258
17649TIP3    H274439   4.374   4.408  11.128 -1.1672  0.5580 -1.0734
17650TIP3   OH274440   1.495   3.333  15.882  0.5918 -0.0166  0.1880
17650TIP3    H174441   1.566   3.338  15.945  1.5007  0.9854 -0.9038
17650TIP3    H274442   1.445   3.413  15.896  0.1896 -0.2889  0.3318
17651TIP3   OH274443   2.734   6.310  13.019  0.1377 -0.4230  0.8433
17651TIP3    H174444   2.681   6.332  13.096 -0.6689  0.3616  0.0758
17651TIP3    H274445   2.671   6.308  12.947  0.8698 -1.2622  0.2236
17652TIP3   OH274446   4.542   3.081   0.194 -0.0412 -0.7224 -0.4182
17652TIP3    H174447   4.463   3.071   0.140  0.3883 -0.8624 -1.0188
17652TIP3    H274448   4.513   3.058   0.283 -0.9700  0.3838 -0.4246
17653TIP3   OH274449   2.723   6.497  15.252 -0.4083  0.3074 -0.3350
17653TIP3    H174450   2.644   6.522  15.203 -0.5931 -0.1548 -0.2755
17653TIP3    H274451   2.794   6.505  15.189 -0.3928  1.4436 -0.1924
17654TIP3   OH274452   0.697   4.357   1.380  0.2676  0.2922  0.2810
17654TIP3    H174453   0.778   4.319   1.417 -1.1986 -1.4826  1.7776
17654TIP3    H274454   0.726   4.402   1.301  2.5857 -1.2775  0.1734
17655TIP3   OH274455   6.620   2.767  12.500  0.5426  0.1506  0.3943
17655TIP3    H174456   6.569   2.707  12.555  0.0952  0.4946  0.3621
17655TIP3    H274457   6.706   2.726  12.492  0.1225 -0.6726  0.0657
17656TIP3   OH274458   1.133   2.210  12.615  0.2808  0.1150 -0.2844
17656TIP3    H174459   1.207   2.208  12.554  0.7009 -2.4000  0.2838
17656TIP3    H274460   1.063   2.251  12.565  2.0025  2.5749 -0.8319
17657TIP3   OH274461   1.729   5.708   0.969 -0.4616  0.0460  0.5206
17657TIP3    H174462   1.720   5.792   1.014  1.3662  0.3012  0.4506
17657TIP3    H274463   1.792   5.725   0.899 -0.8381 -1.1452 -0.1231
17658TIP3   OH274464   2.773   6.072  14.806 -0.4463  0.3076 -0.3893
17658TIP3    H174465   2.752   6.002  14.745 -3.1057 -0.3199  1.1967
17658TIP3    H274466   2.830   6.131  14.756  0.8647 -2.3220 -2.1105
17659TIP3   OH274467   5.834   0.370   2.546 -0.3651 -0.1327  0.0812
17659TIP3    H174468   5.834   0.464   2.528  0.3514 -0.3896 -1.3305
17659TIP3    H274469   5.926   0.343   2.536 -0.9774 -1.4716 -2.3039
17660TIP3   OH274470   1.447   0.023   4.548 -0.4069 -0.6008 -0.2262
17660TIP3    H174471   1.464   0.058   4.635 -2.1503  1.2486 -0.6027
17660TIP3    H274472   1.381   0.081   4.510  0.6288 -1.0946 -2.9512
17661TIP3   OH274473   6.240   5.974   4.718 -0.2878  0.2615  0.7570
17661TIP3    H174474   6.328   5.981   4.680 -0.2152 -0.2671  0.8276
17661TIP3    H274475   6.254   5.972   4.812 -0.2554 -1.4877  0.7297
17662TIP3   OH274476   2.271   1.881   3.203  0.5159 -0.4400  0.5060
17662TIP3    H174477   2.226   1.943   3.260  0.4090  1.1018 -1.2197
17662TIP3    H274478   2.361   1.913   3.199  0.6081 -0.7505  0.1007
17663TIP3   OH274479   4.974   1.350  16.709  0.1617  0.0804  0.5992
17663TIP3    H174480   4.933   1.396  16.636  0.0847 -0.0209  0.5794
17663TIP3    H274481   5.045   1.409  16.737  1.6290 -0.8833 -0.9875
17664TIP3   OH274482   0.052   3.776   3.029  0.0431 -0.4953 -0.2832
17664TIP3    H174483  -0.003   3.703   3.056 -0.7970  0.6381  1.1782
17664TIP3    H274484  -0.005   3.853   3.036  1.3101  0.4852 -0.4091
17665TIP3   OH274485   4.427   6.681  16.485  0.4748  0.3412  0.1084
17665TIP3    H174486   4.472   6.643  16.560  0.8314 -1.4862 -0.9803
17665TIP3    H274487   4.498   6.705  16.425  0.1399  0.5801 -0.1911
17666TIP3   OH274488   3.430   2.685   5.218  0.2261  0.4204  0.0977
17666TIP3    H174489   3.486   2.611   5.195 -5.4213 -4.0355 -0.5430
17666TIP3    H274490   3.412   2.674   5.311 -1.4580  0.2876 -0.2219
17667TIP3   OH274491   5.505   5.314   6.587  0.1823  0.2136 -0.4572
17667TIP3    H174492   5.475   5.351   6.504 -1.5365 -1.4825 -0.6340
17667TIP3    H274493   5.516   5.221   6.570  0.4759 -0.0462  1.0331
17668TIP3   OH274494   1.934   0.816   1.362  0.2379 -0.1720 -0.1430
17668TIP3    H174495   2.005   0.826   1.425 -0.2602 -0.4713  0.4800
17668TIP3    H274496   1.914   0.905   1.333  0.4496 -0.0297  0.1474
17669TIP3   OH274497   6.214   5.864   1.174 -0.0542  0.3050 -0.2652
17669TIP3    H174498   6.167   5.868   1.257 -0.7795 -1.3517 -0.5751
17669TIP3    H274499   6.220   5.955   1.145 -2.1032  0.6419  0.3247
17670TIP3   OH274500   0.748   3.200  12.070  0.1451 -0.6155  0.2541
17670TIP3    H174501   0.719   3.188  11.980  0.2336  0.4061  0.0808
17670TIP3    H274502   0.735   3.115  12.111 -3.5813 -0.1280  0.2937
17671TIP3   OH274503   0.611   6.043  14.718  0.2082 -0.4729 -0.0126
17671TIP3    H174504   0.558   6.123  14.718 -0.9014 -1.1679  1.3878
17671TIP3    H274505   0.550   5.975  14.690  0.5383 -1.1677  0.9287
17672TIP3   OH274506   4.881   6.030   3.164 -0.1766 -0.5232  0.2683
17672TIP3    H174507   4.867   6.016   3.070  0.5506 -0.4196  0.1373
17672TIP3    H274508   4.825   6.103   3.186 -1.7475 -1.7144  0.3141
17673TIP3   OH274509   2.218   3.944   6.379  0.1939  0.4266  0.1190
17673TIP3    H174510   2.267   3.862   6.376 -0.9641 -0.2758  0.1729
17673TIP3    H274511   2.199   3.964   6.287 -0.1272  0.2699  0.1521
17674TIP3   OH274512   3.456   2.814   2.132 -0.5403  0.4222  0.3286
17674TIP3    H174513   3.456   2.853   2.045 -0.7278 -2.4029 -0.9810
17674TIP3    H274514   3.368   2.831   2.166  0.0251  2.9011  0.6461
17675TIP3   OH274515   0.992   2.787   0.678  0.2950  0.3694 -0.1610
17675TIP3    H174516   1.062   2.792   0.743 -1.0594  0.5069  1.2989
17675TIP3    H274517   0.962   2.696   0.682 -0.2971  0.5722 -0.0683
17676TIP3   OH274518   2.223   1.494  12.995 -0.0436 -1.3340  0.3989
17676TIP3    H174519   2.242   1.492  13.089 -0.2340  0.5058  0.4929
17676TIP3    H274520   2.143   1.443  12.985 -1.0850  0.0443  1.5152
17677TIP3   OH274521   3.419   2.961  15.606 -0.8677  0.2538  0.4295
17677TIP3    H174522   3.488   2.921  15.554 -1.6308  0.4225 -0.7345
17677TIP3    H274523   3.451   2.958  15.696  1.1703  1.3883 -0.2239
17678TIP3   OH274524   3.185   1.450  12.877  0.1139  0.1883  0.2054
17678TIP3    H174525   3.267   1.487  12.910  0.5316 -0.8536  0.3468
17678TIP3    H274526   3.167   1.375  12.934  0.7380 -1.4942 -1.7375
17679TIP3   OH274527   0.224   6.114   4.619 -0.7267  0.9551  0.1107
17679TIP3    H174528   0.301   6.059   4.608 -1.4209  0.2328 -1.2245
17679TIP3    H274529   0.205   6.147   4.531 -2.8942 -0.1689  0.1227
17680TIP3   OH274530   3.272   1.766  16.894 -0.2817  0.2281  0.1387
17680TIP3    H174531   3.287   1.677  16.926 -0.7792 -0.2566 -0.9708
17680TIP3    H274532   3.216   1.807  16.960 -0.4651 -0.4358  0.3925
17681TIP3   OH274533   1.760   3.528  17.017 -0.2718  0.5197 -0.3258
17681TIP3    H174534   1.791   3.446  17.055  0.0598 -0.6279 -2.9296
17681TIP3    H274535   1.665   3.519  17.016 -0.1643 -1.0456 -2.9964
17682TIP3   OH274536   5.767   0.285   5.730 -0.0303  0.1867 -0.7370
17682TIP3    H174537   5.715   0.234   5.667  0.0103 -1.3798  0.4929
17682TIP3    H274538   5.846   0.308   5.682 -0.8776  0.7356 -1.9173
17683TIP3   OH274539   2.851   3.517  14.621  0.3812 -0.3519  0.4694
17683TIP3    H174540   2.801   3.593  14.653  0.0545 -0.0658 -0.6883
17683TIP3    H274541   2.786   3.448  14.611  0.5757 -0.6055  0.9261
17684TIP3   OH274542   3.625   1.027  14.550 -0.2030  0.6252 -0.1380
17684TIP3    H174543   3.668   1.113  14.554  2.4935 -0.6442 -0.1692
17684TIP3    H274544   3.539   1.040  14.589  0.1695  3.3414 -0.1610
17685TIP3   OH274545   1.843   1.001  11.890  0.1558 -0.5139  0.0790
17685TIP3    H174546   1.779   0.932  11.909 -0.4306 -0.0822 -0.3317
17685TIP3    H274547   1.796   1.063  11.835  0.2867  0.9042  1.5409
17686TIP3   OH274548   1.080   6.677  15.288  0.1022 -0.8805 -0.3153
17686TIP3    H174549   0.993   6.666  15.249 -0.2901  1.0356 -0.0632
17686TIP3    H274550   1.133   6.716  15.219 -0.1807  1.1021  0.5506
17687TIP3   OH274551   3.873   0.085   1.886 -0.5304 -0.1441 -0.3410
17687TIP3    H174552   3.795   0.132   1.857  0.4520  1.2263 -0.7876
17687TIP3    H274553   3.932   0.086   1.811  1.6270  2.5657  1.3022
17688TIP3   OH274554   2.784   2.750  15.243 -0.3049  0.4396  0.6797
17688TIP3    H174555   2.719   2.809  15.205  0.7329  0.0340 -1.8170
17688TIP3    H274556   2.868   2.785  15.213  0.4387 -0.9327  1.1460
17689TIP3   OH274557   2.178   2.606   0.540  0.9757 -0.7430 -0.0432
17689TIP3    H174558   2.199   2.600   0.447  1.1544  1.2428 -0.1554
17689TIP3    H274559   2.211   2.692   0.567 -0.5697 -0.5851  1.4629
17690TIP3   OH274560   6.671   2.385   2.261  0.2202 -0.0980 -0.2818
17690TIP3    H174561   6.635   2.433   2.186  1.1403  0.9321 -0.0801
17690TIP3    H274562   6.594   2.353   2.308 -0.3612 -0.5651 -1.5502
17691TIP3   OH274563   0.623   1.006   3.910 -0.2292  0.2428  0.4007
17691TIP3    H174564   0.591   0.935   3.966  0.8895 -0.4746  0.1345
17691TIP3    H274565   0.702   1.037   3.954 -0.8538  1.5359  0.6666
17692TIP3   OH274566   1.567   5.730  15.643 -0.7387  0.6363 -0.6815
17692TIP3    H174567   1.542   5.761  15.556  1.8172 -0.5225 -1.8716
17692TIP3    H274568   1.662   5.720  15.639 -0.7613 -1.0441  1.7298
17693TIP3   OH274569   0.142   0.803   2.378 -0.5229 -0.4539  0.1748
17693TIP3    H174570   0.206   0.856   2.426 -0.4115 -0.0402 -0.4231
17693TIP3    H274571   0.093   0.866   2.326 -1.2450 -0.8026  0.4253
17694TIP3   OH274572   2.264   4.898  16.980  0.4051  0.3775  0.3105
17694TIP3    H174573   2.238   4.841  17.053 -3.0644 -2.0865 -2.6671
17694TIP3    H274574   2.201   4.970  16.983 -1.0535 -0.7836 -1.3752
17695TIP3   OH274575   0.129   1.869   1.823  0.1019  0.1150  0.1213
17695TIP3    H174576   0.222   1.888   1.811  0.4112 -0.4265  1.5040
17695TIP3    H274577   0.127   1.798   1.887 -1.2837  0.4817  0.5147
17696TIP3   OH274578   3.015   4.132  11.838  0.1570  0.1764 -0.1509
17696TIP3    H174579   3.099   4.168  11.808  0.7902  1.2644  2.8186
17696TIP3    H274580   2.966   4.208  11.868 -1.8695 -0.4769 -1.7038
17697TIP3   OH274581   4.443   1.915   2.249 -1.0838 -0.0908 -0.6121
17697TIP3    H174582   4.491   1.878   2.175 -0.4959  0.0653 -0.3129
17697TIP3    H274583   4.404   1.839   2.292 -1.2296 -0.2057 -0.9459
17698TIP3   OH274584   2.100   3.495   6.597  0.3837  0.6456  0.9680
17698TIP3    H174585   2.113   3.411   6.553 -1.2851  0.7054  0.3463
17698TIP3    H274586   2.186   3.538   6.592  1.2440 -0.9971  1.2708
17699TIP3   OH274587   1.205   2.088   2.437 -0.6825  0.8102 -0.0408
17699TIP3    H174588   1.166   2.034   2.368  0.0375 -1.0669  0.9717
17699TIP3    H274589   1.264   2.028   2.483  0.4189  2.5812  0.9019
17700TIP3   OH274590   0.572   2.055   5.708 -0.4783 -0.5709  0.0131
17700TIP3    H174591   0.639   1.988   5.724 -0.1972  0.0821  1.7043
17700TIP3    H274592   0.612   2.115   5.645  1.0561  0.5090  1.9539
17701TIP3   OH274593   3.882   1.026   4.329 -0.0474  0.0155 -0.1501
17701TIP3    H174594   3.863   0.999   4.419 -0.6360  0.5352 -0.1204
17701TIP3    H274595   3.974   1.053   4.331  0.1883 -0.7929  0.1005
17702TIP3   OH274596   6.552   6.434   0.237  0.1123 -0.0760 -0.1165
17702TIP3    H174597   6.564   6.341   0.217  0.1172  0.0946 -0.9550
17702TIP3    H274598   6.499   6.466   0.164 -0.3035  0.4720  0.4330
17703TIP3   OH274599   1.977   4.270  16.214  0.0876  0.5082  0.2893
17703TIP3    H174600   1.895   4.246  16.258  0.4922 -2.4918 -0.4435
17703TIP3    H274601   2.043   4.214  16.256  0.9756 -0.3106 -2.0986
17704TIP3   OH274602   1.883   4.409  14.171 -0.4617  0.7186  0.3007
17704TIP3    H174603   1.799   4.363  14.182 -0.6071  0.4607 -1.7218
17704TIP3    H274604   1.861   4.501  14.187 -1.4839  0.8550 -1.6717
17705TIP3   OH274605   3.805   4.206   4.731  0.0044 -0.8929  0.2082
17705TIP3    H174606   3.721   4.176   4.695 -1.6085  1.6459  1.7149
17705TIP3    H274607   3.788   4.221   4.823  1.2187  2.7955 -0.1063
17706TIP3   OH274608   3.700   5.731  17.189 -0.1577  0.4105  0.0768
17706TIP3    H174609   3.673   5.644  17.218 -0.6698  0.7515  0.6290
17706TIP3    H274610   3.622   5.767  17.147  0.2533  0.3473 -0.7589
17707TIP3   OH274611   4.837   1.069  13.798 -0.2337  0.1120  0.1153
17707TIP3    H174612   4.744   1.053  13.778 -0.4217 -0.3507  1.3263
17707TIP3    H274613   4.835   1.128  13.873  0.4562  0.2353  0.0326
17708TIP3   OH274614   1.460   4.182  13.143 -0.5140 -0.5551  0.3181
17708TIP3    H174615   1.429   4.272  13.150 -1.8762 -0.5836 -4.0331
17708TIP3    H274616   1.553   4.190  13.122 -0.4999 -0.1881  0.5173
17709TIP3   OH274617   5.059   5.118  13.830  0.5362  0.6605  0.8373
17709TIP3    H174618   5.111   5.115  13.750  0.1196 -0.1018  0.5985
17709TIP3    H274619   5.068   5.031  13.868 -1.2990  0.2334  0.3307
17710TIP3   OH274620   1.859   4.454  11.928 -0.1747  0.1321 -0.0134
17710TIP3    H174621   1.869   4.391  11.856  3.2149  0.4701  0.1120
17710TIP3    H274622   1.830   4.534  11.884  0.6206 -0.0210 -0.8320
17711TIP3   OH274623   5.276   1.070  16.237  0.4910  0.2045 -0.0798
17711TIP3    H174624   5.234   1.152  16.212  1.6527  0.2556 -1.9677
17711TIP3    H274625   5.312   1.087  16.325  0.4553  1.6149 -0.3317
17712TIP3   OH274626   5.913   5.725  11.990 -0.0122 -0.4494 -0.0214
17712TIP3    H174627   5.872   5.639  11.989  1.0646 -0.9686 -0.4046
17712TIP3    H274628   5.998   5.710  12.032 -0.0948  0.5499  0.5076
17713TIP3   OH274629   2.799   3.820  15.359 -0.4636 -0.1908 -0.0373
17713TIP3    H174630   2.712   3.802  15.323 -0.5585  1.6814 -0.8391
17713TIP3    H274631   2.839   3.880  15.296  1.0499 -0.2784  0.8118
17714TIP3   OH274632   5.140   1.782  16.913 -0.2527 -0.3457  0.0362
17714TIP3    H174633   5.084   1.781  16.990 -1.3329 -2.7498 -0.7075
17714TIP3    H274634   5.229   1.794  16.947 -0.6124 -2.3070  1.7449
17715TIP3   OH274635   2.569   1.548   1.264 -0.4894 -0.1948 -0.5008
17715TIP3    H174636   2.538   1.553   1.174 -0.7778 -3.0566 -0.6055
17715TIP3    H274637   2.500   1.502   1.311 -0.1343  0.8491  1.1026
17716TIP3   OH274638   4.454   4.295  10.800  0.6642  0.1592 -0.1267
17716TIP3    H174639   4.412   4.374  10.766 -0.1006 -0.6506 -1.0672
17716TIP3    H274640   4.466   4.239  10.724  1.9096 -0.3244  0.4102
17717TIP3   OH274641   1.855   4.887   3.138 -0.0821  0.0743  0.4344
17717TIP3    H174642   1.856   4.981   3.119 -0.3939  0.0696  0.3855
17717TIP3    H274643   1.797   4.850   3.072  1.0793 -0.3357 -0.3490
17718TIP3   OH274644   3.416   3.012   3.158  0.0960  0.1739 -0.0447
17718TIP3    H174645   3.408   2.921   3.186 -1.0428  0.3156  0.1110
17718TIP3    H274646   3.326   3.042   3.148  0.4681  1.1969 -0.3886
17719TIP3   OH274647   2.633   2.739   3.806 -0.1091  0.5168 -0.1863
17719TIP3    H174648   2.660   2.673   3.743 -0.8708 -0.2678  0.2846
17719TIP3    H274649   2.555   2.701   3.848  0.8591  0.6504  1.8031
17720TIP3   OH274650   0.988   6.581  15.003 -0.1941  0.1360 -0.0092
17720TIP3    H174651   1.084   6.585  15.009 -0.0250 -1.1848 -1.4951
17720TIP3    H274652   0.964   6.659  14.954  0.2115  0.0249 -0.3947
17721TIP3   OH274653   0.556   5.160  13.120 -0.3445  0.0025  0.4788
17721TIP3    H174654   0.546   5.252  13.095 -1.0688 -0.4789 -1.1151
17721TIP3    H274655   0.650   5.144  13.113 -0.2455  0.5516  0.5000
17722TIP3   OH274656   0.169   4.903   0.159 -0.2354 -0.9811 -0.1243
17722TIP3    H174657   0.174   4.881   0.066  0.9834  0.6042 -0.4544
17722TIP3    H274658   0.139   4.994   0.162  2.7766  0.0640  0.8617
17723TIP3   OH274659   0.026   1.730  17.231 -0.0356 -0.1469  0.5976
17723TIP3    H174660   0.076   1.663  17.185  0.0894  0.2506  0.1453
17723TIP3    H274661  -0.064   1.698  17.230  0.1099 -0.5663  0.8640
17724TIP3   OH274662   5.600   1.610  11.343 -0.4567  0.1821  0.1163
17724TIP3    H174663   5.534   1.593  11.276 -0.6383 -0.4769  0.4659
17724TIP3    H274664   5.600   1.532  11.398  1.7688 -0.5544 -0.8423
17725TIP3   OH274665   3.115   4.337  16.444 -0.0638  0.4528 -0.0898
17725TIP3    H174666   3.062   4.306  16.517 -3.7128  0.9632 -2.4097
17725TIP3    H274667   3.062   4.404  16.401  2.5729  1.2032 -2.4033
17726TIP3   OH274668   5.782   5.854   1.293  0.0271 -0.5070 -0.2648
17726TIP3    H174669   5.739   5.773   1.266 -0.4911 -0.3532  0.1188
17726TIP3    H274670   5.711   5.911   1.321  0.5989 -0.7821  1.7733
17727TIP3   OH274671   6.047   1.275   1.486 -0.0626 -0.4857  0.0576
17727TIP3    H174672   6.109   1.317   1.546  1.9277 -1.2351 -1.4237
17727TIP3    H274673   6.012   1.348   1.433  0.1455 -0.1606  0.3696
17728TIP3   OH274674   0.131   6.256  16.158  0.0798 -0.1450  0.1200
17728TIP3    H174675   0.103   6.332  16.209  0.1284 -0.3216  0.4140
17728TIP3    H274676   0.091   6.268  16.072 -0.1974  0.0341  0.2749
17729TIP3   OH274677   6.040   0.851   0.061 -0.1393 -0.0432 -0.4580
17729TIP3    H174678   5.978   0.893   0.120 -1.0197 -0.5464 -1.0087
17729TIP3    H274679   6.123   0.853   0.108 -0.9567 -1.0155  1.0986
17730TIP3   OH274680   4.817   6.395   5.086  0.5122  0.7659  0.6606
17730TIP3    H174681   4.739   6.406   5.139  1.4346  2.1698  1.7524
17730TIP3    H274682   4.793   6.327   5.022 -1.1045  0.1561  1.8775
17731TIP3   OH274683   6.491   3.598  11.481 -0.5870  0.9812  0.2230
17731TIP3    H174684   6.513   3.630  11.569 -0.2250  0.9722  0.1347
17731TIP3    H274685   6.452   3.511  11.496  0.8282  0.3441  0.2695
17732TIP3   OH274686   5.072   2.575   2.703  0.0477 -0.1167  0.5629
17732TIP3    H174687   5.040   2.655   2.745  0.4636  0.3039  0.0808
17732TIP3    H274688   5.099   2.603   2.616  0.8232 -0.6605  0.6269
17733TIP3   OH274689   4.057   2.593  12.718  0.3838 -0.4089 -0.4415
17733TIP3    H174690   4.076   2.509  12.676  1.7214 -0.4636  0.2222
17733TIP3    H274691   3.985   2.575  12.779 -0.5798 -0.6508 -1.6462
17734TIP3   OH274692   6.416   1.070  16.267  0.4049  0.2284 -0.0177
17734TIP3    H174693   6.394   1.103  16.354  0.9960  1.2890 -0.2692
17734TIP3    H274694   6.475   0.996  16.283  0.9375  0.7549  0.4576
17735TIP3   OH274695   1.321   4.442  12.533 -0.6867 -0.3584 -0.1731
17735TIP3    H174696   1.274   4.526  12.531  0.5011  0.3161 -0.3998
17735TIP3    H274697   1.259   4.379  12.497 -0.2321  1.1120 -3.7495
17736TIP3   OH274698   2.593   4.618  13.246  0.0090  0.1151 -0.0341
17736TIP3    H174699   2.638   4.562  13.183 -0.1364 -0.4917  0.4058
17736TIP3    H274700   2.590   4.704  13.203  1.1118  0.0309 -0.2931
17737TIP3   OH274701   0.936   5.642  14.144 -0.5030  0.5542  0.0867
17737TIP3    H174702   1.026   5.649  14.111 -0.4268 -0.4737  0.0657
17737TIP3    H274703   0.904   5.560  14.108 -0.8155 -0.0064  1.6263
17738TIP3   OH274704   6.768   5.841  14.838  0.3078 -0.3482  0.2234
17738TIP3    H174705   6.845   5.810  14.790 -0.2392 -0.8978 -0.3040
17738TIP3    H274706   6.695   5.830  14.777 -0.5408 -1.9299  1.4898
17739TIP3   OH274707   6.495   1.337  11.120 -0.4144  0.2950 -0.0546
17739TIP3    H174708   6.400   1.337  11.135 -0.3783 -0.4929  0.1823
17739TIP3    H274709   6.504   1.351  11.026 -0.7106  2.2190  0.1842
17740TIP3   OH274710   2.566   2.832  14.734  0.0686  0.2669 -0.1865
17740TIP3    H174711   2.659   2.809  14.738 -0.5596 -2.6164 -1.0102
17740TIP3    H274712   2.533   2.786  14.657 -1.9374  1.6736 -0.2041
17741TIP3   OH274713   5.880   1.554   5.564  0.3226 -0.7496  0.4025
17741TIP3    H174714   5.874   1.459   5.565  1.0320 -0.7983 -0.2342
17741TIP3    H274715   5.887   1.578   5.472 -0.8296 -0.0150  0.4862
17742TIP3   OH274716   4.153   5.288   1.438  0.2667 -0.0724 -0.1128
17742TIP3    H174717   4.227   5.253   1.388  0.4383  0.1892 -0.0451
17742TIP3    H274718   4.105   5.211   1.467  1.5470 -0.3191  1.4071
17743TIP3   OH274719   1.238   1.978  14.452 -0.2853 -0.1413 -0.3605
17743TIP3    H174720   1.284   2.005  14.531  1.1022  1.1718 -1.5832
17743TIP3    H274721   1.215   1.886  14.468 -0.2557  0.1787  1.6522
17744TIP3   OH274722   4.675   0.520   5.966  0.0648  0.5209 -0.9003
17744TIP3    H174723   4.656   0.488   6.054  2.0214  0.5066 -0.4595
17744TIP3    H274724   4.668   0.615   5.973 -1.9803  0.3988 -1.2751
17745TIP3   OH274725   1.461   5.843  12.058 -0.5569 -0.4142  0.2406
17745TIP3    H174726   1.418   5.886  11.984 -0.5805 -2.9986 -1.3211
17745TIP3    H274727   1.554   5.841  12.033 -0.3314  0.1538  1.0285
17746TIP3   OH274728   3.804   1.067   6.236 -0.4253  0.0747  0.4671
17746TIP3    H174729   3.741   1.000   6.259 -0.3385  0.0905  0.7511
17746TIP3    H274730   3.759   1.150   6.253  0.3065  0.0956  2.4566
17747TIP3   OH274731   2.755   5.163  15.575  0.1954 -0.8522 -0.4455
17747TIP3    H174732   2.846   5.192  15.563  1.4597 -3.6964  1.8940
17747TIP3    H274733   2.711   5.239  15.613  2.0483 -0.0524  0.1570
17748TIP3   OH274734   6.051   1.112   6.969  0.1385  0.0448  0.4206
17748TIP3    H174735   5.961   1.087   6.988  0.0763  0.3333  0.5033
17748TIP3    H274736   6.096   1.029   6.952 -0.4125 -0.0118 -0.7771
17749TIP3   OH274737   6.602   5.564  12.056 -0.4127  0.5813  0.1731
17749TIP3    H174738   6.589   5.648  12.101 -0.9011  0.4052  0.3708
17749TIP3    H274739   6.598   5.585  11.963  1.4927  1.0848  0.1974
17750TIP3   OH274740   4.432   3.220   4.667  0.2873 -0.7518 -0.0523
17750TIP3    H174741   4.405   3.136   4.705 -0.0305 -0.0812  1.2445
17750TIP3    H274742   4.486   3.260   4.735 -1.7031  1.2495  0.4086
17751TIP3   OH274743   2.079   6.094  13.153 -0.0232  0.1597  0.4360
17751TIP3    H174744   2.049   6.180  13.123  0.6965  0.6352  1.0695
17751TIP3    H274745   2.126   6.058  13.077  1.6060  1.2691  0.8883
17752TIP3   OH274746   5.965   3.797   1.749 -0.2674  0.3413 -0.1301
17752TIP3    H174747   5.900   3.788   1.819  0.1819  0.1412  0.2676
17752TIP3    H274748   5.919   3.840   1.678 -1.3879 -1.5204 -0.5664
17753TIP3   OH274749   3.820   2.848   2.492 -0.0798 -0.6395 -0.8395
17753TIP3    H174750   3.817   2.833   2.587 -0.9817 -1.7468 -1.0400
17753TIP3    H274751   3.775   2.932   2.481 -2.3983 -1.7990 -0.5425
17754TIP3   OH274752   6.067   6.357  14.873 -0.2983 -0.3633 -0.1698
17754TIP3    H174753   6.027   6.361  14.786 -1.9910 -2.2660  0.5023
17754TIP3    H274754   6.115   6.274  14.873  1.0220  0.3836  0.1783
17755TIP3   OH274755   0.929   1.320  13.402 -0.6743 -0.2642 -0.3020
17755TIP3    H174756   1.018   1.300  13.432 -0.8718  1.3428  1.4801
17755TIP3    H274757   0.873   1.260  13.451 -0.5370 -1.8636 -2.0521
17756TIP3   OH274758   2.058   0.255   6.037 -0.0836 -0.4262 -0.0853
17756TIP3    H174759   1.966   0.277   6.051  0.1527 -0.4025  1.5082
17756TIP3    H274760   2.091   0.231   6.124  1.7930  1.0107 -0.3702
17757TIP3   OH274761   5.103   0.921  11.150 -0.1968 -0.2282 -0.3972
17757TIP3    H174762   5.076   1.013  11.143 -1.1319 -0.4451  0.2938
17757TIP3    H274763   5.164   0.909  11.077 -0.8657  0.6575 -1.1248
17758TIP3   OH274764   2.252   5.267  15.161 -0.2966  0.2155  0.3275
17758TIP3    H174765   2.212   5.211  15.094  1.9447 -0.2383 -0.6818
17758TIP3    H274766   2.250   5.355  15.124 -0.3157  0.1827  0.2510
17759TIP3   OH274767   4.950   4.861  13.507 -0.2142  0.0033 -0.3115
17759TIP3    H174768   4.999   4.934  13.542  0.6322 -0.8588  0.3213
17759TIP3    H274769   4.954   4.872  13.412  1.5190 -0.2648 -0.2708
17760TIP3   OH274770   6.250   6.320  12.628 -0.4197  0.6062 -0.2111
17760TIP3    H174771   6.232   6.330  12.721  0.7590 -0.8761  0.1867
17760TIP3    H274772   6.243   6.409  12.593 -1.1603  1.1305  1.2286
17761TIP3   OH274773   0.766   0.988   0.930 -0.1674 -1.0671 -0.5167
17761TIP3    H174774   0.700   0.983   0.999  1.1877 -0.8560  0.8217
17761TIP3    H274775   0.785   1.082   0.921  0.7144 -1.2068 -0.1473
17762TIP3   OH274776   1.166   2.233   5.245  0.4270  0.1502 -0.4145
17762TIP3    H174777   1.260   2.236   5.226  0.3106 -0.3223 -1.0998
17762TIP3    H274778   1.130   2.176   5.177 -0.6537  1.9381 -1.3877
17763TIP3   OH274779   5.581   3.154  13.116  0.6834  0.4628 -0.8925
17763TIP3    H174780   5.645   3.114  13.174 -0.3054 -2.2363 -1.5657
17763TIP3    H274781   5.569   3.090  13.046 -1.4055  1.7042 -1.7261
17764TIP3   OH274782   1.231   4.828   6.513  0.2456  0.2524  0.2017
17764TIP3    H174783   1.241   4.753   6.571 -1.7994 -1.4102 -1.4875
17764TIP3    H274784   1.145   4.864   6.534 -1.4033 -1.5407 -2.9406
17765TIP3   OH274785   3.479   6.036  14.301 -0.0270  0.7423 -0.2420
17765TIP3    H174786   3.420   6.111  14.291 -0.0845  0.6647 -0.4935
17765TIP3    H274787   3.422   5.965  14.334 -0.5778 -0.0060 -2.7078
17766TIP3   OH274788   3.744   0.821  15.216 -0.3257  0.2798 -0.5042
17766TIP3    H174789   3.665   0.862  15.252  0.8972  1.7543  0.5786
17766TIP3    H274790   3.791   0.787  15.292  1.3566  1.7574 -0.8481
17767TIP3   OH274791   2.611   6.445  12.132  0.1953 -0.5423 -0.3978
17767TIP3    H174792   2.640   6.518  12.188 -0.3153 -0.8390  0.2690
17767TIP3    H274793   2.578   6.487  12.053 -0.6390  0.0067  0.2198
17768TIP3   OH274794   0.635   2.996  13.352  0.3769  0.0537 -0.0610
17768TIP3    H174795   0.710   3.011  13.409  0.6412 -0.5548 -0.2459
17768TIP3    H274796   0.618   2.901  13.357 -0.0498  0.1040 -0.4251
17769TIP3   OH274797   1.368   2.711  11.712 -0.2148  0.1835 -0.0156
17769TIP3    H174798   1.317   2.730  11.632  1.7702  2.2894 -0.8303
17769TIP3    H274799   1.359   2.790  11.765  2.1761  0.5938 -0.1770
17770TIP3   OH274800   0.288   3.073   2.919  0.5927 -0.3693  0.2571
17770TIP3    H174801   0.226   3.139   2.950 -1.1011 -1.6876 -0.2707
17770TIP3    H274802   0.304   3.095   2.827 -0.8372 -1.3337 -0.2310
17771TIP3   OH274803   0.597   5.203  12.724 -0.3148  0.4618 -0.2184
17771TIP3    H174804   0.597   5.297  12.741 -0.8974  0.6118 -0.9916
17771TIP3    H274805   0.685   5.185  12.689  0.7994  0.1917  2.5956
17772TIP3   OH274806   3.970   2.368   1.569  0.2021 -0.4163 -0.0801
17772TIP3    H174807   4.034   2.430   1.535  0.9652 -0.8529  0.5368
17772TIP3    H274808   4.019   2.285   1.578 -0.1488 -0.4931  1.3653
17773TIP3   OH274809   1.373   1.561  14.984  0.1484  0.2282 -0.1437
17773TIP3    H174810   1.313   1.519  14.922  0.0695 -0.6499  0.5213
17773TIP3    H274811   1.317   1.585  15.059  0.8829 -2.0023  1.1622
17774TIP3   OH274812   1.531   6.024  13.229 -0.1964 -0.6638  0.6462
17774TIP3    H174813   1.519   5.997  13.320 -1.0892  0.6675  0.9361
17774TIP3    H274814   1.449   6.067  13.206  0.6632  0.5071 -0.2676
17775TIP3   OH274815   3.000   1.975   1.091  0.2454  0.3533  0.3968
17775TIP3    H174816   2.943   1.971   1.014 -2.7772 -1.2267  2.6056
17775TIP3    H274817   2.954   2.034   1.151  1.8253  0.4120  1.5646
17776TIP3   OH274818   2.931   5.158   5.371 -0.6089  0.1397  0.4646
17776TIP3    H174819   2.979   5.229   5.413  0.3212  0.2247 -0.6986
17776TIP3    H274820   2.999   5.099   5.338 -1.3434 -0.5561  0.1820
17777TIP3   OH274821   0.693   2.000   4.887 -0.3072 -0.0976 -0.1148
17777TIP3    H174822   0.770   2.055   4.900 -0.9096  0.1952  2.3639
17777TIP3    H274823   0.723   1.912   4.910  0.6151 -0.8820 -3.9334
17778TIP3   OH274824   0.004   4.783  13.723 -0.1743 -0.0007  0.1459
17778TIP3    H174825  -0.081   4.819  13.697 -0.1987  0.8575  1.3910
17778TIP3    H274826   0.013   4.807  13.815  0.5745 -1.7465  0.5365
17779TIP3   OH274827   6.516   5.755   5.169  0.6664  0.0775 -0.2382
17779TIP3    H174828   6.461   5.791   5.239  0.4581  1.4870 -1.0988
17779TIP3    H274829   6.527   5.663   5.192 -1.6610 -0.1216  0.2075
17780TIP3   OH274830   4.736   6.348  11.874 -0.1084 -0.6576  0.0880
17780TIP3    H174831   4.656   6.348  11.822 -0.4566  1.8912  0.5752
17780TIP3    H274832   4.806   6.368  11.811 -0.5022  2.1861  0.4593
17781TIP3   OH274833   1.378   2.947   6.244 -0.0675  0.1888  0.1021
17781TIP3    H174834   1.411   3.033   6.218  1.3846 -1.0789 -2.3484
17781TIP3    H274835   1.451   2.887   6.230 -2.8428 -2.4681 -4.0062
17782TIP3   OH274836   6.730   2.556  15.589  0.4101 -0.1235 -0.0331
17782TIP3    H174837   6.700   2.602  15.510  1.6499 -0.1634 -0.5367
17782TIP3    H274838   6.749   2.626  15.652  0.8201 -0.0131 -0.2745
17783TIP3   OH274839   6.483   4.596  12.504 -0.2780  0.3080  0.3811
17783TIP3    H174840   6.538   4.658  12.456  1.6067 -1.4528  0.2054
17783TIP3    H274841   6.535   4.516  12.508 -2.7993 -1.3662  0.3442
17784TIP3   OH274842   4.420   1.867  12.372 -0.1315  0.2593 -0.6852
17784TIP3    H174843   4.370   1.877  12.291  1.6942 -0.1401 -1.8865
17784TIP3    H274844   4.490   1.806  12.350  0.9195  0.8407  0.9529
17785TIP3   OH274845   5.503   2.060  12.025  0.4044 -0.0460 -0.1296
17785TIP3    H174846   5.461   1.996  11.967 -1.6958 -0.9681  2.3355
17785TIP3    H274847   5.597   2.045  12.011 -0.0324 -0.8742 -2.5659
17786TIP3   OH274848   6.537   4.251   2.462  0.2012 -0.1356  0.0020
17786TIP3    H174849   6.508   4.249   2.553 -0.7302  1.4109 -0.2435
17786TIP3    H274850   6.498   4.172   2.423  0.4167 -0.6805  0.8703
17787TIP3   OH274851   6.629   5.403  12.416 -0.2996 -0.0590  0.3723
17787TIP3    H174852   6.705   5.439  12.371  1.7707 -2.5962  1.7175
17787TIP3    H274853   6.590   5.342  12.353  0.6061 -1.0522  0.7549
17788TIP3   OH274854   3.648   0.554   3.335  0.1667  0.3726  0.4717
17788TIP3    H174855   3.610   0.616   3.397 -1.1753  0.3614 -0.3225
17788TIP3    H274856   3.727   0.521   3.379 -0.1664  1.1944  1.6970
17789TIP3   OH274857   5.670   6.040  14.365  0.1497  0.3456  0.3292
17789TIP3    H174858   5.626   6.108  14.416 -1.3103 -0.4476  0.1490
17789TIP3    H274859   5.669   6.073  14.275 -2.8892 -1.0240 -0.2030
17790TIP3   OH274860   6.013   3.015   4.747 -0.4102 -0.9748 -0.1413
17790TIP3    H174861   6.011   2.921   4.730 -0.4493 -0.6905 -1.8053
17790TIP3    H274862   6.018   3.055   4.660 -1.9080  0.6122  0.4732
17791TIP3   OH274863   0.611   5.723  15.047 -0.0570 -0.2412  0.0934
17791TIP3    H174864   0.702   5.721  15.076 -0.6449  1.8191  2.2440
17791TIP3    H274865   0.601   5.644  14.994  2.8474 -0.7169  0.1760
17792TIP3   OH274866   1.632   6.469   1.135  0.1446  0.0655 -0.9303
17792TIP3    H174867   1.700   6.522   1.179  0.4758 -1.7112  0.8013
17792TIP3    H274868   1.623   6.391   1.191 -2.2328 -0.4566 -1.9773
17793TIP3   OH274869   2.919   3.504   3.504 -0.0828  0.2334 -0.6414
17793TIP3    H174870   2.969   3.547   3.572 -0.6112  1.1666 -0.8368
17793TIP3    H274871   2.979   3.438   3.468  0.6552  0.6661 -0.2104
17794TIP3   OH274872   3.211   4.151   1.769  0.2928  0.0948  0.1714
17794TIP3    H174873   3.305   4.156   1.758  0.1011  2.2120 -0.7040
17794TIP3    H274874   3.188   4.229   1.820 -1.3294  1.3121 -2.2923
17795TIP3   OH274875   1.077   2.219  13.799 -0.0536 -0.1999 -0.0299
17795TIP3    H174876   0.982   2.222  13.792 -0.0971  1.3421  1.0442
17795TIP3    H274877   1.095   2.166  13.877 -0.0167 -0.7504 -0.4081
17796TIP3   OH274878   6.756   5.222   5.566 -0.2034 -0.1402  0.4128
17796TIP3    H174879   6.731   5.181   5.483 -3.9220 -1.5189  2.1255
17796TIP3    H274880   6.802   5.153   5.614 -0.3104 -0.1227  0.5396
17797TIP3   OH274881   1.618   1.823  15.957 -0.5119  0.1027 -0.3500
17797TIP3    H174882   1.523   1.811  15.952 -0.8898  1.4176  2.6459
17797TIP3    H274883   1.650   1.748  16.007 -0.4442  1.4106  1.6205
17798TIP3   OH274884   4.811   3.995  12.534  0.4317  0.1732 -0.1308
17798TIP3    H174885   4.808   4.027  12.624 -3.7150 -1.5893  0.4531
17798TIP3    H274886   4.863   3.915  12.538 -1.6808 -1.1741  1.2073
17799TIP3   OH274887   4.271   4.829   1.001  0.3546  0.1007 -0.7988
17799TIP3    H174888   4.198   4.767   1.001  0.4994 -0.0790 -3.0915
17799TIP3    H274889   4.335   4.791   1.062 -0.8723 -0.4158  0.1771
17800TIP3   OH274890   2.702   6.589  13.907  0.6061  0.1229  0.6760
17800TIP3    H174891   2.678   6.671  13.952  2.1604  1.3180 -0.5926
17800TIP3    H274892   2.656   6.593  13.823  1.8717  0.4401 -0.0198
17801TIP3   OH274893   4.850   5.399  11.053  0.2784 -0.2269  0.4830
17801TIP3    H174894   4.813   5.487  11.064  0.0177 -0.4795  1.6906
17801TIP3    H274895   4.895   5.403  10.969 -0.7023  0.7207 -0.0201
17802TIP3   OH274896   4.475   2.068  12.892  0.0987 -0.0631 -0.2375
17802TIP3    H174897   4.513   2.031  12.812 -1.0429  1.6910 -1.6399
17802TIP3    H274898   4.420   1.998  12.928 -1.3940 -0.0743 -2.4119
17803TIP3   OH274899   6.051   5.514   6.290  0.6921 -0.2684  0.1994
17803TIP3    H174900   5.981   5.560   6.336 -0.3840  0.0243 -1.6864
17803TIP3    H274901   6.114   5.582   6.268  1.0698 -0.3632  0.9685
17804TIP3   OH274902   2.910   2.443   1.269 -0.4711 -0.0131  0.0090
17804TIP3    H174903   2.941   2.372   1.326  0.9320 -0.0161 -0.7216
17804TIP3    H274904   2.822   2.463   1.301  0.2202 -0.1192  2.0623
17805TIP3   OH274905   6.015   6.489   5.970 -0.1537 -0.2535  0.3023
17805TIP3    H174906   6.079   6.551   5.936 -0.5654 -0.2840 -0.5386
17805TIP3    H274907   6.042   6.404   5.933 -1.0850 -0.1512 -0.6486
17806TIP3   OH274908   5.979   2.476   4.293 -0.0966  0.7431 -0.0702
17806TIP3    H174909   6.028   2.525   4.359  1.2068  0.2262 -0.6371
17806TIP3    H274910   5.941   2.402   4.341  1.6927 -0.2045 -0.0695
17807TIP3   OH274911   0.681   6.278  16.858  0.0494 -0.4348  0.0207
17807TIP3    H174912   0.739   6.350  16.882 -1.3821 -0.3683  3.6495
17807TIP3    H274913   0.739   6.204  16.845  1.1987  0.3465  0.6308
17808TIP3   OH274914   1.692   6.437  11.324 -0.0441 -0.3940  0.5022
17808TIP3    H174915   1.628   6.381  11.281 -0.1782 -0.0427  0.2432
17808TIP3    H274916   1.640   6.501  11.373  0.1103  0.0170  0.1259
17809TIP3   OH274917   0.956   4.111  11.944  0.6764 -0.3299  0.0313
17809TIP3    H174918   1.047   4.134  11.926  0.5211 -0.5642 -1.0490
17809TIP3    H274919   0.943   4.026  11.902  0.0770 -0.4992  0.5489
17810TIP3   OH274920   2.962   2.554  11.496  0.6868 -0.5759  0.1551
17810TIP3    H174921   2.972   2.584  11.406 -0.8929 -1.1153 -0.2139
17810TIP3    H274922   2.901   2.480  11.491 -0.0688 -0.1085  1.7485
17811TIP3   OH274923   5.834   5.707  15.354  0.2147 -0.2730  0.3631
17811TIP3    H174924   5.828   5.800  15.334 -2.7345 -0.7433 -1.2331
17811TIP3    H274925   5.795   5.698  15.442 -1.3404 -0.2322 -0.3081
17812TIP3   OH274926   4.989   3.154   3.299 -0.0618  0.2766  0.1251
17812TIP3    H174927   4.926   3.212   3.256  0.5040  1.1273  0.4350
17812TIP3    H274928   5.027   3.207   3.369 -0.1178 -0.7241  0.9303
17813TIP3   OH274929   0.742   4.923   4.910  0.2617  0.1945 -0.5197
17813TIP3    H174930   0.765   4.838   4.947 -0.9370  0.2305  0.3482
17813TIP3    H274931   0.723   4.904   4.818  2.0352 -0.1048 -0.8473
17814TIP3   OH274932   0.917   5.379  10.622  0.0482  0.1512  0.2454
17814TIP3    H174933   0.999   5.379  10.673  0.9911 -3.8310 -1.0401
17814TIP3    H274934   0.874   5.297  10.647 -1.7505  0.4003 -1.8886
17815TIP3   OH274935   5.318   1.734   3.317  0.7408  0.5905 -0.4638
17815TIP3    H174936   5.287   1.699   3.234  1.1193 -1.1998  0.1350
17815TIP3    H274937   5.272   1.818   3.327 -2.2149 -0.9446 -0.6459
17816TIP3   OH274938   6.743   5.249  13.577 -0.2936 -0.7204  0.4183
17816TIP3    H174939   6.799   5.181  13.540 -0.4924 -1.0707  0.7521
17816TIP3    H274940   6.799   5.294  13.640 -0.5571 -1.4775  1.2135
17817TIP3   OH274941   1.951   2.946   5.351  0.5488  0.0000  0.4958
17817TIP3    H174942   1.860   2.960   5.324 -0.6556 -1.5354  3.5011
17817TIP3    H274943   2.003   2.978   5.278 -2.3696  2.6452 -0.5200
17818TIP3   OH274944   1.632   0.456  15.989 -0.0837 -0.0644  0.4228
17818TIP3    H174945   1.669   0.544  15.985 -1.0818  0.3855  0.8471
17818TIP3    H274946   1.694   0.406  16.042  0.8357  0.2015 -0.4005
17819TIP3   OH274947   3.954   5.460  11.283 -0.1966 -0.3058  0.3210
17819TIP3    H174948   3.978   5.409  11.206 -1.8974 -3.6961  1.9508
17819TIP3    H274949   3.896   5.528  11.249  2.2688  0.7862 -1.9074
17820TIP3   OH274950   3.614   0.017   0.601  0.2085  0.6522  0.0853
17820TIP3    H174951   3.639  -0.069   0.566 -2.1680 -0.3962  0.8776
17820TIP3    H274952   3.692   0.046   0.650  0.0692 -2.4368  2.3434
17821TIP3   OH274953   1.660   3.860  16.050 -0.1047  0.0419 -0.3248
17821TIP3    H174954   1.566   3.852  16.064 -0.3293  0.9249 -1.2910
17821TIP3    H274955   1.672   3.845  15.957  0.7365 -0.2323 -0.1791
17822TIP3   OH274956   5.809   5.707  14.771 -0.0421  0.3798 -0.2165
17822TIP3    H174957   5.732   5.710  14.714  0.4209 -0.2550 -0.8884
17822TIP3    H274958   5.845   5.620  14.758  0.5245  0.5131  0.4495
17823TIP3   OH274959   1.012   2.482  11.467 -0.6803  0.3309  0.1222
17823TIP3    H174960   1.064   2.490  11.387  1.7174 -2.4559  1.3200
17823TIP3    H274961   0.938   2.542  11.453  2.6956  4.3250 -1.6950
17824TIP3   OH274962   0.232   1.385   4.721  0.0212 -0.2371 -0.2883
17824TIP3    H174963   0.312   1.430   4.694  0.7387 -2.4250 -1.8726
17824TIP3    H274964   0.193   1.444   4.786  3.0022  0.7675  0.6847
17825TIP3   OH274965   2.130   3.917   2.514  0.3812  0.7565  0.1395
17825TIP3    H174966   2.161   3.833   2.547 -0.6295  0.9939  1.7247
17825TIP3    H274967   2.085   3.894   2.432  0.7396 -0.1442  0.1790
17826TIP3   OH274968   4.601   0.136   2.513  0.0752 -1.0986 -0.2542
17826TIP3    H174969   4.508   0.127   2.491 -0.5173 -1.1157  2.1168
17826TIP3    H274970   4.642   0.056   2.480 -1.2682 -2.4144  1.1737
17827TIP3   OH274971   5.341   3.016  12.037 -0.1253  0.0552 -0.0316
17827TIP3    H174972   5.250   3.046  12.043  0.1977  1.0389  0.0406
17827TIP3    H274973   5.380   3.041  12.121  0.4507  0.4512 -0.4114
17828TIP3   OH274974   1.210   3.998   3.211 -0.6429  0.5721  0.3136
17828TIP3    H174975   1.203   3.917   3.161 -1.7656  0.7024  0.2422
17828TIP3    H274976   1.132   4.047   3.188 -0.5266  1.1959  1.2052
17829TIP3   OH274977   6.203   0.578   5.032  0.0792 -0.5174 -0.5050
17829TIP3    H174978   6.112   0.605   5.045 -0.0960 -1.2378 -0.1720
17829TIP3    H274979   6.198   0.504   4.972  0.3595 -1.1593  0.2521
17830TIP3   OH274980   3.502   3.131   1.807  0.2226 -0.0603 -0.1261
17830TIP3    H174981   3.414   3.091   1.807  0.9129 -1.7159  2.1969
17830TIP3    H274982   3.498   3.197   1.738 -2.8134 -0.1917 -0.1730
17831TIP3   OH274983   6.754   0.758  13.844 -0.0782  0.1045 -0.1950
17831TIP3    H174984   6.691   0.801  13.786 -0.3237  0.0418  0.0198
17831TIP3    H274985   6.770   0.822  13.913  0.3110  0.2287 -0.3973
17832TIP3   OH274986   3.992   2.804  12.997  0.0090  0.4644  0.0958
17832TIP3    H174987   3.927   2.768  13.058 -0.6403  2.1407  0.4209
17832TIP3    H274988   4.073   2.807  13.048  0.8470 -3.3353 -0.8641
17833TIP3   OH274989   1.143   5.863  12.068 -0.4773 -0.0556  0.0144
17833TIP3    H174990   1.200   5.925  12.113 -0.3927 -0.8080  0.9636
17833TIP3    H274991   1.057   5.905  12.067 -0.8526 -0.7105  2.3493
17834TIP3   OH274992   3.616   4.694   2.495 -0.2538 -0.0954  0.1942
17834TIP3    H174993   3.589   4.785   2.479 -0.3350 -0.0245  0.7217
17834TIP3    H274994   3.577   4.672   2.579 -0.8947 -0.8902 -0.3121
17835TIP3   OH274995   4.055   4.195  12.760 -0.3202  0.9325 -0.1492
17835TIP3    H174996   4.053   4.286  12.792  0.7456  0.0306  2.6598
17835TIP3    H274997   3.970   4.159  12.782 -0.4279  0.9809 -0.4769
17836TIP3   OH274998   1.320   5.739  16.663  0.0054 -0.7806 -0.5329
17836TIP3    H174999   1.353   5.651  16.646  1.0940 -0.2001 -1.4832
17836TIP3    H275000   1.338   5.788  16.583  0.0852  0.5088  0.2484
17837TIP3   OH275001   2.336   1.803  14.389 -0.5614  0.1587 -0.4703
17837TIP3    H175002   2.315   1.896  14.377 -1.9013 -0.2226 -1.2024
17837TIP3    H275003   2.276   1.757  14.330 -0.5777 -1.2252  0.5841
17838TIP3   OH275004   5.967   6.005  13.303 -0.4868  0.8385  0.0796
17838TIP3    H175005   5.973   5.920  13.346  1.2880  0.8622 -0.1025
17838TIP3    H275006   5.927   5.986  13.218 -1.1435  0.3592  0.4851
17839TIP3   OH275007   2.171   5.205  13.203 -0.7817  0.1286 -0.5861
17839TIP3    H175008   2.082   5.215  13.235 -0.1823  0.9232  0.8987
17839TIP3    H275009   2.225   5.205  13.282  0.5960  0.4425 -1.5060
17840TIP3   OH275010   2.273   3.843  16.044 -0.1645  0.2062  0.2801
17840TIP3    H175011   2.297   3.919  15.991  1.7783  1.1715  2.4592
17840TIP3    H275012   2.337   3.776  16.020 -0.2279  0.1415  0.2929
17841TIP3   OH275013   2.497   6.189   3.593  0.0231 -0.4319  0.0169
17841TIP3    H175014   2.422   6.164   3.539  0.1044  0.1149 -0.3483
17841TIP3    H275015   2.477   6.278   3.623  0.8224 -0.0393 -0.6013
17842TIP3   OH275016   0.343   4.462  11.184  0.3000 -0.0263 -0.0520
17842TIP3    H175017   0.425   4.494  11.222  0.1896  0.5976 -0.3349
17842TIP3    H275018   0.332   4.512  11.103 -1.2874  1.2354  0.9036
17843TIP3   OH275019   5.509   4.886  15.284  0.3922 -0.0908  0.5296
17843TIP3    H175020   5.456   4.819  15.240  1.1367 -0.9013  0.8373
17843TIP3    H275021   5.449   4.959  15.299  0.0641  0.1541 -1.6874
17844TIP3   OH275022   1.928   3.221   4.954  0.4748 -0.3253  0.0894
17844TIP3    H175023   1.945   3.313   4.971 -0.0508 -0.3503  0.7765
17844TIP3    H275024   1.937   3.178   5.040  0.0283 -0.8014 -0.0984
17845TIP3   OH275025   1.033   0.468   4.420  0.2696 -0.3727 -0.1071
17845TIP3    H175026   1.086   0.389   4.416 -0.8000 -1.1824  1.1343
17845TIP3    H275027   0.960   0.445   4.478 -0.1059  1.4886  0.2008
17846TIP3   OH275028   6.249   5.888   2.619 -0.6903  0.0795  0.2132
17846TIP3    H175029   6.285   5.961   2.569  0.1045 -0.2268  0.3285
17846TIP3    H275030   6.164   5.872   2.580 -0.2714  0.1430 -0.7457
17847TIP3   OH275031   4.296   4.659   2.302 -0.4161  0.0945  0.0546
17847TIP3    H175032   4.375   4.647   2.249 -0.2876  0.4330  0.1632
17847TIP3    H275033   4.283   4.575   2.346 -2.9038 -1.5880 -3.6897
17848TIP3   OH275034   2.790   0.413   2.254 -0.2993  0.4892  0.0228
17848TIP3    H175035   2.754   0.499   2.277 -1.8426 -0.1024 -0.1451
17848TIP3    H275036   2.791   0.364   2.336 -2.2590 -0.3365 -0.4127
17849TIP3   OH275037   3.454   6.614   3.860 -0.3334  0.1321  0.4145
17849TIP3    H175038   3.433   6.705   3.837 -0.0827  0.3468  1.0317
17849TIP3    H275039   3.424   6.563   3.785  0.3761  0.8179 -0.3445
17850TIP3   OH275040   4.659   3.811   1.498 -0.3282 -0.4039 -0.0785
17850TIP3    H175041   4.589   3.838   1.439  1.6078  0.3700 -2.0768
17850TIP3    H275042   4.640   3.858   1.580 -1.2393  1.0468 -1.0969
17851TIP3   OH275043   5.612   4.817  13.611  0.0877 -0.5607  0.6358
17851TIP3    H175044   5.614   4.721  13.611 -1.8171 -0.6147  1.3229
17851TIP3    H275045   5.536   4.839  13.557 -1.3412  0.4816  2.9851
17852TIP3   OH275046   3.758   1.358   5.639 -0.2098 -0.4135  0.4015
17852TIP3    H175047   3.664   1.374   5.638  0.0876  1.5224 -0.7279
17852TIP3    H275048   3.794   1.436   5.682  0.8120 -1.4465  1.4100
17853TIP3   OH275049   2.617   6.760   3.503 -0.3160  0.1968 -0.0429
17853TIP3    H175050   2.553   6.761   3.574 -0.5500 -1.6287 -0.1930
17853TIP3    H275051   2.623   6.851   3.474 -2.0834  0.5518  0.6485
17854TIP3   OH275052   0.497   0.054  14.792  0.7095  0.0008  0.4199
17854TIP3    H175053   0.582   0.058  14.748  1.4848  2.2536  2.0159
17854TIP3    H275054   0.517   0.074  14.884 -1.2219 -1.9101  1.2999
17855TIP3   OH275055   2.339   6.258   6.027 -0.2408 -0.1875 -0.2486
17855TIP3    H175056   2.404   6.212   6.080 -0.0779 -0.3219 -0.5627
17855TIP3    H275057   2.258   6.254   6.079 -0.1537 -0.5683 -0.1412
17856TIP3   OH275058   2.485   5.863   6.129 -0.4064 -0.4371 -0.0322
17856TIP3    H175059   2.504   5.870   6.035  1.6517  1.3475  0.4725
17856TIP3    H275060   2.560   5.815   6.165 -1.4610 -1.6041  0.6231
17857TIP3   OH275061   1.026   6.190  15.126 -0.3036 -0.4421 -0.6456
17857TIP3    H175062   1.052   6.133  15.198  0.4540  2.5091  1.5063
17857TIP3    H275063   1.101   6.191  15.067  1.1401  1.1825  1.1664
17858TIP3   OH275064   0.355   1.240  14.969 -0.1857  0.0511  0.0179
17858TIP3    H175065   0.303   1.290  15.031 -2.4776 -1.7960 -0.3240
17858TIP3    H275066   0.312   1.253  14.884 -0.7382 -2.2791 -0.1049
17859TIP3   OH275067   4.972   3.637  14.283  0.7950  0.1488  0.1888
17859TIP3    H175068   5.014   3.649  14.368 -0.2102  2.8617  0.3458
17859TIP3    H275069   4.961   3.726  14.249  0.1263 -0.8355 -2.2722
17860TIP3   OH275070   6.615   4.892  15.537 -0.0994  0.0456 -0.4363
17860TIP3    H175071   6.677   4.930  15.475  0.6426  0.8249  0.7543
17860TIP3    H275072   6.659   4.814  15.571 -0.8099 -0.7982 -1.4186
17861TIP3   OH275073   5.840   6.779  12.452  0.2310  0.1627 -0.1471
17861TIP3    H175074   5.876   6.769  12.540 -2.1670 -1.1269  0.7382
17861TIP3    H275075   5.823   6.873  12.444  0.1186  0.2409  0.9345
17862TIP3   OH275076   2.990   6.373  14.399  0.5224  0.2638  0.1835
17862TIP3    H175077   3.046   6.432  14.350 -2.0332 -0.2410 -3.5576
17862TIP3    H275078   3.026   6.286  14.381  1.3744  0.2704  1.7426
17863TIP3   OH275079   6.371   1.403  14.643  0.1800 -0.6246  0.0064
17863TIP3    H175080   6.316   1.325  14.634  0.8150 -1.1322  0.4577
17863TIP3    H275081   6.436   1.394  14.573 -0.1908 -0.1250 -0.4040
17864TIP3   OH275082   0.277   3.205  12.112  0.0175 -0.6151 -0.8027
17864TIP3    H175083   0.296   3.246  12.028 -2.0362  0.3000 -0.8485
17864TIP3    H275084   0.363   3.180  12.146  1.1921  2.0549 -1.6403
17865TIP3   OH275085   3.454   3.546  16.333 -0.1426  0.3387 -0.1675
17865TIP3    H175086   3.495   3.481  16.275 -0.1576 -1.8037  2.1514
17865TIP3    H275087   3.523   3.610  16.350  0.3831  0.0375 -1.1202
17866TIP3   OH275088   4.631   2.476   1.010  0.1212 -0.0322  0.2841
17866TIP3    H175089   4.622   2.476   1.105 -2.9118  0.5375  0.0485
17866TIP3    H275090   4.561   2.534   0.979 -0.2851 -1.8443 -2.3852
17867TIP3   OH275091   3.971   6.585   3.730 -0.1101 -0.0663 -0.4929
17867TIP3    H175092   3.895   6.527   3.720 -0.5369 -0.1304  2.7439
17867TIP3    H275093   4.043   6.526   3.751 -0.2705  0.4166  1.4980
17868TIP3   OH275094   6.712   4.961  12.456  0.4411  0.1924 -0.3926
17868TIP3    H175095   6.789   5.016  12.471  0.0511  0.6612 -0.1288
17868TIP3    H275096   6.638   5.013  12.488  0.2884 -1.2728  1.7267
17869TIP3   OH275097   2.031   3.399  10.494  0.2372 -0.0338  0.3952
17869TIP3    H175098   1.956   3.446  10.456  1.1240 -0.8659 -2.4402
17869TIP3    H275099   2.091   3.469  10.521 -0.3196  0.5721  0.0947
17870TIP3   OH275100   1.911   5.348   1.092 -0.2092  0.0267 -0.1323
17870TIP3    H175101   1.974   5.352   1.020  1.3431  1.2049  1.2709
17870TIP3    H275102   1.903   5.438   1.122  0.3844 -0.6718  2.2177
17871TIP3   OH275103   1.740   3.089   6.247 -0.6961  0.0153 -0.1614
17871TIP3    H175104   1.780   3.112   6.164 -1.7756  1.7538 -0.2095
17871TIP3    H275105   1.770   2.999   6.264  1.7939  0.6545 -1.0255
17872TIP3   OH275106   4.968   2.105   1.877  0.5190 -0.1294 -0.1274
17872TIP3    H175107   4.898   2.168   1.893  1.8793  1.6560 -1.0964
17872TIP3    H275108   5.016   2.101   1.960 -1.8756 -2.9328  1.2460
17873TIP3   OH275109   5.935   0.217  13.564 -0.5968 -0.1293 -0.0313
17873TIP3    H175110   5.971   0.282  13.504  0.0886 -1.2035 -0.8031
17873TIP3    H275111   5.882   0.267  13.625 -0.3853  1.1074 -0.8529
17874TIP3   OH275112   0.832   6.718  12.145 -0.4074 -0.2505  0.4486
17874TIP3    H175113   0.895   6.647  12.159 -0.2175 -0.5174 -1.6417
17874TIP3    H275114   0.754   6.674  12.110 -0.5744  0.4775 -0.0926
17875TIP3   OH275115   4.911   4.371   1.425  0.2542  0.0950  0.1025
17875TIP3    H175116   4.900   4.455   1.471 -1.5850  0.6739 -1.3484
17875TIP3    H275117   4.822   4.340   1.410  0.8588 -0.8913 -1.6141
17876TIP3   OH275118   5.085   3.016  15.169  0.1387  0.2382  0.4377
17876TIP3    H175119   5.030   3.026  15.091  2.2888 -1.4321 -1.3567
17876TIP3    H275120   5.157   3.077  15.156 -0.1902  0.9495  1.8154
17877TIP3   OH275121   0.222   5.370   4.103 -0.3030 -0.4124  0.1493
17877TIP3    H175122   0.178   5.419   4.033  0.6168  0.7725  0.3722
17877TIP3    H275123   0.168   5.293   4.116 -0.7937 -0.3698 -1.4931
17878TIP3   OH275124   1.229   5.543   4.843 -0.0274 -0.0073 -0.1678
17878TIP3    H175125   1.158   5.550   4.780 -0.9386  0.4046  0.8871
17878TIP3    H275126   1.306   5.576   4.797 -0.5397 -0.3468 -1.2771
17879TIP3   OH275127   3.860   3.348   4.917  0.3259 -0.6196 -0.0510
17879TIP3    H175128   3.954   3.343   4.935  0.2771 -1.1633  0.0569
17879TIP3    H275129   3.855   3.395   4.833  0.8577 -3.0158 -1.4801
17880TIP3   OH275130   2.797   0.234  12.994 -0.4192 -0.2010  0.7094
17880TIP3    H175131   2.886   0.266  12.982 -0.9311  0.6258 -1.1790
17880TIP3    H275132   2.803   0.169  13.064  1.3124  1.2430  1.9474
17881TIP3   OH275133   0.230   6.047   6.186  0.5681  0.0070  0.3825
17881TIP3    H175134   0.298   5.981   6.175 -0.3869 -0.6988 -1.4334
17881TIP3    H275135   0.156   6.000   6.223 -0.2499 -0.0660 -1.2808
17882TIP3   OH275136   2.808   3.384  11.516 -0.2420 -0.0054  0.3559
17882TIP3    H175137   2.753   3.311  11.545 -1.3148  0.7835  0.3380
17882TIP3    H275138   2.896   3.347  11.514 -0.8972 -1.6083 -0.6925
17883TIP3   OH275139   6.100   1.652   6.763  0.4744 -0.2662  0.0575
17883TIP3    H175140   6.137   1.721   6.819  1.3970  0.7190 -1.7482
17883TIP3    H275141   6.162   1.580   6.770  0.2793 -0.3785  0.7527
17884TIP3   OH275142   3.832   4.617   3.460  0.1936  0.5334  0.1632
17884TIP3    H175143   3.881   4.661   3.390 -0.4889 -1.0158 -1.3423
17884TIP3    H275144   3.757   4.674   3.475 -0.8856 -0.2312 -2.0357
17885TIP3   OH275145   2.294   1.324  16.881 -0.0298 -0.0363 -0.0212
17885TIP3    H175146   2.216   1.296  16.929  0.9323 -1.9116  0.4977
17885TIP3    H275147   2.280   1.417  16.865 -2.2710 -0.2911  0.2520
17886TIP3   OH275148   0.420   1.342   0.930  0.1295  0.1259 -0.4741
17886TIP3    H175149   0.489   1.395   0.971 -0.2157 -1.0842  1.7311
17886TIP3    H275150   0.467   1.284   0.870  0.9616 -0.1416  0.4236
17887TIP3   OH275151   3.310   5.290   0.126 -0.8480  0.0928  0.3217
17887TIP3    H175152   3.270   5.376   0.138 -1.2836  0.1042 -1.1855
17887TIP3    H275153   3.248   5.242   0.072  0.1422 -0.6350 -0.1839
17888TIP3   OH275154   2.304   4.021  17.008 -0.3532 -0.3350 -0.4396
17888TIP3    H175155   2.253   3.957  16.958 -0.8114  0.6964 -1.3184
17888TIP3    H275156   2.395   3.995  16.994 -0.5121 -0.4410 -1.2728
17889TIP3   OH275157   0.739   0.021  14.644 -0.5397 -0.4422  0.4656
17889TIP3    H175158   0.789  -0.061  14.641  0.9146  0.3973  0.9611
17889TIP3    H275159   0.805   0.088  14.627 -1.5280  0.6956  1.1325
17890TIP3   OH275160   0.784   5.398   1.840  0.0599  0.3021 -0.2228
17890TIP3    H175161   0.765   5.316   1.795 -0.0425  0.8015 -1.0887
17890TIP3    H275162   0.702   5.447   1.835  0.4861  0.9604 -0.7780
17891TIP3   OH275163   5.706   3.666  11.106  0.3169 -0.5002  0.5660
17891TIP3    H175164   5.799   3.642  11.101  0.3985 -0.0758 -0.1017
17891TIP3    H275165   5.660   3.583  11.106  0.6656 -0.7048 -0.1179
17892TIP3   OH275166   2.909   4.444  14.233 -0.3659 -0.4175  0.3333
17892TIP3    H175167   2.954   4.479  14.310 -0.2103 -0.7609  0.3994
17892TIP3    H275168   2.928   4.350  14.234 -0.2532 -0.4045 -0.1961
17893TIP3   OH275169   2.076   4.747   5.799  0.0867 -0.5698 -0.0726
17893TIP3    H175170   2.020   4.673   5.823  1.6802 -1.8444 -0.2058
17893TIP3    H275171   2.127   4.765   5.878  0.4517 -0.2829 -0.3759
17894TIP3   OH275172   6.051   1.150   3.623 -0.3083  0.2671  0.0263
17894TIP3    H175173   6.029   1.057   3.628  1.3337 -0.1431  0.0971
17894TIP3    H275174   6.123   1.160   3.685  0.0171  1.4238 -0.5307
17895TIP3   OH275175   6.298   0.953  15.717 -0.5179  0.4826  0.5255
17895TIP3    H175176   6.338   0.890  15.656  0.5127 -0.0968  1.7815
17895TIP3    H275177   6.371   1.005  15.749 -0.7993 -0.2799  2.4910
17896TIP3   OH275178   0.959   2.495  14.332  0.3518  0.7629 -0.0479
17896TIP3    H175179   1.001   2.442  14.264  0.2431 -1.7109  1.7306
17896TIP3    H275180   1.025   2.500  14.401 -0.6318  0.6941  0.8922
17897TIP3   OH275181   3.353   5.456  12.026 -0.2177 -0.0952 -0.1997
17897TIP3    H175182   3.321   5.546  12.025 -0.1621 -0.0787 -0.9615
17897TIP3    H275183   3.415   5.452  11.952  1.0767 -0.2846  0.8714
17898TIP3   OH275184   1.949   3.422  11.325  0.0787 -0.6890 -0.5746
17898TIP3    H175185   1.916   3.508  11.351  0.0245 -0.8671 -0.0403
17898TIP3    H275186   1.878   3.362  11.346  0.4289 -0.9690 -0.1808
17899TIP3   OH275187   6.726   6.230  17.186 -0.3057 -0.4510  0.7997
17899TIP3    H175188   6.701   6.300  17.125  2.9106  0.3377  0.3312
17899TIP3    H275189   6.691   6.259  17.271 -0.9628  0.5964  0.1850
17900TIP3   OH275190   5.833   0.207   0.333 -0.6613  0.0326 -0.0361
17900TIP3    H175191   5.927   0.193   0.320 -0.8618 -0.9750 -0.4583
17900TIP3    H275192   5.826   0.300   0.357  0.3614  0.3176 -0.7900
17901TIP3   OH275193   1.723   4.816   5.510  0.0646 -0.1330  0.3694
17901TIP3    H175194   1.721   4.722   5.496 -1.7563 -0.1372  0.6414
17901TIP3    H275195   1.668   4.852   5.440  2.3174  0.9032 -0.9403
17902TIP3   OH275196   4.105   5.099  15.532  0.0406 -0.1888  0.2148
17902TIP3    H175197   4.135   5.009  15.519  0.3158  0.0933 -1.2480
17902TIP3    H275198   4.173   5.139  15.586  1.8898  0.1902 -2.3239
17903TIP3   OH275199   1.635   2.147  13.073  0.1298 -0.2471  0.3972
17903TIP3    H175200   1.619   2.055  13.055  1.7119 -0.4959  0.1274
17903TIP3    H275201   1.708   2.170  13.015 -0.7788  1.3867 -0.1243
17904TIP3   OH275202   4.334   4.510  15.274  0.2053  0.0006 -0.3152
17904TIP3    H175203   4.393   4.457  15.327 -0.2311 -0.0178  0.1671
17904TIP3    H275204   4.246   4.479  15.298 -0.0266  0.5141 -0.4797
17905TIP3   OH275205   0.745   1.115  13.057 -0.8163  0.1426  0.2058
17905TIP3    H175206   0.745   1.097  12.963  4.8596 -0.5471  0.1626
17905TIP3    H275207   0.718   1.207  13.064  2.1691  1.3165 -2.4987
17906TIP3   OH275208   2.352   3.339  15.707 -0.2510 -0.3825 -0.2518
17906TIP3    H175209   2.418   3.351  15.775 -0.9492  0.0548  0.3511
17906TIP3    H275210   2.359   3.416  15.651  0.0142 -0.5286 -0.4250
17907TIP3   OH275211   5.925   2.758   0.339  0.1107 -0.2868 -0.1726
17907TIP3    H175212   5.959   2.706   0.412  0.9984  1.0029  0.3578
17907TIP3    H275213   6.000   2.768   0.280 -0.8126 -2.0144 -1.6922
17908TIP3   OH275214   3.913   2.306   0.178  0.4386  0.2109  0.2174
17908TIP3    H175215   4.002   2.287   0.208  0.2331 -3.4879 -1.3673
17908TIP3    H275216   3.925   2.342   0.090  0.6205  5.2701  2.1083
17909TIP3   OH275217   3.266   5.929   2.672 -0.2206 -0.0988 -0.1983
17909TIP3    H175218   3.357   5.913   2.647  1.8576  2.2139  5.0782
17909TIP3    H275219   3.235   5.845   2.704  1.4660 -0.0723  1.6524
17910TIP3   OH275220   4.068   1.868   4.127  0.3672 -0.2711  0.1538
17910TIP3    H175221   3.976   1.848   4.141  0.4511  0.2622  1.5798
17910TIP3    H275222   4.108   1.857   4.213  1.2479  1.5157  0.0061
17911TIP3   OH275223   1.337   2.349   6.153  0.3616  0.0927  0.2937
17911TIP3    H175224   1.275   2.422   6.156 -1.9917 -1.8054 -0.4570
17911TIP3    H275225   1.283   2.272   6.132  2.8769 -1.7435  0.2796
17912TIP3   OH275226   4.402   0.385   1.604 -0.3965 -0.0050  0.1751
17912TIP3    H175227   4.426   0.431   1.523 -1.1843 -0.4776 -0.3315
17912TIP3    H275228   4.438   0.440   1.674  1.6305 -0.3714 -0.5348
17913TIP3   OH275229   3.315   4.382   1.550 -0.7566  0.5262 -0.3241
17913TIP3    H175230   3.241   4.326   1.575 -1.0184  0.3333 -1.4893
17913TIP3    H275231   3.393   4.329   1.567 -0.9849 -0.0407 -1.0156
17914TIP3   OH275232   4.145   2.050  16.999  0.2365  0.0251  0.7862
17914TIP3    H175233   4.176   2.131  16.957 -1.1708  1.2488  2.0720
17914TIP3    H275234   4.163   2.062  17.092 -3.4995  0.5269  1.5066
17915TIP3   OH275235   2.692   0.569   4.701 -0.2088 -0.5653 -0.3378
17915TIP3    H175236   2.609   0.596   4.741  0.8632  0.2020  1.4415
17915TIP3    H275237   2.666   0.527   4.619 -2.3128  0.2639 -0.1418
17916TIP3   OH275238   3.015   2.122   4.980 -0.0178 -0.6925  0.0008
17916TIP3    H175239   2.923   2.104   4.962 -0.2177  0.5740 -0.3021
17916TIP3    H275240   3.054   2.036   4.997 -1.7824 -1.0095  2.7221
17917TIP3   OH275241   5.704   4.430   3.801  0.5745 -0.1162 -0.3373
17917TIP3    H175242   5.611   4.447   3.787  0.2461 -1.4050  0.2572
17917TIP3    H275243   5.747   4.510   3.770 -0.7156  0.4764 -0.6584
17918TIP3   OH275244   5.129   6.796  14.175 -0.3433  0.1262 -0.6109
17918TIP3    H175245   5.147   6.853  14.100  2.7453 -1.4255 -1.1284
17918TIP3    H275246   5.145   6.852  14.251  1.8262  0.2316 -1.1197
17919TIP3   OH275247   0.120   6.256   6.453  0.1464 -0.1989 -0.1323
17919TIP3    H175248   0.152   6.178   6.496  0.3593 -0.1044 -0.1208
17919TIP3    H275249   0.063   6.298   6.518  1.7570  0.8048  0.6489
17920TIP3   OH275250   1.126   0.763   0.082 -0.3322 -0.1272  0.2636
17920TIP3    H175251   1.177   0.816   0.143 -1.5083  0.3859  0.8112
17920TIP3    H275252   1.122   0.677   0.122 -1.4094  0.3048  1.0971
17921TIP3   OH275253   4.122   6.719  16.083 -0.0657 -0.0926  0.8226
17921TIP3    H175254   4.153   6.788  16.023  0.1336  0.3770  1.4541
17921TIP3    H275255   4.029   6.737  16.094 -0.3128 -0.7837 -0.1307
17922TIP3   OH275256   2.972   2.218  10.850  1.0918  0.5000 -0.3525
17922TIP3    H175257   3.002   2.293  10.901 -1.4367  1.3925 -0.0720
17922TIP3    H275258   2.924   2.257  10.777 -1.3541 -0.8221  0.4915
17923TIP3   OH275259   1.853   0.428   2.536 -0.7495  0.1851  0.0927
17923TIP3    H175260   1.856   0.347   2.588  2.9938 -0.3836 -0.9043
17923TIP3    H275261   1.834   0.399   2.447  0.0218  0.4468 -0.1602
17924TIP3   OH275262   3.576   0.400  15.568  0.6379 -0.1312  0.2988
17924TIP3    H175263   3.556   0.432  15.656  0.9764 -0.2151  0.4078
17924TIP3    H275264   3.505   0.339  15.548  1.2988 -1.1692  1.0713
17925TIP3   OH275265   1.155   5.554  16.190 -0.5542 -0.1117  0.6756
17925TIP3    H175266   1.150   5.459  16.196 -2.6605  0.0829  2.8667
17925TIP3    H275267   1.064   5.584  16.198  0.0763  2.0925  0.0560
17926TIP3   OH275268   5.919   0.545   1.038 -0.3839  0.4011 -0.0818
17926TIP3    H175269   5.946   0.460   1.074 -2.5914 -0.4457 -0.3813
17926TIP3    H275270   5.900   0.599   1.115  0.4364  0.4388  0.1000
17927TIP3   OH275271   6.333   6.706   5.302  0.5236 -0.0797 -0.5366
17927TIP3    H175272   6.320   6.800   5.287 -0.0254 -0.1095 -0.2504
17927TIP3    H275273   6.246   6.672   5.322  0.5938 -0.7993 -1.4076
17928TIP3   OH275274   5.977   1.638  12.132 -0.0251  0.8210  0.3378
17928TIP3    H175275   6.027   1.646  12.051 -0.4521 -0.2633 -0.0471
17928TIP3    H275276   6.027   1.688  12.196  1.3508  0.0726 -0.1372
17929TIP3   OH275277   4.268   3.752  11.777  0.1417 -0.1108  0.4183
17929TIP3    H175278   4.347   3.796  11.743 -0.1040 -2.5494 -3.6449
17929TIP3    H275279   4.215   3.735  11.699 -3.5976 -0.2420  2.8652
17930TIP3   OH275280   1.344   1.436  13.590 -0.4968 -0.1748  0.2868
17930TIP3    H175281   1.358   1.512  13.533 -0.9128 -0.9370 -0.8588
17930TIP3    H275282   1.352   1.470  13.679  0.5073  0.9785 -0.2310
17931TIP3   OH275283   1.418   1.913  12.054  0.0825  0.1696 -0.1500
17931TIP3    H175284   1.471   1.939  11.979 -1.0914  1.9052 -0.4121
17931TIP3    H275285   1.479   1.909  12.127  0.8127  0.8235 -0.7173
17932TIP3   OH275286   6.095   1.189  14.915  0.1164 -0.1383  0.1239
17932TIP3    H175287   6.180   1.161  14.948  0.4624  0.8718  0.1110
17932TIP3    H275288   6.079   1.132  14.839  0.1945 -1.1664  0.8669
17933TIP3   OH275289   1.611   2.788   5.290 -0.1434  0.0961 -0.1276
17933TIP3    H175290   1.696   2.757   5.261 -1.2209 -1.0785 -2.1270
17933TIP3    H275291   1.619   2.883   5.291  1.8162 -0.0440  1.7943
17934TIP3   OH275292   4.311   4.768   1.947 -0.0834 -0.6371  0.3128
17934TIP3    H175293   4.360   4.835   1.995 -0.9589  0.0210  0.3108
17934TIP3    H275294   4.258   4.818   1.884 -0.1307 -1.3895 -0.2537
17935TIP3   OH275295   2.312   4.559   4.938 -0.0698  0.1742  0.9057
17935TIP3    H175296   2.257   4.638   4.944  0.9769  0.8895  1.3196
17935TIP3    H275297   2.394   4.584   4.981  0.6541 -0.8095  0.1197
17936TIP3   OH275298   5.177   1.321  16.108 -0.1032 -0.0599 -0.3732
17936TIP3    H175299   5.093   1.317  16.062  0.5413  0.6462 -1.6409
17936TIP3    H275300   5.210   1.409  16.089  0.0464  0.3430  1.6869
17937TIP3   OH275301   3.397   1.371  17.286 -0.6901 -0.1864  0.2737
17937TIP3    H175302   3.471   1.343  17.340 -0.7154 -1.5193 -0.3649
17937TIP3    H275303   3.334   1.300  17.294 -1.5108  0.5177  0.0527
17938TIP3   OH275304   3.731   1.733  13.553 -0.4515  0.2814 -0.0798
17938TIP3    H175305   3.730   1.651  13.603  0.8770  0.3179  0.0380
17938TIP3    H275306   3.702   1.799  13.616  0.4043  0.1987  0.4090
17939TIP3   OH275307   0.997   5.574   3.658  0.1025  0.2294  0.9887
17939TIP3    H175308   0.908   5.567   3.693  1.0307  0.4629  3.5318
17939TIP3    H275309   1.049   5.605   3.732  1.9817  1.9075 -0.9545
17940TIP3   OH275310   5.085   2.902  13.764  0.2247 -0.5028 -0.2611
17940TIP3    H175311   5.142   2.907  13.687  0.2701 -1.5595 -0.2960
17940TIP3    H275312   5.112   2.978  13.817  0.6346 -0.1384 -0.9765
17941TIP3   OH275313   0.814   3.642  14.463  0.2228 -0.1320  0.0705
17941TIP3    H175314   0.757   3.694  14.519 -0.2266 -0.8014  0.2435
17941TIP3    H275315   0.825   3.559  14.511 -0.8141 -1.0159 -1.1889
17942TIP3   OH275316   1.065   0.592   5.237  0.3500 -0.0548  0.5855
17942TIP3    H175317   1.049   0.515   5.291 -0.1514 -1.0857 -0.9917
17942TIP3    H275318   0.978   0.621   5.210  0.6161  0.2116  0.0017
17943TIP3   OH275319   3.615   0.842  13.438  0.2995 -1.1062  0.4303
17943TIP3    H175320   3.705   0.861  13.463 -0.2063  0.2302  1.3421
17943TIP3    H275321   3.608   0.868  13.347  0.6025 -0.3167  0.6289
17944TIP3   OH275322   1.243   1.827  13.398  0.1956  0.0755  0.0973
17944TIP3    H175323   1.300   1.904  13.398  1.5293 -0.8931 -0.4449
17944TIP3    H275324   1.250   1.793  13.309 -1.2800 -0.0428  0.0096
17945TIP3   OH275325   0.829   0.114  13.949  0.6731 -0.0740  0.0603
17945TIP3    H175326   0.777   0.033  13.953  0.7871 -0.1319  0.3971
17945TIP3    H275327   0.851   0.124  13.857  0.4476 -0.2969 -0.0161
17946TIP3   OH275328   6.460   1.581  14.879  0.0907  0.1788 -0.3115
17946TIP3    H175329   6.397   1.618  14.941 -1.0338 -2.3857  0.1718
17946TIP3    H275330   6.406   1.554  14.805  0.8842 -0.3920 -0.6793
17947TIP3   OH275331   2.507   0.722   3.073  0.7398 -0.2616  0.2275
17947TIP3    H175332   2.512   0.687   2.984  1.0931  0.7721 -0.1686
17947TIP3    H275333   2.532   0.814   3.063 -1.6125  0.4949  1.0137
17948TIP3   OH275334   3.115   0.087   4.704 -0.7986  0.1752  0.4477
17948TIP3    H175335   3.176   0.015   4.721  0.0250  0.5053 -0.9525
17948TIP3    H275336   3.124   0.144   4.780 -2.1878 -1.6515  2.0442
17949TIP3   OH275337   2.711   0.528  12.067  0.4581  0.3215 -0.0345
17949TIP3    H175338   2.719   0.613  12.025  0.1554 -0.4997 -1.8020
17949TIP3    H275339   2.757   0.538  12.150  2.3459  1.5531 -1.1916
17950TIP3   OH275340   6.754   3.473   4.226  0.7876 -0.5261 -0.2389
17950TIP3    H175341   6.762   3.386   4.186 -0.9158 -0.3975 -0.8646
17950TIP3    H275342   6.710   3.526   4.160  0.9468  0.5706  0.5262
17951TIP3   OH275343   6.686   4.674   4.281  0.6180  0.2649 -0.1295
17951TIP3    H175344   6.688   4.602   4.218 -0.9722  2.5376 -2.8805
17951TIP3    H275345   6.593   4.693   4.293  0.9518  0.6194  2.0750
17952TIP3   OH275346   0.666   4.231   4.143  0.3285  0.4829 -0.4105
17952TIP3    H175347   0.715   4.312   4.137  3.4790 -1.1873  1.2821
17952TIP3    H275348   0.683   4.186   4.060  0.6855  0.4600 -0.3270
17953TIP3   OH275349   5.976   2.815  12.750 -0.7220  0.4530  0.2302
17953TIP3    H175350   5.977   2.877  12.824 -2.0846  0.8031 -0.0389
17953TIP3    H275351   6.019   2.737  12.785  1.5802  1.7504  0.3817
17954TIP3   OH275352   5.122   1.481  11.262  0.5252  0.4299 -0.0931
17954TIP3    H175353   5.159   1.468  11.175 -0.5674  0.6255 -0.5990
17954TIP3    H275354   5.050   1.417  11.267 -0.4067  1.4752  0.0746
17955TIP3   OH275355   0.561   3.551  13.599 -0.2613 -0.0952  0.1282
17955TIP3    H175356   0.564   3.461  13.629 -0.2171 -0.4740 -0.9923
17955TIP3    H275357   0.593   3.548  13.509 -1.3322  0.8586 -0.3129
17956TIP3   OH275358   2.735   0.594  10.590  0.5156 -0.5598  0.6165
17956TIP3    H175359   2.715   0.663  10.654  0.3860 -0.6174  0.6391
17956TIP3    H275360   2.662   0.598  10.528  2.0729  1.4195 -1.1727
17957TIP3   OH275361   5.196   5.686  13.668  0.5195  0.2477  0.1407
17957TIP3    H175362   5.193   5.782  13.664  0.8364  0.2653  0.3388
17957TIP3    H275363   5.111   5.662  13.705 -1.7339  0.1667 -4.6445
17958TIP3   OH275364   1.048   3.841  14.792  0.3528  0.3311 -0.6521
17958TIP3    H175365   0.955   3.824  14.808 -0.1285  3.2902  0.0593
17958TIP3    H275366   1.088   3.841  14.879  0.7565  0.4760 -0.8373
17959TIP3   OH275367   4.012   6.392  16.151 -0.4543 -0.2181 -0.1798
17959TIP3    H175368   4.097   6.367  16.188  0.3393  2.5927  0.0321
17959TIP3    H275369   4.032   6.413  16.060 -1.4219 -1.9345 -0.8120
17960TIP3   OH275370   2.025   1.038   6.653  0.0947 -0.6149  0.0681
17960TIP3    H175371   2.068   0.982   6.718  1.0654  2.0741  1.8565
17960TIP3    H275372   2.084   1.113   6.644 -2.1677  1.1244 -0.6816
17961TIP3   OH275373   2.411   5.154   3.177  0.5047  0.4251  0.1504
17961TIP3    H175374   2.386   5.212   3.249 -1.1898  0.5725 -0.5515
17961TIP3    H275375   2.466   5.208   3.121  0.5046  0.7825  0.4923
17962TIP3   OH275376   3.273   4.103  15.205  0.7287 -0.9396 -0.4107
17962TIP3    H175377   3.363   4.088  15.234  0.8743 -1.3517 -1.0622
17962TIP3    H275378   3.226   4.126  15.285  1.3812 -0.8591 -0.0418
17963TIP3   OH275379   1.710   2.530  16.643 -0.1024 -0.4964 -0.1375
17963TIP3    H175380   1.726   2.556  16.552 -0.7072  1.0803  0.1925
17963TIP3    H275381   1.627   2.571  16.666  0.1219 -0.7461  1.1763
17964TIP3   OH275382   1.595   2.696  11.226 -0.0794 -0.3801  0.5857
17964TIP3    H175383   1.687   2.689  11.250  0.5562 -0.8667 -1.8618
17964TIP3    H275384   1.581   2.626  11.162 -0.9020  2.5936 -2.6856
17965TIP3   OH275385   3.059   0.029  13.156  0.2909  0.5972 -0.0805
17965TIP3    H175386   3.128   0.095  13.161  2.3330 -1.4758  0.4344
17965TIP3    H275387   3.020   0.029  13.244  0.6543  0.7508  0.0821
17966TIP3   OH275388   5.686   2.349  15.288 -0.0995  0.2422 -0.3392
17966TIP3    H175389   5.667   2.441  15.306 -0.2551  0.1569 -0.0396
17966TIP3    H275390   5.775   2.336  15.321  0.8965  0.9014 -2.7152
17967TIP3   OH275391   0.941   5.379  14.022 -0.0820  0.1422  0.2705
17967TIP3    H175392   0.908   5.428  13.947 -2.3961  2.1222  2.4860
17967TIP3    H275393   0.912   5.289  14.006 -1.9666  0.8547 -0.4294
17968TIP3   OH275394   5.529   6.125  12.385 -0.0202  0.1084 -0.2841
17968TIP3    H175395   5.499   6.153  12.471  0.0200  0.7487 -0.4716
17968TIP3    H275396   5.499   6.195  12.326 -1.9384 -1.3666 -1.1140
17969TIP3   OH275397   2.806   1.130  14.987  0.1060 -0.1418  0.3296
17969TIP3    H175398   2.758   1.168  14.914 -0.5187 -0.5319  0.5324
17969TIP3    H275399   2.759   1.160  15.065  1.0076  0.6060  0.5922
17970TIP3   OH275400   4.133   6.402  15.242 -0.1150  0.6903  0.3202
17970TIP3    H175401   4.067   6.335  15.261  1.7528 -0.4927  2.8814
17970TIP3    H275402   4.200   6.357  15.191 -0.8534  1.7091 -1.6297
17971TIP3   OH275403   3.259   5.824  15.961  0.0421 -0.2259 -0.7131
17971TIP3    H175404   3.177   5.792  16.000  0.1478 -0.2377 -0.5026
17971TIP3    H275405   3.302   5.872  16.031  0.6462 -0.9773 -0.5557
17972TIP3   OH275406   1.619   5.706   4.303 -0.5176  0.6933 -0.2971
17972TIP3    H175407   1.648   5.768   4.236 -2.8493 -0.7241 -2.7374
17972TIP3    H275408   1.523   5.709   4.299 -0.6806 -1.2122  1.2765
17973TIP3   OH275409   6.784   6.466  12.006  0.2942 -0.1505  0.4435
17973TIP3    H175410   6.796   6.561  12.008  0.0719 -0.0739 -1.2809
17973TIP3    H275411   6.690   6.453  12.021  0.0746 -0.0153 -0.7665
17974TIP3   OH275412   4.562   4.886   3.570  0.5346 -0.2455  0.2024
17974TIP3    H175413   4.585   4.809   3.519  1.1364  0.3925 -0.4959
17974TIP3    H275414   4.468   4.878   3.584  0.3515 -0.4177 -1.0399
17975TIP3   OH275415   5.841   2.098  11.736  0.1179  0.5936  0.5701
17975TIP3    H175416   5.778   2.059  11.676  0.0698  1.9187 -0.2457
17975TIP3    H275417   5.825   2.053  11.819 -1.6078  0.6036  0.2629
17976TIP3   OH275418   1.579   4.520  11.363 -0.2297 -0.3948 -0.5526
17976TIP3    H175419   1.593   4.513  11.269  3.9156 -0.7659 -0.0077
17976TIP3    H275420   1.575   4.429  11.394 -1.4389 -0.2768 -0.3247
17977TIP3   OH275421   3.043   3.188   1.863  0.2637  0.1174  0.2427
17977TIP3    H175422   3.104   3.120   1.835  0.3250 -0.2296  1.1824
17977TIP3    H275423   3.062   3.263   1.808 -0.1601 -0.7986 -1.1659
17978TIP3   OH275424   6.819   0.006   5.645  0.1224  0.4778 -0.1207
17978TIP3    H175425   6.725   0.022   5.635 -0.3350 -2.1969 -0.5296
17978TIP3    H275426   6.837   0.028   5.736 -1.2741 -0.5368  0.4297
17979TIP3   OH275427   3.335   6.214   1.134  0.1963  0.2640  0.0048
17979TIP3    H175428   3.335   6.234   1.227  1.8398 -0.2768  0.1405
17979TIP3    H275429   3.273   6.141   1.126  1.1273 -0.6387  0.9015
17980TIP3   OH275430   4.372   0.668  16.250  0.0897  0.3037  0.2392
17980TIP3    H175431   4.343   0.735  16.188  1.0819 -0.3265 -0.9426
17980TIP3    H275432   4.465   0.687  16.265  0.2734 -0.5555  0.2149
17981TIP3   OH275433   1.477   6.080  15.638  0.3065  0.9598  0.0452
17981TIP3    H175434   1.536   6.029  15.694 -1.2094 -0.2811  0.5165
17981TIP3    H275435   1.392   6.074  15.681  0.1140  4.0015  0.1789
17982TIP3   OH275436   6.342   2.384   1.194 -0.5922  0.4790 -0.5547
17982TIP3    H175437   6.334   2.363   1.101 -0.2465  0.3054 -0.5488
17982TIP3    H275438   6.366   2.301   1.235  1.2414  0.9688 -0.5893
17983TIP3   OH275439   4.452   3.580  15.469  0.3486 -0.2537 -0.0798
17983TIP3    H175440   4.478   3.560  15.379 -4.7825 -0.4172 -1.6794
17983TIP3    H275441   4.451   3.495  15.513  2.1282 -0.2703 -0.0290
17984TIP3   OH275442   1.276   4.111   1.225  0.1742 -0.2608 -0.7041
17984TIP3    H175443   1.181   4.106   1.218  0.3531 -1.2349 -2.6534
17984TIP3    H275444   1.292   4.196   1.266 -1.6109 -1.0446  1.7586
17985TIP3   OH275445   5.434   6.363   0.214 -0.1824 -0.3524  0.7190
17985TIP3    H175446   5.457   6.452   0.242 -1.0931 -0.0104  0.3776
17985TIP3    H275447   5.515   6.330   0.175 -0.7352  1.5266 -2.1962
17986TIP3   OH275448   4.530   2.713   0.924  0.0277 -0.2920 -0.5156
17986TIP3    H175449   4.441   2.725   0.890 -1.0917  0.7214  2.5728
17986TIP3    H275450   4.586   2.755   0.859 -1.9913  1.5091 -1.1495
17987TIP3   OH275451   4.496   2.205  16.506  0.1440 -0.1734 -0.7408
17987TIP3    H175452   4.557   2.277  16.523 -2.1185  1.4345  0.9231
17987TIP3    H275453   4.552   2.129  16.489  2.5883  1.2155  0.7953
17988TIP3   OH275454   2.178   6.527   3.850  0.4676  0.5662  0.7821
17988TIP3    H175455   2.167   6.501   3.941 -1.4007 -0.0122  0.4037
17988TIP3    H275456   2.273   6.535   3.839  0.6990  0.9052  2.8360
17989TIP3   OH275457   6.810   5.396  14.091 -0.0439  0.2997 -0.4054
17989TIP3    H175458   6.785   5.461  14.157  1.3364 -1.1287  1.6041
17989TIP3    H275459   6.905   5.406  14.082 -0.0441 -0.3831 -1.2222
17990TIP3   OH275460   4.731   3.822  14.012 -0.4699  0.3366 -0.2926
17990TIP3    H175461   4.736   3.893  13.947  0.8675 -1.5536 -2.3353
17990TIP3    H275462   4.661   3.765  13.979 -1.7865  0.8573  1.5282
17991TIP3   OH275463   5.131   6.390  12.747  0.3639 -0.6169 -0.1939
17991TIP3    H175464   5.043   6.413  12.717  0.3634 -0.2693  0.0689
17991TIP3    H275465   5.153   6.309  12.700  0.2867 -0.1789 -0.9825
17992TIP3   OH275466   6.494   2.672  11.244  0.1150 -0.0643 -0.0268
17992TIP3    H175467   6.581   2.710  11.239  0.4305 -0.5239  1.7391
17992TIP3    H275468   6.480   2.631  11.158  1.6560 -0.0675 -0.2770
17993TIP3   OH275469   2.603   0.978   2.655 -0.1321 -0.0803  0.4084
17993TIP3    H175470   2.524   1.032   2.661  0.2404  0.8574 -2.4359
17993TIP3    H275471   2.574   0.890   2.677 -2.0501  0.1935 -0.9787
17994TIP3   OH275472   0.377   2.336  15.554 -1.6686 -0.8238 -0.4574
17994TIP3    H175473   0.298   2.314  15.503 -1.0692  0.1615 -1.8550
17994TIP3    H275474   0.359   2.424  15.587 -0.8554 -0.2870 -1.4201
17995TIP3   OH275475   4.289   2.714   2.845 -0.4929 -1.0853  0.3890
17995TIP3    H175476   4.338   2.666   2.779 -0.7738 -0.9653  0.0866
17995TIP3    H275477   4.225   2.765   2.794 -1.5939 -2.0108  0.8393
17996TIP3   OH275478   6.414   6.589   0.431  0.0316 -0.2653 -0.3910
17996TIP3    H175479   6.461   6.512   0.464  0.8860 -0.2731 -1.6003
17996TIP3    H275480   6.322   6.568   0.442  0.2880 -0.7076  0.9911
17997TIP3   OH275481   0.128   0.180  15.775 -0.1298 -0.1242 -0.6831
17997TIP3    H175482   0.105   0.140  15.859  1.0561 -0.4780 -0.5138
17997TIP3    H275483   0.114   0.110  15.711  1.1489 -0.5746 -0.4889
17998TIP3   OH275484   3.547   2.241  12.216  0.0384 -0.1096 -0.3984
17998TIP3    H175485   3.598   2.322  12.225 -2.6894  1.6264  0.0816
17998TIP3    H275486   3.572   2.205  12.131  0.4582  1.8675 -1.1364
17999TIP3   OH275487   2.694   3.890  11.278 -0.0887 -0.2407 -0.0488
17999TIP3    H175488   2.615   3.937  11.302 -1.1558 -1.8486 -0.3373
17999TIP3    H275489   2.676   3.799  11.299  1.4793 -0.7153 -0.6294
18000TIP3   OH275490   2.966   2.120   1.791 -0.2619  0.2487  0.5708
18000TIP3    H175491   3.051   2.158   1.813  0.2649 -0.6608  0.0967
18000TIP3    H275492   2.977   2.083   1.704 -1.5403  1.3304 -0.0757
18001TIP3   OH275493   6.220   2.305  16.146 -0.1143  0.1171 -0.1907
18001TIP3    H175494   6.297   2.278  16.195 -0.5377 -0.5073  0.1317
18001TIP3    H275495   6.255   2.356  16.073  0.6706 -1.1290 -0.7002
18002TIP3   OH275496   1.182   0.495  15.757  0.4562  0.4028 -0.0737
18002TIP3    H175497   1.125   0.560  15.799  0.1125  0.2841 -0.3510
18002TIP3    H275498   1.266   0.503  15.803  0.0889  0.2734  0.6426
18003TIP3   OH275499   0.904   6.510  12.562  0.0666 -0.6931  0.5041
18003TIP3    H175500   0.907   6.603  12.538 -1.3715 -1.4651 -2.9330
18003TIP3    H275501   0.994   6.490  12.589  0.3237  1.7437  1.6020
18004TIP3   OH275502   1.731   3.592  16.160 -0.7494 -0.1291  0.3314
18004TIP3    H175503   1.772   3.521  16.110 -0.2510 -0.0043  0.5555
18004TIP3    H275504   1.769   3.672  16.125 -4.2878  0.3595 -2.7277
18005TIP3   OH275505   2.371   5.173  16.524  0.0738 -0.1058  0.2804
18005TIP3    H175506   2.300   5.236  16.534 -0.4130 -1.0041  3.0427
18005TIP3    H275507   2.449   5.220  16.552  0.1631  0.0994 -0.3068
18006TIP3   OH275508   5.521   3.762  14.585  0.1903 -0.7581  0.6262
18006TIP3    H175509   5.439   3.733  14.625 -0.4610  0.4003  0.1706
18006TIP3    H275510   5.522   3.857  14.599 -0.6379 -0.1196 -3.0677
18007TIP3   OH275511   1.956   6.482   5.295 -0.5769 -0.3845  0.3750
18007TIP3    H175512   2.033   6.425   5.303 -0.8858 -0.6532  1.4477
18007TIP3    H275513   1.988   6.569   5.318 -1.1505 -0.9194  3.2986
18008TIP3   OH275514   1.435   1.602  12.020 -0.5920 -0.4825 -0.0732
18008TIP3    H175515   1.370   1.652  12.069 -0.4594  1.1214 -1.4750
18008TIP3    H275516   1.515   1.611  12.071 -0.4607  1.1509 -0.5387
18009TIP3   OH275517   0.024   6.692  11.433  0.2782  0.0478  0.0125
18009TIP3    H175518   0.087   6.668  11.365  1.6057 -0.4452  1.3929
18009TIP3    H275519  -0.008   6.779  11.407  2.2856  0.7495 -0.1695
18010TIP3   OH275520   1.062   2.538  14.820 -0.2977 -0.3669 -0.0646
18010TIP3    H175521   1.095   2.518  14.907  1.5698 -2.9279 -1.3014
18010TIP3    H275522   0.976   2.495  14.817 -0.2293 -0.5398  0.4045
18011TIP3   OH275523   1.549   3.598  15.672 -0.2052  0.3010  0.4320
18011TIP3    H175524   1.461   3.566  15.689  0.0665  0.0330  1.4175
18011TIP3    H275525   1.583   3.542  15.603 -0.4561 -0.2368  0.7430
18012TIP3   OH275526   5.336   4.978  16.083 -0.0537  0.2672  0.0072
18012TIP3    H175527   5.355   4.892  16.045  0.8791  0.7478 -0.6450
18012TIP3    H275528   5.404   4.991  16.149 -1.5838 -0.5011  1.7813
18013TIP3   OH275529   6.262   3.408   1.588  0.4477 -0.3987 -0.0292
18013TIP3    H175530   6.270   3.395   1.493  0.1843  0.3771 -0.1645
18013TIP3    H275531   6.171   3.438   1.600 -0.4944 -3.3993  0.8101
18014TIP3   OH275532   0.915   4.492  15.507  0.6982 -0.0806  0.2730
18014TIP3    H175533   0.995   4.531  15.471  0.6981  0.5893  0.9797
18014TIP3    H275534   0.934   4.399  15.514  1.1775 -0.0174 -0.1913
18015TIP3   OH275535   3.878   4.273   2.015 -0.0135 -0.2742  0.3619
18015TIP3    H175536   3.958   4.297   1.969 -0.2189 -0.1998  0.0447
18015TIP3    H275537   3.876   4.330   2.092 -2.0652  2.9311 -1.9534
18016TIP3   OH275538   1.894   6.073   5.343  0.4101  0.2408  0.4934
18016TIP3    H175539   1.842   5.999   5.375  0.3677 -0.7085 -1.7187
18016TIP3    H275540   1.829   6.138   5.316  0.4211  0.2722  0.5411
18017TIP3   OH275541   4.559   1.994   4.816  0.0318  0.5534  0.5143
18017TIP3    H175542   4.466   1.977   4.798 -0.0684  2.0201 -0.4476
18017TIP3    H275543   4.573   1.959   4.904 -0.4086 -3.3234 -0.8491
18018TIP3   OH275544   6.490   1.107   3.035  0.7130 -0.1898 -0.2301
18018TIP3    H175545   6.506   1.018   3.005  1.0851 -0.2556  0.1723
18018TIP3    H275546   6.418   1.100   3.098  1.3466 -0.3217  0.4812
18019TIP3   OH275547   2.615   3.725   1.861  0.3752  0.1155 -0.0535
18019TIP3    H175548   2.583   3.810   1.831 -0.0236  0.0427  0.1732
18019TIP3    H275549   2.574   3.661   1.802  2.4866  0.2288 -1.7436
18020TIP3   OH275550   5.395   3.799   0.371 -0.0822 -0.1253 -0.5884
18020TIP3    H175551   5.359   3.862   0.433  0.6039  0.9461 -1.2579
18020TIP3    H275552   5.483   3.833   0.351  1.5085 -2.8791  1.3192
18021TIP3   OH275553   1.816   0.370  12.431 -0.3009 -0.8332 -0.6134
18021TIP3    H175554   1.821   0.457  12.470 -0.0920 -1.3550  0.5289
18021TIP3    H275555   1.730   0.368  12.389 -1.3247 -0.9120  1.4218
18022TIP3   OH275556   6.018   3.507   1.626  0.2125  0.2703 -0.0714
18022TIP3    H175557   5.980   3.579   1.677 -1.4769  0.5231 -1.6326
18022TIP3    H275558   5.950   3.440   1.626  1.4728 -1.0221  0.6933
18023TIP3   OH275559   0.227   4.869   1.030  0.0258 -0.7794 -0.1272
18023TIP3    H175560   0.215   4.801   0.964 -0.5293 -0.1267 -0.7057
18023TIP3    H275561   0.140   4.907   1.042  0.5479  0.6541 -0.7233
18024TIP3   OH275562   2.816   4.034  12.738  0.2671  0.6043 -0.3187
18024TIP3    H175563   2.741   4.031  12.679  0.4742  0.4676 -0.5775
18024TIP3    H275564   2.811   4.120  12.781 -0.1310  0.5244 -0.2106
18025TIP3   OH275565   5.132   4.319   4.384 -0.5165 -0.3554 -0.1783
18025TIP3    H175566   5.214   4.347   4.425 -1.0934 -0.0579  0.7824
18025TIP3    H275567   5.116   4.384   4.316  0.7133 -1.1337 -1.2382
18026TIP3   OH275568   4.495   4.024  16.459 -0.1099  0.1280  0.0202
18026TIP3    H175569   4.457   4.023  16.371 -2.1538 -0.1625  0.8914
18026TIP3    H275570   4.471   4.109  16.495 -0.5858 -0.3717  0.8706
18027TIP3   OH275571   1.442   0.310   4.365 -0.4549 -0.2491  0.2434
18027TIP3    H175572   1.483   0.300   4.279 -1.1304  3.0653 -0.5396
18027TIP3    H275573   1.514   0.338   4.422 -0.0299 -2.3376  0.7610
18028TIP3   OH275574   6.306   0.873  16.685 -0.4206  0.4814 -0.3909
18028TIP3    H175575   6.232   0.923  16.717  0.2130  1.0653  0.1663
18028TIP3    H275576   6.377   0.890  16.747  0.6674  1.2163 -1.7772
18029TIP3   OH275577   3.711   0.151   2.365 -0.2511 -0.4433  0.4124
18029TIP3    H175578   3.697   0.057   2.357 -0.9191 -0.1863 -1.9830
18029TIP3    H275579   3.805   0.162   2.353 -0.2891 -0.7453 -0.2058
18030TIP3   OH275580   1.196   2.816   4.826 -0.4204  0.0775  0.0404
18030TIP3    H175581   1.116   2.867   4.812  0.5640  1.7554  0.3815
18030TIP3    H275582   1.259   2.853   4.764  0.8639  0.5616  1.6009
18031TIP3   OH275583   3.184   4.655  14.303  0.4092 -0.3111 -0.2066
18031TIP3    H175584   3.210   4.697  14.221  0.4057  1.2496  0.5576
18031TIP3    H275585   3.256   4.596  14.324  0.5117 -0.5485 -1.2099
18032TIP3   OH275586   5.104   4.875  11.356  0.1297  0.0713  0.0575
18032TIP3    H175587   5.122   4.968  11.371 -0.9593  0.5329 -1.4659
18032TIP3    H275588   5.091   4.839  11.444 -1.0448  1.6810  0.5555
18033TIP3   OH275589   5.207   1.304  14.764  0.7119 -0.4218  0.4137
18033TIP3    H175590   5.191   1.398  14.770  0.6395 -0.3052 -1.3937
18033TIP3    H275591   5.299   1.296  14.741  0.1340 -0.7069 -1.8577
18034TIP3   OH275592   4.186   0.069   3.841  0.0636 -0.3249 -0.7534
18034TIP3    H175593   4.273   0.105   3.856  0.1978 -0.9054 -0.1053
18034TIP3    H275594   4.171   0.079   3.747  0.1223  1.3562 -0.6030
18035TIP3   OH275595   4.451   2.180   4.669 -0.4928  0.2606  0.6399
18035TIP3    H175596   4.474   2.271   4.652 -1.3125  0.5132  0.8281
18035TIP3    H275597   4.519   2.148   4.728 -0.6825  1.0243  1.2913
18036TIP3   OH275598   2.862   0.256   5.604  0.7234 -0.0255 -0.0705
18036TIP3    H175599   2.896   0.240   5.516 -0.3782 -1.0703 -0.3201
18036TIP3    H275600   2.905   0.192   5.660  0.5281 -0.1583 -0.0699
18037TIP3   OH275601   6.526   4.839  14.562 -0.6097 -0.0356  0.2878
18037TIP3    H175602   6.489   4.837  14.473  0.9164  2.0570 -0.4285
18037TIP3    H275603   6.588   4.766  14.563  1.1463  1.3673 -1.2179
18038TIP3   OH275604   1.334   5.246  13.571  0.2243 -0.4544 -0.8471
18038TIP3    H175605   1.359   5.296  13.494 -0.1325 -0.1522 -0.7696
18038TIP3    H275606   1.264   5.297  13.611  0.7225 -0.3788 -0.0693
18039TIP3   OH275607   2.662   4.207   3.802  0.3832 -0.1933 -0.3216
18039TIP3    H175608   2.623   4.234   3.719  0.9727  1.1158 -0.1737
18039TIP3    H275609   2.594   4.226   3.867  0.7204  0.7310 -0.2427
18040TIP3   OH275610   4.702   0.932  13.080  0.3204  0.5548  0.7188
18040TIP3    H175611   4.769   0.920  13.013 -1.6684 -2.3653 -0.9138
18040TIP3    H275612   4.699   0.847  13.126 -0.8172  1.3247  2.1136
18041TIP3   OH275613   1.794   5.568   4.042 -0.3606 -0.1909 -0.2634
18041TIP3    H175614   1.860   5.603   3.983  1.2421 -1.1832  0.8871
18041TIP3    H275615   1.824   5.593   4.130  0.1440 -3.1955  0.4925
18042TIP3   OH275616   0.207   1.272   5.306  0.0155 -0.4787 -0.2524
18042TIP3    H175617   0.182   1.200   5.248  1.0320 -1.2916  0.3242
18042TIP3    H275618   0.141   1.340   5.288 -1.3342 -1.7716 -0.3235
18043TIP3   OH275619   1.366   5.504   3.449 -0.0607 -0.1517 -0.3606
18043TIP3    H175620   1.369   5.411   3.427 -1.1944 -0.6778  1.6382
18043TIP3    H275621   1.431   5.515   3.518 -0.4267  0.4055 -0.1007
18044TIP3   OH275622   5.319   1.548   2.821  0.0799 -0.1532 -0.5436
18044TIP3    H175623   5.297   1.472   2.767 -1.6236  0.2673 -0.4741
18044TIP3    H275624   5.275   1.621   2.778 -2.0827  0.0587  1.8570
18045TIP3   OH275625   1.592   2.868  10.718  0.1487 -0.4225 -0.0676
18045TIP3    H175626   1.679   2.898  10.744  0.4133 -0.9315 -0.3547
18045TIP3    H275627   1.534   2.940  10.742  0.7593  0.2871 -0.6710
18046TIP3   OH275628   2.763   5.209   0.780 -0.2285  0.5923 -0.4212
18046TIP3    H175629   2.734   5.249   0.698 -1.1933  1.3260  0.2509
18046TIP3    H275630   2.857   5.225   0.783 -0.1782  0.4832 -1.4242
18047TIP3   OH275631   5.421   4.395   3.795 -0.5014 -0.4162 -0.3917
18047TIP3    H175632   5.416   4.317   3.739  0.2421 -0.7163 -0.0467
18047TIP3    H275633   5.346   4.449   3.768 -0.3331 -0.7031 -1.4584
18048TIP3   OH275634   5.030   3.086   6.204  0.6792  0.4848 -0.0102
18048TIP3    H175635   4.942   3.092   6.242  1.1536  1.4288  0.9741
18048TIP3    H275636   5.086   3.130   6.268  1.5953  1.5916 -1.5359
18049TIP3   OH275637   6.360   5.016   4.919 -0.6497  0.6124 -0.1423
18049TIP3    H175638   6.266   5.020   4.940 -0.8794 -0.1732 -0.9648
18049TIP3    H275639   6.368   5.066   4.837 -0.5546 -0.2885 -0.6947
18050TIP3   OH275640   1.341   0.640  16.419  0.1126  0.4449  0.6687
18050TIP3    H175641   1.399   0.645  16.342  1.4252 -0.9595  1.5399
18050TIP3    H275642   1.308   0.551  16.418 -2.2865  1.2867  0.0559
18051TIP3   OH275643   5.687   3.488   0.834  0.1077 -0.7201  0.2097
18051TIP3    H175644   5.678   3.566   0.779 -0.3841 -1.0156 -0.1426
18051TIP3    H275645   5.597   3.459   0.848  0.0872  0.4914  2.8464
18052TIP3   OH275646   5.034   0.697  11.320  0.2431 -0.6444  0.3077
18052TIP3    H175647   5.040   0.754  11.244  0.2102 -0.7974  0.1891
18052TIP3    H275648   4.953   0.648  11.307  0.6323 -1.2228  0.0577
18053TIP3   OH275649   2.336   0.651   5.684  0.7107  0.7825  0.1599
18053TIP3    H175650   2.270   0.586   5.708 -0.0139  1.4983  0.1244
18053TIP3    H275651   2.287   0.731   5.670  1.7214  1.6055  1.2250
18054TIP3   OH275652   0.482   5.975  14.238  0.2904 -0.0507  0.5670
18054TIP3    H175653   0.521   5.906  14.184 -2.3291  0.3958 -1.9756
18054TIP3    H275654   0.449   6.039  14.175  1.4465  2.8943  2.8493
18055TIP3   OH275655   4.671   3.917   3.012  0.1768  0.1256 -0.0170
18055TIP3    H175656   4.674   3.996   2.960  0.1873  0.7911  0.9734
18055TIP3    H275657   4.577   3.903   3.030  0.1374 -0.3529 -0.5874
18056TIP3   OH275658   4.813   0.375   1.680 -0.1561 -0.2613 -0.0617
18056TIP3    H175659   4.895   0.370   1.630  0.4771  0.8352  0.8483
18056TIP3    H275660   4.744   0.359   1.616  0.7263 -0.3415 -0.9941
18057TIP3   OH275661   5.234   1.088   2.586 -0.4817  0.6252 -0.0397
18057TIP3    H175662   5.319   1.048   2.571 -1.1634 -0.9266  0.0759
18057TIP3    H275663   5.177   1.014   2.610 -1.5320  1.8160  1.2297
18058TIP3   OH275664   1.099   5.832   2.600 -0.3726 -0.1929  0.2297
18058TIP3    H175665   1.012   5.864   2.626 -0.6024 -1.4077  1.0274
18058TIP3    H275666   1.100   5.740   2.628  0.8207 -0.4606 -0.6416
18059TIP3   OH275667   4.673   1.797  14.041 -0.3042 -0.5122 -0.2680
18059TIP3    H175668   4.625   1.804  13.958 -1.0676  2.9859  0.3816
18059TIP3    H275669   4.747   1.858  14.031  0.6244 -1.4034  0.9665
18060TIP3   OH275670   0.147   6.450   5.956  0.1498 -0.5320  0.4146
18060TIP3    H175671   0.058   6.444   5.992 -0.1439 -0.9953 -0.3739
18060TIP3    H275672   0.151   6.380   5.891  0.5618  0.4814 -0.6786
18061TIP3   OH275673   5.141   3.896   0.296 -0.3792 -0.7619 -0.4870
18061TIP3    H175674   5.167   3.967   0.355 -0.8849 -0.1319 -1.0113
18061TIP3    H275675   5.209   3.894   0.229 -1.1210  0.2056 -1.2862
18062TIP3   OH275676   2.867   3.706   1.824 -0.0204 -0.2961  0.3354
18062TIP3    H175677   2.776   3.730   1.838 -0.4436 -2.5394  1.6096
18062TIP3    H275678   2.907   3.712   1.911  0.6396 -0.9218  0.0771
18063TIP3   OH275679   2.492   0.514  12.407 -0.0298  0.2043 -0.8387
18063TIP3    H175680   2.455   0.593  12.369 -0.7056  0.7516  0.9113
18063TIP3    H275681   2.425   0.481  12.466  0.1623 -1.8053 -1.6841
18064TIP3   OH275682   3.482   2.396   5.181  0.2079 -0.2040 -0.3660
18064TIP3    H175683   3.408   2.359   5.132  0.1200 -0.9886  0.3510
18064TIP3    H275684   3.557   2.344   5.154  0.1910 -0.5173  0.1968
18065TIP3   OH275685   3.707   5.393   4.281  0.6932 -0.6292  0.1662
18065TIP3    H175686   3.771   5.464   4.295  1.1534 -0.9184 -0.4432
18065TIP3    H275687   3.661   5.386   4.365  0.7354  0.2989  0.2814
18066TIP3   OH275688   5.572   4.738  14.836 -0.0679 -0.4919  0.0991
18066TIP3    H175689   5.609   4.733  14.748 -0.7245  2.0953 -0.3646
18066TIP3    H275690   5.479   4.755  14.822  0.0084  1.0201  1.2750
18067TIP3   OH275691   6.684   1.282   5.783 -0.0453 -0.0738 -0.3034
18067TIP3    H175692   6.655   1.364   5.743  0.8231  0.1972 -0.3834
18067TIP3    H275693   6.779   1.285   5.777  0.1529  0.2250  2.3236
18068TIP3   OH275694   2.235   5.343   5.504  0.6430 -0.0584  0.2725
18068TIP3    H175695   2.229   5.292   5.585 -0.1636  0.9703  0.8756
18068TIP3    H275696   2.158   5.319   5.454  1.3180 -0.9511 -0.3539
18069TIP3   OH275697   3.010   0.401   1.513  0.2270  0.0657 -0.1987
18069TIP3    H175698   2.949   0.330   1.490 -0.1776  0.5500 -0.6441
18069TIP3    H275699   2.991   0.420   1.605  1.3172 -1.3592  0.3386
18070TIP3   OH275700   1.915   5.235  10.331 -0.1792  0.2876 -0.2404
18070TIP3    H175701   1.950   5.234  10.242  1.3196  0.1005  0.3368
18070TIP3    H275702   1.992   5.232  10.387 -1.0967  0.8822  1.0744
18071TIP3   OH275703   5.282   5.156   4.413 -0.3712 -0.2297  0.3531
18071TIP3    H175704   5.303   5.077   4.462  0.1534  0.5153  1.3392
18071TIP3    H275705   5.212   5.129   4.354 -0.3480 -1.3751  0.8310
18072TIP3   OH275706   3.706   5.130   4.134  0.0141  0.3901 -0.1773
18072TIP3    H175707   3.798   5.118   4.157  0.1838  0.2824 -0.9154
18072TIP3    H275708   3.675   5.197   4.195 -0.4384 -2.3307  2.7488
18073TIP3   OH275709   4.586   0.208   5.482  1.0362 -0.1835  0.8330
18073TIP3    H175710   4.673   0.178   5.507  1.2868  1.8630  2.5828
18073TIP3    H275711   4.602   0.289   5.434  0.1556 -0.3006  0.3460
18074TIP3   OH275712   2.344   0.777  16.973 -0.2311  0.1297  0.3663
18074TIP3    H175713   2.345   0.720  16.896  0.6393 -1.0740  1.2541
18074TIP3    H275714   2.433   0.813  16.976 -0.3027  0.2659  0.7387
18075TIP3   OH275715   3.216   6.297   5.679 -0.1133  0.1180 -0.5162
18075TIP3    H175716   3.152   6.346   5.627 -2.2062 -2.4367 -0.4630
18075TIP3    H275717   3.187   6.206   5.673  2.2393 -0.8077  1.3914
18076TIP3   OH275718   2.755   3.334  13.742  0.4589  0.2774  0.5031
18076TIP3    H175719   2.686   3.323  13.677 -0.5525 -1.8351  1.8993
18076TIP3    H275720   2.811   3.404  13.706  0.2910 -1.2521 -2.9168
18077TIP3   OH275721   4.274   5.949  11.559 -0.4304 -0.0227  0.0934
18077TIP3    H175722   4.298   5.859  11.583  0.7143  0.4854  0.9256
18077TIP3    H275723   4.203   5.939  11.495 -1.6059 -1.4896  1.5701
18078TIP3   OH275724   4.730   0.626  13.815  0.7367  0.6817 -0.1621
18078TIP3    H175725   4.751   0.590  13.902  0.4605  0.4892 -0.1749
18078TIP3    H275726   4.812   0.665  13.785  0.7115  1.1551  0.3821
18079TIP3   OH275727   3.393   2.447   4.043 -0.9659  0.1334  0.1424
18079TIP3    H175728   3.413   2.501   3.967  1.5187 -1.5013 -0.4283
18079TIP3    H275729   3.478   2.414   4.072 -1.8992  0.4399  3.4392
18080TIP3   OH275730   2.972   6.324  12.145 -0.3971  0.0674  0.1892
18080TIP3    H175731   2.966   6.313  12.050  1.2125  0.8276 -0.0363
18080TIP3    H275732   3.036   6.259  12.173 -0.1461  0.4888  0.6108
18081TIP3   OH275733   5.000   3.834  11.479 -0.4897  0.1098  0.6169
18081TIP3    H175734   4.952   3.808  11.401  0.6218 -1.6445  0.4935
18081TIP3    H275735   5.008   3.929  11.472 -3.9038  0.4392  0.6360
18082TIP3   OH275736   3.973   3.383   0.750  0.1558 -0.3837  0.0288
18082TIP3    H175737   4.013   3.445   0.689  1.2940  0.3988  1.5293
18082TIP3    H275738   3.885   3.417   0.764 -0.3092 -0.8623 -1.5573
18083TIP3   OH275739   2.212   0.206  12.874  0.3499 -0.0855  0.1717
18083TIP3    H175740   2.224   0.301  12.874  1.5377 -0.2178 -0.1996
18083TIP3    H275741   2.132   0.192  12.925  0.5007  1.0694  0.7621
18084TIP3   OH275742   5.268   4.425  11.049  0.7286 -0.0761 -0.0673
18084TIP3    H175743   5.242   4.406  11.139 -0.9979  0.0093 -0.5199
18084TIP3    H275744   5.218   4.503  11.026  0.6135 -0.5079 -1.3288
18085TIP3   OH275745   3.419   2.725  12.182 -0.2232  0.6301  0.1421
18085TIP3    H175746   3.354   2.666  12.220  0.9848 -1.4230 -0.8360
18085TIP3    H275747   3.493   2.721  12.242  1.0407 -1.3132 -1.4461
18086TIP3   OH275748   4.138   2.357   4.283  0.4543 -0.0707  0.3022
18086TIP3    H175749   4.088   2.275   4.278  1.5682 -0.7291 -0.2825
18086TIP3    H275750   4.098   2.413   4.217 -0.0136 -0.3135  0.3773
18087TIP3   OH275751   5.947   2.200  16.795 -0.9668  0.1430 -1.0095
18087TIP3    H175752   5.956   2.196  16.700 -1.2465 -0.9696 -0.9866
18087TIP3    H275753   5.946   2.109  16.824  0.7603  0.5020  0.2337
18088TIP3   OH275754   0.233   0.940   0.238  0.0331 -0.1128  0.0347
18088TIP3    H175755   0.288   0.944   0.316 -2.1970  0.3175  1.6467
18088TIP3    H275756   0.252   1.021   0.190  2.2479 -0.9105 -0.5001
18089TIP3   OH275757   4.048   0.094   2.809 -0.3120 -0.1156  0.8517
18089TIP3    H175758   4.053  -0.001   2.801  1.3263 -0.1744  2.4264
18089TIP3    H275759   3.972   0.109   2.866 -0.6784 -0.4670  0.4604
18090TIP3   OH275760   6.031   4.838  14.054 -0.5936  0.3524 -0.1570
18090TIP3    H175761   6.125   4.857  14.053 -0.3601 -0.2432  3.4447
18090TIP3    H275762   5.989   4.924  14.065 -0.2647  0.2634  1.8970
18091TIP3   OH275763   2.502   4.899   2.975 -0.0535  0.1182  0.0013
18091TIP3    H175764   2.532   4.981   2.936  1.5311 -0.5914 -0.2842
18091TIP3    H275765   2.551   4.831   2.929  0.3221 -0.8559  1.8136
18092TIP3   OH275766   6.392   2.476  12.195  0.3085 -0.0191  1.0156
18092TIP3    H175767   6.356   2.398  12.154 -1.1428 -0.4197  3.0108
18092TIP3    H275768   6.430   2.445  12.277  0.9128  1.1662  1.2002
18093TIP3   OH275769   4.822   1.750  14.260 -0.4427 -0.1704 -0.1230
18093TIP3    H175770   4.750   1.766  14.199  1.4263 -2.0008 -2.9417
18093TIP3    H275771   4.885   1.820  14.243 -0.9153  0.6232  1.3413
18094TIP3   OH275772   5.352   1.778  11.264  0.4043  0.0221 -0.2256
18094TIP3    H175773   5.374   1.819  11.347 -1.8848  2.4374 -0.7535
18094TIP3    H275774   5.388   1.836  11.197 -4.0500  2.0466 -1.0089
18095TIP3   OH275775   1.977   4.136  13.382 -0.7175 -0.3434 -0.1450
18095TIP3    H175776   1.942   4.085  13.310 -1.1812  1.2972 -1.1116
18095TIP3    H275777   2.020   4.211  13.340 -0.4845  0.3209  1.2385
18096TIP3   OH275778   0.587   1.173  15.992  0.0449  0.0320  0.4728
18096TIP3    H175779   0.586   1.110  16.064  0.6511 -2.5162 -1.6716
18096TIP3    H275780   0.496   1.201  15.984 -0.1440 -0.1356  1.7837
18097TIP3   OH275781   5.169   6.419   5.984 -0.4569 -0.4033  0.1155
18097TIP3    H175782   5.116   6.480   5.932  1.7893  1.5439  0.0356
18097TIP3    H275783   5.168   6.455   6.072  1.7605  0.3809 -0.1545
18098TIP3   OH275784   6.383   4.169   0.619 -0.2386 -0.4829  0.1038
18098TIP3    H175785   6.387   4.236   0.551 -2.5953  0.7882  1.1604
18098TIP3    H275786   6.351   4.215   0.697  1.8360 -2.0298  1.9377
18099TIP3   OH275787   0.569   2.972   4.128  0.1103 -0.1515 -0.0119
18099TIP3    H175788   0.599   2.952   4.040 -1.3647 -1.4295 -0.2403
18099TIP3    H275789   0.474   2.970   4.123 -0.0073  1.2711  1.2713
18100TIP3   OH275790   2.142   1.524  14.035 -0.5472 -0.1393 -0.6063
18100TIP3    H175791   2.107   1.535  14.123  0.5025  0.3342 -0.2392
18100TIP3    H275792   2.081   1.465  13.992 -1.1819 -0.2036  0.3746
18101TIP3   OH275793   6.046   4.943  13.715  0.6072  0.3974 -0.0126
18101TIP3    H175794   5.974   4.974  13.659  0.8509  1.3009  0.1752
18101TIP3    H275795   6.038   4.993  13.795  2.0260  1.1885 -0.3554
18102TIP3   OH275796   2.464   1.289   0.102 -0.2963  0.2312 -0.4005
18102TIP3    H175797   2.486   1.200   0.074 -0.2852  0.0645  0.1175
18102TIP3    H275798   2.371   1.286   0.123 -0.3712  0.4284 -0.7114
18103TIP3   OH275799   3.570   0.403  16.393 -0.0026 -0.0464 -0.0946
18103TIP3    H175800   3.618   0.475  16.353 -1.3971  0.8172 -0.2524
18103TIP3    H275801   3.526   0.359  16.320 -2.0286  1.1361  0.3706
18104TIP3   OH275802   0.811   2.987   5.105 -0.0070  0.2951  0.0527
18104TIP3    H175803   0.832   3.048   5.034 -0.5885  0.7894  0.2967
18104TIP3    H275804   0.729   2.946   5.078 -0.0490  0.2288  0.2778
18105TIP3   OH275805   5.851   5.310  11.817 -0.0793  0.0433  1.0618
18105TIP3    H175806   5.849   5.377  11.885 -1.8402 -0.7744  1.8383
18105TIP3    H275807   5.859   5.227  11.865  2.0933 -0.3401  0.1209
18106TIP3   OH275808   3.080   0.360   2.268 -0.4923 -0.5258  0.0030
18106TIP3    H175809   3.071   0.323   2.181 -0.7486 -0.4118 -0.0186
18106TIP3    H275810   2.991   0.385   2.294 -0.6481 -1.9706  0.9130
18107TIP3   OH275811   3.802   4.301   0.398 -0.3109  0.1423  0.3516
18107TIP3    H175812   3.749   4.262   0.467  0.4157 -0.7658  0.4107
18107TIP3    H275813   3.880   4.334   0.442  0.1593 -0.4492 -0.0185
18108TIP3   OH275814   1.453   2.429   1.283 -0.1507 -0.0391  0.0499
18108TIP3    H175815   1.504   2.509   1.293 -0.4874  0.3981 -1.7106
18108TIP3    H275816   1.453   2.411   1.189  0.1087 -2.2291  0.4291
18109TIP3   OH275817   0.561   5.342   3.285  0.4089 -0.7071  0.0207
18109TIP3    H175818   0.642   5.388   3.309  1.0473 -1.4519 -0.6631
18109TIP3    H275819   0.518   5.401   3.224 -0.4474  0.4862  1.7489
18110TIP3   OH275820   2.108   3.438  11.833  0.0004 -0.3114 -0.1208
18110TIP3    H175821   2.050   3.513  11.826 -0.1467 -0.1513  2.3652
18110TIP3    H275822   2.075   3.376  11.768  0.3292  1.8337 -2.4314
18111TIP3   OH275823   0.189   1.177   0.844  0.3145 -0.7180 -0.1696
18111TIP3    H175824   0.258   1.239   0.868 -0.5971 -0.1497  1.0414
18111TIP3    H275825   0.118   1.233   0.811  0.9718 -1.3904 -2.8025
18112TIP3   OH275826   3.793   3.160   4.376  0.1551  0.2777 -0.4379
18112TIP3    H175827   3.872   3.159   4.431 -0.6947 -0.1809  0.8021
18112TIP3    H275828   3.760   3.070   4.379 -1.2570  0.8007  0.3164
18113TIP3   OH275829   1.029   3.271  13.069 -0.1936  0.3548 -0.3315
18113TIP3    H175830   1.103   3.308  13.118 -0.6533  0.2085  0.4795
18113TIP3    H275831   1.000   3.197  13.123 -0.7352  0.2234 -0.8057
18114TIP3   OH275832   5.938   1.768   1.274 -0.5677  0.4153 -0.4441
18114TIP3    H175833   6.016   1.760   1.220 -0.4130  0.2357 -0.1990
18114TIP3    H275834   5.972   1.794   1.360 -0.8190  0.8005 -0.4618
18115TIP3   OH275835   5.558   4.181  12.470 -0.2868  0.9208 -0.1590
18115TIP3    H175836   5.526   4.091  12.469 -1.6713  1.4053 -0.1669
18115TIP3    H275837   5.480   4.234  12.482  0.5735  2.1066  0.2577
18116TIP3   OH275838   2.630   0.056   4.270 -0.0867 -0.2428  0.0654
18116TIP3    H175839   2.661  -0.025   4.227  2.0934  0.8522 -0.5131
18116TIP3    H275840   2.696   0.073   4.337 -2.0052 -0.4035  2.0235
18117TIP3   OH275841   0.718   4.083   0.511  0.5444  0.3868  0.2758
18117TIP3    H175842   0.791   4.022   0.502 -1.3447 -1.7093 -1.5312
18117TIP3    H275843   0.640   4.027   0.514 -0.9832  2.5522  2.4987
18118TIP3   OH275844   3.929   1.001  14.307 -0.1069  0.1224  0.0591
18118TIP3    H175845   3.980   0.935  14.352  3.1986  2.8770  0.5906
18118TIP3    H275846   3.944   0.984  14.214 -0.6119 -0.8148  0.1380
18119TIP3   OH275847   5.311   5.739   4.922 -0.1242  0.0115  0.0137
18119TIP3    H175848   5.301   5.819   4.973 -1.6009  0.9638 -1.7131
18119TIP3    H275849   5.399   5.709   4.941  0.1770  1.6452  1.2648
18120TIP3   OH275850   1.274   4.542  12.194  0.2637 -0.1070  1.1571
18120TIP3    H175851   1.368   4.559  12.186  0.0417  2.3164  3.2232
18120TIP3    H275852   1.237   4.574  12.111  1.0100  0.8193  1.1747
18121TIP3   OH275853   6.380   6.690   1.920 -0.3304 -0.0571  0.6247
18121TIP3    H175854   6.341   6.603   1.909  0.9585 -0.5929  0.2606
18121TIP3    H275855   6.447   6.696   1.852 -2.1379  2.2248 -1.0607
18122TIP3   OH275856   2.327   1.678   5.410 -0.1208  0.1727 -0.1738
18122TIP3    H175857   2.288   1.613   5.469  0.4878 -1.0752 -1.1168
18122TIP3    H275858   2.320   1.638   5.323  0.7399  1.1461 -0.6997
18123TIP3   OH275859   3.951   3.300   2.131  0.0239  0.0523  0.0924
18123TIP3    H175860   3.986   3.356   2.201  0.3645 -0.0913  0.0365
18123TIP3    H275861   3.891   3.241   2.176  1.4212 -1.0783  0.5111
18124TIP3   OH275862   3.326   3.293  16.076 -0.1801 -0.1836 -0.8256
18124TIP3    H175863   3.292   3.205  16.059 -0.9829 -0.1423  0.4986
18124TIP3    H275864   3.418   3.279  16.102 -0.7939 -0.7946  1.0780
18125TIP3   OH275865   1.586   1.960  16.503 -0.1212  0.2319  0.0441
18125TIP3    H175866   1.669   1.946  16.459  0.1069  1.4139  0.0623
18125TIP3    H275867   1.590   2.051  16.533 -1.8466  0.6259 -0.8576
18126TIP3   OH275868   1.009   4.929  16.352  0.2291  0.0706  0.2809
18126TIP3    H175869   0.975   5.009  16.394  1.9049  1.7723 -1.4859
18126TIP3    H275870   1.092   4.913  16.397  0.3023 -0.1826  0.0514
18127TIP3   OH275871   1.930   0.158   0.070  0.0458 -0.3740 -0.5046
18127TIP3    H175872   1.864   0.097   0.102 -0.7691  1.3108  1.0723
18127TIP3    H275873   2.013   0.111   0.080 -0.5640 -1.2224  0.6864
18128TIP3   OH275874   2.791   6.062   1.774 -0.3026 -0.3322 -0.1696
18128TIP3    H175875   2.804   5.970   1.749 -0.5058 -0.2398 -0.6272
18128TIP3    H275876   2.748   6.101   1.698  0.6548  0.3755 -0.3441
18129TIP3   OH275877   2.301   3.703   2.990  0.3921  0.5705  0.8558
18129TIP3    H175878   2.240   3.644   3.035  0.9029  1.3318  2.5827
18129TIP3    H275879   2.363   3.645   2.946 -1.0267 -0.2034 -0.1588
18130TIP3   OH275880   4.602   4.079  13.471 -0.3120  0.0623 -0.3375
18130TIP3    H175881   4.614   3.994  13.513  4.1715  1.5850  1.7349
18130TIP3    H275882   4.679   4.091  13.417 -0.0241  3.5161  0.7332
18131TIP3   OH275883   5.953   3.612   2.006  0.1250 -0.3100  0.4352
18131TIP3    H175884   6.024   3.606   1.943 -2.2775  0.1284 -2.4111
18131TIP3    H275885   5.969   3.694   2.053  0.4662  0.7246 -1.4594
18132TIP3   OH275886   5.136   1.487   0.407 -0.1824  0.0308  0.2676
18132TIP3    H175887   5.061   1.430   0.391  0.1279 -0.1713 -0.5222
18132TIP3    H275888   5.192   1.437   0.467 -0.3781 -0.0773  0.3611
18133TIP3   OH275889   2.739   1.370   2.014 -0.1698 -0.7323 -0.0811
18133TIP3    H175890   2.758   1.338   1.925  1.0545 -0.6565  0.1527
18133TIP3    H275891   2.681   1.445   2.000  1.5317  0.4597 -0.9368
18134TIP3   OH275892   4.083   6.693  11.328  0.0129  0.5647  0.6144
18134TIP3    H175893   4.114   6.612  11.368 -1.0325 -0.4249 -0.5325
18134TIP3    H275894   3.988   6.681  11.321 -0.2004  2.0494  0.7714
18135TIP3   OH275895   6.603   5.611   0.857 -0.1802  0.0626 -0.0197
18135TIP3    H175896   6.525   5.649   0.897 -0.3247 -0.1695 -0.0782
18135TIP3    H275897   6.593   5.628   0.763 -0.0241  0.2771  0.0008
18136TIP3   OH275898   3.519   5.087  16.165  0.5556 -0.4301 -0.5076
18136TIP3    H175899   3.466   5.019  16.122 -0.8734  0.1359  0.3360
18136TIP3    H275900   3.601   5.042  16.186  0.0161 -1.6289 -0.8743
18137TIP3   OH275901   0.219   4.736   2.995 -0.2300 -0.0574  0.3467
18137TIP3    H175902   0.189   4.826   3.009 -0.9135 -0.1571 -0.4887
18137TIP3    H275903   0.146   4.681   3.023  0.4040 -0.3826  1.4123
18138TIP3   OH275904   4.655   6.601  14.954 -0.5334 -0.4026 -0.2657
18138TIP3    H175905   4.654   6.639  15.042  0.0985  0.2105 -0.5080
18138TIP3    H275906   4.712   6.660  14.904 -1.5554 -0.2698 -1.2932
18139TIP3   OH275907   5.191   2.908   2.031  0.5795  0.7290  0.3851
18139TIP3    H175908   5.096   2.910   2.041  0.4633 -0.0452 -0.4969
18139TIP3    H275909   5.216   2.999   2.015 -0.4310  0.4760 -2.9632
18140TIP3   OH275910   2.322   5.438  15.776 -0.6972 -0.3776 -0.1927
18140TIP3    H175911   2.314   5.514  15.720 -1.1832 -0.3396 -0.0703
18140TIP3    H275912   2.383   5.380  15.730  0.1960  0.3729  0.0325
18141TIP3   OH275913   4.233   6.288  16.251  0.2440 -0.1403  0.3683
18141TIP3    H175914   4.317   6.328  16.230 -0.5722  0.5797 -1.6315
18141TIP3    H275915   4.256   6.210  16.303  2.2397 -0.8728 -1.5432
18142TIP3   OH275916   6.004   4.067   0.660 -0.1871 -0.4257  0.0708
18142TIP3    H175917   6.081   4.115   0.690  0.2254 -1.2224  0.2994
18142TIP3    H275918   5.964   4.033   0.740 -0.0125 -1.1590 -0.1500
18143TIP3   OH275919   3.245   4.169   0.789  0.2251  0.4927 -0.1218
18143TIP3    H175920   3.192   4.247   0.777  0.0862  0.4347  0.1040
18143TIP3    H275921   3.242   4.124   0.704  0.4611  0.8281 -0.3057
18144TIP3   OH275922   3.075   6.058   5.991  0.0463  0.0689 -0.8993
18144TIP3    H175923   3.104   6.136   6.038 -1.4364 -0.2498  0.5945
18144TIP3    H275924   3.153   6.027   5.945  1.5273  0.4423  1.2824
18145TIP3   OH275925   0.929   5.002  16.618  0.0522 -0.0307 -0.3444
18145TIP3    H175926   0.923   5.080  16.673 -0.0180 -0.0809 -0.2810
18145TIP3    H275927   0.956   4.933  16.678 -1.0418 -0.3110 -0.1685
18146TIP3   OH275928   1.759   5.032   4.804  0.0548  0.1693  0.1742
18146TIP3    H175929   1.812   4.952   4.799  0.1572  0.2223  0.3906
18146TIP3    H275930   1.822   5.103   4.798  0.4976  0.2736  4.4605
18147TIP3   OH275931   3.372   4.266  16.185  0.4566 -0.2378 -0.4593
18147TIP3    H175932   3.405   4.208  16.116  0.2088 -0.2388 -0.5781
18147TIP3    H275933   3.364   4.209  16.262  1.6557 -0.0208 -0.1594
18148TIP3   OH275934   1.238   2.440   1.952 -0.4035  0.6778  0.6431
18148TIP3    H175935   1.285   2.515   1.990  1.1241  0.2936 -0.4013
18148TIP3    H275936   1.175   2.480   1.892  1.1187  1.1399 -0.7005
18149TIP3   OH275937   5.091   1.109  16.574  0.9409  0.2679  0.0183
18149TIP3    H175938   5.006   1.096  16.533  0.1009  1.4456  1.3466
18149TIP3    H275939   5.096   1.204  16.590  2.2274  0.1297  0.5124
18150TIP3   OH275940   5.416   4.341   5.589  0.0965 -0.3277 -0.1043
18150TIP3    H175941   5.380   4.275   5.529 -2.7573  1.7299 -0.7767
18150TIP3    H275942   5.364   4.333   5.668  1.0514 -0.1752  0.5517
18151TIP3   OH275943   0.294   5.982   2.771 -0.2431  0.1283  0.0023
18151TIP3    H175944   0.318   5.890   2.759  0.2872  0.0999  1.2590
18151TIP3    H275945   0.238   6.001   2.696 -0.5676 -1.2882 -0.1406
18152TIP3   OH275946   0.846   5.607  10.763 -0.4133  0.2493  0.0528
18152TIP3    H175947   0.808   5.665  10.697  1.7269  1.5423 -0.0823
18152TIP3    H275948   0.885   5.536  10.713  1.5192  1.4118 -0.1470
18153TIP3   OH275949   0.255   6.113  10.648  0.7104 -0.2402 -0.3751
18153TIP3    H175950   0.301   6.197  10.654  0.8979 -0.2612 -1.3314
18153TIP3    H275951   0.311   6.051  10.694  0.6571  0.1248  0.1859
18154TIP3   OH275952   1.901   4.159   1.570  0.2369  0.4700 -0.5929
18154TIP3    H175953   1.970   4.123   1.514  0.5615  0.6374 -0.3007
18154TIP3    H275954   1.820   4.143   1.521  0.4868  0.3246 -0.9617
18155TIP3   OH275955   5.985   2.396  11.190  0.1613  0.0809 -0.3515
18155TIP3    H175956   6.061   2.355  11.149  1.0691  0.9672  0.4042
18155TIP3    H275957   5.922   2.406  11.119  0.4111 -1.4646 -0.8007
18156TIP3   OH275958   1.476   2.909  15.289 -0.4010  0.0803 -0.5081
18156TIP3    H175959   1.413   2.944  15.351 -0.0333  0.3120 -0.2604
18156TIP3    H275960   1.526   2.844  15.338 -0.5901 -0.2546 -0.7601
18157TIP3   OH275961   2.766   4.167  11.105  0.4779 -0.0965  0.6240
18157TIP3    H175962   2.763   4.152  11.010 -0.9214  0.7649  0.5326
18157TIP3    H275963   2.768   4.079  11.142 -0.6746 -0.4616 -0.1527
18158TIP3   OH275964   6.482   5.792  11.145  0.1492  0.1504 -0.1182
18158TIP3    H175965   6.517   5.758  11.227 -0.9925  0.8015  0.6474
18158TIP3    H275966   6.531   5.746  11.077  2.9984  1.5183  0.9211
18159TIP3   OH275967   4.239   0.023  12.245  0.4588  0.1927 -0.1638
18159TIP3    H175968   4.182  -0.035  12.295 -2.8653  2.1729 -1.5358
18159TIP3    H275969   4.275   0.082  12.310  0.5866 -0.7585  0.6476
18160TIP3   OH275970   0.600   1.739   1.502 -0.1353  0.1281 -0.1268
18160TIP3    H175971   0.659   1.757   1.575  0.3348  2.3777 -1.0321
18160TIP3    H275972   0.513   1.732   1.542  0.2818  0.1784  0.7867
18161TIP3   OH275973   1.539   0.382   0.937 -0.4208  0.4965 -0.5064
18161TIP3    H175974   1.634   0.374   0.934 -0.3268  1.6322 -0.8416
18161TIP3    H275975   1.517   0.443   0.867 -1.3217  0.8296  0.0424
18162TIP3   OH275976   4.852   2.182   5.165 -0.2597 -0.1733 -0.2983
18162TIP3    H175977   4.802   2.162   5.244  1.7156  1.7559  1.5400
18162TIP3    H275978   4.815   2.265   5.133 -1.6558 -1.4056 -1.9627
18163TIP3   OH275979   4.393   4.377  14.366  0.0813  0.4475 -0.1204
18163TIP3    H175980   4.410   4.469  14.348  0.5927  0.6737  1.4778
18163TIP3    H275981   4.383   4.337  14.279 -0.7783  2.1091 -0.7881
18164TIP3   OH275982   4.985   0.225  14.171  0.2832 -0.2698  0.2750
18164TIP3    H175983   4.897   0.263  14.170  0.6614  0.5973  0.0439
18164TIP3    H275984   4.971   0.133  14.148 -0.4069  0.2002 -1.2250
18165TIP3   OH275985   0.880   4.486  17.284  0.2521 -0.0036 -0.4258
18165TIP3    H175986   0.847   4.441  17.362  3.1247 -1.9367 -0.2540
18165TIP3    H275987   0.914   4.569  17.317  0.5815 -0.4073  0.2756
18166TIP3   OH275988   3.802   4.736  16.832 -0.0916  0.0475 -0.3772
18166TIP3    H175989   3.714   4.716  16.802 -0.9609  1.0631  1.4044
18166TIP3    H275990   3.823   4.665  16.893  0.5110 -0.4315 -1.1353
18167TIP3   OH275991   4.592   1.147   5.185 -0.1138 -0.7755  0.0390
18167TIP3    H175992   4.548   1.196   5.115  1.0117 -0.3401 -0.3787
18167TIP3    H275993   4.586   1.056   5.157 -1.8375 -0.8503  0.6055
18168TIP3   OH275994   5.046   2.368   4.744  0.2182 -0.9890  0.0746
18168TIP3    H175995   5.132   2.411   4.743 -0.3657  0.1869 -0.9775
18168TIP3    H275996   5.031   2.347   4.836  1.1351 -0.1501  0.4220
18169TIP3   OH275997   3.202   6.655  12.750 -0.1300  0.5934  0.0111
18169TIP3    H175998   3.144   6.660  12.827  0.8529  2.6788  0.6359
18169TIP3    H275999   3.236   6.565  12.753 -0.9672  0.2917  1.3751
18170TIP3   OH276000   4.039   0.106   6.162 -0.7466 -0.2500 -0.0036
18170TIP3    H176001   3.973   0.161   6.121 -2.6390 -1.5466  1.2049
18170TIP3    H276002   4.027   0.120   6.256 -0.2566 -1.5952  0.2676
18171TIP3   OH276003   2.702   5.056  13.662  0.2630  0.1578  0.2191
18171TIP3    H176004   2.714   4.973  13.615  1.4594  0.6145 -0.2870
18171TIP3    H276005   2.755   5.119  13.614  0.4924  0.9076  1.4457
18172TIP3   OH276006   5.510   6.281  13.919  0.3116 -0.4074  0.6576
18172TIP3    H176007   5.557   6.231  13.986 -1.7773 -1.5326  1.3615
18172TIP3    H276008   5.543   6.370  13.928  0.3199 -0.6036  2.9869
18173TIP3   OH276009   2.467   0.802  11.773  0.2927  0.0223 -0.1824
18173TIP3    H176010   2.401   0.734  11.780 -2.4692  2.5007 -0.8981
18173TIP3    H276011   2.499   0.795  11.683 -0.2855 -0.0898 -0.3825
18174TIP3   OH276012   4.764   2.104   5.395 -0.3499  0.2964  0.1640
18174TIP3    H176013   4.784   2.155   5.474  0.2674  1.2118 -0.5785
18174TIP3    H276014   4.784   2.014   5.420  0.7374  0.6902  0.7676
18175TIP3   OH276015   3.571   6.010  11.051 -0.2256 -0.2589 -0.0573
18175TIP3    H176016   3.584   5.957  10.973 -2.6553  1.2366 -1.5361
18175TIP3    H276017   3.575   6.100  11.020  0.2901  0.3822  1.8153
18176TIP3   OH276018   0.088   2.067   1.111 -0.0834  0.5478 -0.0945
18176TIP3    H176019   0.172   2.102   1.143  0.5164 -1.4913  0.6585
18176TIP3    H276020   0.098   1.972   1.118 -2.4557  0.2774 -0.0530
18177TIP3   OH276021   6.217   3.936  13.799 -0.0334  0.3583 -0.0573
18177TIP3    H176022   6.121   3.942  13.800 -0.0091  1.7826 -2.4917
18177TIP3    H276023   6.244   4.006  13.739  2.5535  0.1838  0.8763
18178TIP3   OH276024   5.845   0.828  11.906 -0.1653 -0.1539 -1.2911
18178TIP3    H176025   5.798   0.745  11.908 -0.5069  0.0474 -0.8912
18178TIP3    H276026   5.829   0.867  11.991 -0.3981  0.5430 -1.6485
18179TIP3   OH276027   2.812   2.356  10.681 -0.6652 -1.0446 -0.0972
18179TIP3    H176028   2.810   2.444  10.644  0.6790  0.0563  2.3047
18179TIP3    H276029   2.733   2.313  10.648 -1.7903  1.3572 -0.5831
18180TIP3   OH276030   6.492   2.133   1.637 -0.3334  0.6329 -0.4655
18180TIP3    H176031   6.528   2.079   1.567 -0.7242 -0.7448  0.3807
18180TIP3    H276032   6.566   2.152   1.694 -0.8133 -1.9735  1.1273
18181TIP3   OH276033   1.179   6.487  12.590 -0.3064  0.1923  0.2887
18181TIP3    H176034   1.180   6.551  12.518  0.3343 -0.2720 -0.1237
18181TIP3    H276035   1.250   6.516  12.648  0.2286 -0.3507 -0.0864
18182TIP3   OH276036   3.945   2.275  12.365 -0.1672 -0.5675  0.1738
18182TIP3    H176037   3.999   2.326  12.305 -0.8262 -0.2688 -0.1671
18182TIP3    H276038   3.995   2.194  12.379  2.4925  1.5370  3.3792
18183TIP3   OH276039   0.128   0.548  17.130 -0.1305  0.3681  0.0568
18183TIP3    H176040   0.044   0.512  17.158  1.0818 -1.1813  1.8134
18183TIP3    H276041   0.186   0.472  17.124  1.1509  1.4136 -1.1196
18184TIP3   OH276042   5.962   2.204   2.516  0.1492 -0.1148 -0.3299
18184TIP3    H176043   5.929   2.167   2.598  0.5937 -0.6014 -0.3686
18184TIP3    H276044   5.888   2.254   2.481 -0.8205 -1.8512 -0.8187
18185TIP3   OH276045   6.751   2.155  13.134  0.4105  0.0519  0.2810
18185TIP3    H176046   6.781   2.212  13.064  0.5914  0.2204  0.4923
18185TIP3    H276047   6.701   2.086  13.090  3.5850 -1.9191 -0.3810
18186TIP3   OH276048   0.132   5.274  12.803  0.1113 -0.1905 -0.5264
18186TIP3    H176049   0.195   5.208  12.833  0.4344  0.7026  0.8163
18186TIP3    H276050   0.163   5.356  12.841 -0.5695  0.6588 -1.7701
18187TIP3   OH276051   5.597   4.365  14.510 -0.3677  0.1864 -0.0992
18187TIP3    H176052   5.505   4.363  14.535 -0.9408  1.4942 -1.9709
18187TIP3    H276053   5.618   4.458  14.502  0.6952 -0.1230 -1.1480
18188TIP3   OH276054   0.752   3.361   3.557  0.0421  0.1418 -0.1129
18188TIP3    H176055   0.678   3.403   3.512  1.5860  2.4755 -0.5424
18188TIP3    H276056   0.731   3.369   3.650  0.8454  2.9147 -0.1479
18189TIP3   OH276057   5.375   2.547   3.644  0.6031  0.0994 -0.3006
18189TIP3    H176058   5.405   2.589   3.563  1.1673  0.2307 -0.0239
18189TIP3    H276059   5.323   2.472   3.614  1.7191 -0.4992 -0.7890
18190TIP3   OH276060   5.917   6.108  12.977 -0.3562 -0.2070  0.7945
18190TIP3    H176061   5.872   6.179  13.022  0.8761  2.1756 -1.5600
18190TIP3    H276062   6.010   6.127  12.989  0.0426  1.0662 -3.3940
18191TIP3   OH276063   0.335   6.506  12.013  0.1449 -0.6954 -0.4989
18191TIP3    H176064   0.266   6.496  12.079 -0.2277  0.8141 -0.6373
18191TIP3    H276065   0.377   6.420  12.009 -1.0781 -1.3509  0.3101
18192TIP3   OH276066   2.576   0.215   1.319 -0.1556  0.2759 -0.3539
18192TIP3    H176067   2.602   0.137   1.269  1.5580 -0.2301  1.2581
18192TIP3    H276068   2.568   0.284   1.253  0.9181 -0.6376 -1.4690
18193TIP3   OH276069   5.908   5.053  11.983  0.3020 -0.0679  0.4211
18193TIP3    H176070   5.878   4.963  11.992 -1.3951  0.5024  0.6907
18193TIP3    H276071   5.990   5.056  12.033  0.0287 -1.2990  0.9621
18194TIP3   OH276072   3.730   0.231  13.537  0.2183 -0.4956  0.1235
18194TIP3    H176073   3.686   0.161  13.583  1.5291 -1.2239  0.2714
18194TIP3    H276074   3.683   0.238  13.454 -1.2842 -0.0781  1.0012
18195TIP3   OH276075   3.063   3.876  11.921 -0.5627  0.0519 -0.7390
18195TIP3    H176076   3.012   3.957  11.921 -0.4081  0.1650 -1.7557
18195TIP3    H276077   3.153   3.905  11.907 -0.4777 -0.2738 -0.8727
18196TIP3   OH276078   6.161   5.939   0.227 -0.5383  0.5150  0.1934
18196TIP3    H176079   6.108   6.010   0.265 -0.5899 -0.0577  1.2168
18196TIP3    H276080   6.152   5.950   0.133 -0.8930  1.6162  0.3439
18197TIP3   OH276081   2.392   0.618  13.570  0.1352 -0.5603 -0.5221
18197TIP3    H176082   2.329   0.546  13.579 -0.9322  0.5124  0.6338
18197TIP3    H276083   2.476   0.574  13.557 -0.3753 -2.0401  0.9682
18198TIP3   OH276084   6.532   1.989  16.185 -0.2567 -0.1006 -0.2048
18198TIP3    H176085   6.477   2.067  16.176  0.7689  0.5598 -0.8111
18198TIP3    H276086   6.615   2.012  16.143  1.1599 -0.4187  2.2617
18199TIP3   OH276087   5.515   1.644   1.162 -0.2757 -0.6563 -0.3253
18199TIP3    H176088   5.589   1.620   1.106 -0.2393 -0.4882 -0.3502
18199TIP3    H276089   5.448   1.674   1.101 -0.4268 -0.9686 -0.3145
18200TIP3   OH276090   5.864   3.331  17.223 -0.0886  0.1801 -0.0613
18200TIP3    H176091   5.856   3.365  17.312  0.3588  3.0848 -1.0689
18200TIP3    H276092   5.934   3.266  17.229  0.1089  0.5163  1.6765
18201TIP3   OH276093   2.447   2.613  12.884  0.2104 -0.0771 -0.0478
18201TIP3    H176094   2.500   2.592  12.961  1.2246 -0.0345 -0.7227
18201TIP3    H276095   2.388   2.538  12.874  1.2881 -0.8989 -0.2667
18202TIP3   OH276096   3.850   1.595  11.322  0.0167  0.0572  0.6342
18202TIP3    H176097   3.906   1.572  11.396  1.5433  0.3650 -0.3992
18202TIP3    H276098   3.911   1.610  11.249 -1.4510 -0.3597 -0.7201
18203TIP3   OH276099   3.306   2.461   1.002 -0.2362 -1.1436  0.2531
18203TIP3    H176100   3.323   2.499   0.916 -0.7617 -0.2643  0.5252
18203TIP3    H276101   3.251   2.385   0.985 -2.6324  0.5860  0.0040
18204TIP3   OH276102   2.693   4.702   0.517  0.8320  0.4677  0.3225
18204TIP3    H176103   2.679   4.643   0.591 -1.7950  1.2845  0.5389
18204TIP3    H276104   2.696   4.790   0.556  3.4698  0.6181 -0.1319
18205TIP3   OH276105   6.527   2.889   3.266 -0.4719 -0.2173  0.1188
18205TIP3    H176106   6.537   2.803   3.225 -0.5589 -0.0278 -0.3050
18205TIP3    H276107   6.600   2.941   3.232 -1.1253  0.2452 -0.5895
18206TIP3   OH276108   6.613   2.133  12.150  0.3870  0.3159  0.4286
18206TIP3    H176109   6.566   2.115  12.068  0.0332  0.4212  0.6085
18206TIP3    H276110   6.614   2.049  12.196 -0.1597  0.4543  0.6970
18207TIP3   OH276111   1.756   6.100   2.662 -0.1889  0.3348  0.1225
18207TIP3    H176112   1.785   6.145   2.583 -0.0644 -1.3631 -0.8321
18207TIP3    H276113   1.808   6.139   2.732  1.0690  0.5691 -0.9150
18208TIP3   OH276114   5.983   0.193  13.114  0.1301  0.6617  0.3908
18208TIP3    H176115   6.061   0.164  13.066  0.1859 -0.1532  0.9795
18208TIP3    H276116   5.975   0.133  13.187 -0.8454  0.9724  0.5505
18209TIP3   OH276117   5.900   0.474  12.064  0.1265 -0.4583 -0.2345
18209TIP3    H176118   5.848   0.397  12.085 -1.2719  0.4265 -0.4183
18209TIP3    H276119   5.866   0.504  11.980 -0.0742  1.0012  0.3586
18210TIP3   OH276120   4.330   3.504   4.832 -0.2980 -0.2796  0.0371
18210TIP3    H176121   4.296   3.592   4.814  1.1526  0.4845  0.9330
18210TIP3    H276122   4.294   3.449   4.762 -0.5589  1.1912 -0.9999
18211TIP3   OH276123   3.394   2.840   3.977  0.3027  0.2697  0.0306
18211TIP3    H176124   3.359   2.828   3.889  0.8514  0.4806 -0.2200
18211TIP3    H276125   3.488   2.852   3.964  0.5063 -0.5184  0.7091
18212TIP3   OH276126   6.536   1.315  17.067  0.1516 -0.4532 -0.5573
18212TIP3    H176127   6.587   1.286  16.991 -0.6466 -0.2793 -1.1689
18212TIP3    H276128   6.556   1.252  17.135 -0.5647 -1.7149 -1.4856
18213TIP3   OH276129   4.239   5.443  13.685  0.2319 -0.2345  0.5258
18213TIP3    H176130   4.151   5.410  13.667  0.3100 -0.4410  0.5175
18213TIP3    H276131   4.248   5.519  13.628  0.6709 -1.2043 -0.7196
18214TIP3   OH276132   0.730   1.548   6.078 -0.1265  0.1961 -0.5877
18214TIP3    H176133   0.701   1.585   5.995 -1.9941 -0.4519 -0.2551
18214TIP3    H276134   0.709   1.616   6.143 -1.9453 -0.6926 -0.2079
18215TIP3   OH276135   3.503   0.679  15.444  0.7880 -0.3325  0.2092
18215TIP3    H176136   3.474   0.632  15.522  1.4559 -1.8978 -0.4736
18215TIP3    H276137   3.424   0.691  15.392  0.0645  1.9986  1.7508
18216TIP3   OH276138   2.220   1.287   6.015  0.7358  0.3228  0.1546
18216TIP3    H176139   2.219   1.320   5.925 -0.2332 -0.5362 -0.1611
18216TIP3    H276140   2.164   1.347   6.063  3.0347  2.0926  0.6767
18217TIP3   OH276141   1.517   0.223  16.843  0.5161 -0.0916 -0.1070
18217TIP3    H176142   1.557   0.308  16.823  0.3006 -0.2163 -1.0530
18217TIP3    H276143   1.424   0.234  16.822  0.4013 -0.4235  0.2093
18218TIP3   OH276144   6.063   5.488   3.045 -0.0674 -0.2048 -0.4253
18218TIP3    H176145   6.084   5.514   2.956 -1.8255 -0.0153 -0.7931
18218TIP3    H276146   6.148   5.472   3.086  0.7780  0.4826 -1.8896
18219TIP3   OH276147   5.733   1.992  17.103 -0.6266 -0.2158 -0.3344
18219TIP3    H176148   5.718   1.941  17.023 -1.1439 -0.8666  0.1738
18219TIP3    H276149   5.645   2.014  17.135 -0.4113  0.8016 -0.4190
18220TIP3   OH276150   5.832   3.658   1.021 -0.4687  0.6155 -0.2613
18220TIP3    H176151   5.767   3.597   0.985 -1.0187  1.3819 -0.5690
18220TIP3    H276152   5.781   3.723   1.068  0.1956  0.1986  1.0617
18221TIP3   OH276153   6.393   5.507   3.376  0.1796  0.0958  0.2624
18221TIP3    H176154   6.317   5.448   3.379 -0.2957  0.7012  0.1974
18221TIP3    H276155   6.387   5.550   3.291 -0.1637  1.1406  0.8057
18222TIP3   OH276156   5.352   2.414  16.764 -0.0969 -0.2888  0.6951
18222TIP3    H176157   5.263   2.422  16.730  0.3268 -3.0512 -1.2723
18222TIP3    H276158   5.340   2.397  16.858 -1.5851  0.4693  0.6499
18223TIP3   OH276159   4.123   6.665  12.938 -0.0952  0.1866  0.5252
18223TIP3    H176160   4.187   6.681  12.868  0.9089 -1.7531  0.9737
18223TIP3    H276161   4.163   6.702  13.016  0.1512 -0.3789  0.6658
18224TIP3   OH276162   3.286   0.063   5.664 -0.0579 -0.0986 -0.0037
18224TIP3    H176163   3.280  -0.013   5.606 -1.7109 -0.8226  1.0641
18224TIP3    H276164   3.195   0.095   5.670  0.6435  2.1327 -0.6385
18225TIP3   OH276165   6.622   6.161  10.922 -0.0838  0.5935 -0.0310
18225TIP3    H176166   6.717   6.171  10.931 -0.3385  1.8357  1.4494
18225TIP3    H276167   6.601   6.205  10.839  0.7646 -0.7648 -1.0011
18226TIP3   OH276168   5.984   5.305  15.179 -0.4072  0.3685  0.0707
18226TIP3    H176169   6.041   5.240  15.220 -0.2796  0.1524 -0.4420
18226TIP3    H276170   6.032   5.387  15.185 -0.4305  0.3553  0.4380
18227TIP3   OH276171   4.268   3.756   2.663  0.3005 -1.1022 -0.2496
18227TIP3    H176172   4.189   3.738   2.612 -0.0190 -1.4798  0.3754
18227TIP3    H276173   4.323   3.808   2.604 -0.6085 -0.4314 -0.5257
18228TIP3   OH276174   3.418   2.744  12.857  0.2511 -0.2523 -0.2488
18228TIP3    H176175   3.476   2.776  12.927  1.0867 -1.8641 -0.1865
18228TIP3    H276176   3.342   2.710  12.904  0.3630 -0.4064 -0.1773
18229TIP3   OH276177   3.381   3.580   3.645 -0.0729 -0.1144 -0.0535
18229TIP3    H176178   3.292   3.584   3.680  0.0220  3.1096 -0.1061
18229TIP3    H276179   3.370   3.590   3.550  0.3696  0.9091 -0.0018
18230TIP3   OH276180   2.918   5.054  15.814 -0.4215 -0.4888 -0.5718
18230TIP3    H176181   2.862   5.092  15.747 -1.0086 -1.4635 -0.6344
18230TIP3    H276182   2.859   5.029  15.885 -0.1334 -1.8664 -0.7948
18231TIP3   OH276183   1.948   1.484  14.261  0.0636  0.0825  0.2857
18231TIP3    H176184   1.947   1.577  14.287 -0.8916 -0.1160  0.9794
18231TIP3    H276185   1.856   1.464  14.240 -0.0038 -1.1120  1.6256
18232TIP3   OH276186   5.040   6.252  14.238  0.4554  0.2831 -0.6003
18232TIP3    H176187   4.983   6.179  14.216  0.0186  0.4515 -0.0292
18232TIP3    H276188   5.011   6.323  14.181 -1.4847  1.0916  1.3281
18233TIP3   OH276189   1.746   6.048  13.048  0.4569  0.2594  0.4823
18233TIP3    H176190   1.818   6.088  13.097  0.7443  0.2657  0.0522
18233TIP3    H276191   1.678   6.032  13.114  0.3497  1.4351  0.6634
18234TIP3   OH276192   4.952   0.291   2.802 -0.0453  0.6008 -0.6481
18234TIP3    H176193   5.008   0.237   2.857  0.4840 -0.3181 -2.0435
18234TIP3    H276194   4.941   0.373   2.850 -2.3455 -1.3494  2.3649
18235TIP3   OH276195   1.186   0.880  14.921 -0.0393  0.3000  0.3519
18235TIP3    H176196   1.140   0.804  14.884  3.4170 -2.0631  0.6814
18235TIP3    H276197   1.199   0.858  15.013 -0.3534  2.0062  0.8214
18236TIP3   OH276198   1.467   3.258  11.731 -0.1979 -0.2507  0.5031
18236TIP3    H176199   1.439   3.181  11.681  2.4115 -1.0678  0.2174
18236TIP3    H276200   1.413   3.329  11.699 -0.1697 -1.2448 -1.8305
18237TIP3   OH276201   0.679   1.499  15.715  0.1054  0.5104  0.5595
18237TIP3    H176202   0.676   1.505  15.810 -1.3823  0.6160  0.5136
18237TIP3    H276203   0.671   1.590  15.685  2.0959  0.6471  0.3412
18238TIP3   OH276204   6.203   4.081  16.158 -0.4546 -0.0944 -0.2848
18238TIP3    H176205   6.263   4.154  16.170 -0.5507 -0.3784  2.1276
18238TIP3    H276206   6.123   4.108  16.203 -1.4936 -0.5122 -1.8301
18239TIP3   OH276207   0.944   0.545   2.180  0.3194 -0.1927 -0.3947
18239TIP3    H176208   0.865   0.557   2.128  0.8789 -0.3084 -1.2824
18239TIP3    H276209   0.942   0.616   2.244  1.2308  1.9305 -2.6241
18240TIP3   OH276210   4.395   2.588  12.273  0.4713 -0.5152 -0.2414
18240TIP3    H176211   4.348   2.579  12.355  1.3901 -0.3995  0.3038
18240TIP3    H276212   4.340   2.543  12.209 -0.5197 -0.1258  0.3201
18241TIP3   OH276213   1.433   2.018   0.828  0.2457 -0.9374  0.0365
18241TIP3    H176214   1.387   2.102   0.820  0.5867 -0.7336  0.2234
18241TIP3    H276215   1.479   2.024   0.911 -0.4534 -1.6704  0.4795
18242TIP3   OH276216   4.016   5.138   2.160 -0.0798 -0.4293  0.2172
18242TIP3    H176217   4.110   5.135   2.141 -0.2601 -0.0327 -0.7747
18242TIP3    H276218   3.993   5.046   2.177  0.3527 -0.6323 -0.2512
18243TIP3   OH276219   3.809   3.118   2.598  0.6131  0.2037 -0.1803
18243TIP3    H176220   3.853   3.042   2.635  0.4899  0.0298 -0.3896
18243TIP3    H276221   3.801   3.180   2.671  0.9502  0.1211 -0.0758
18244TIP3   OH276222   1.467   1.263   2.217 -0.7733 -0.5909 -0.3470
18244TIP3    H176223   1.432   1.213   2.144  0.4783 -1.2060 -0.5403
18244TIP3    H276224   1.557   1.231   2.227  0.1742  1.8300 -0.7046
18245TIP3   OH276225   6.357   4.249  13.906 -0.6515  0.5369  0.0613
18245TIP3    H176226   6.319   4.168  13.872 -3.3869  1.7517  0.0795
18245TIP3    H276227   6.339   4.246  14.000  1.1433  0.1928  0.4087
18246TIP3   OH276228   6.227   2.938  16.267  0.1688  0.0684 -0.4429
18246TIP3    H176229   6.217   2.981  16.181 -1.7604 -0.1219 -0.3509
18246TIP3    H276230   6.204   3.006  16.330 -0.4204 -0.3751 -0.1769
18247TIP3   OH276231   1.217   0.610  16.866 -0.5324 -0.1746  0.6688
18247TIP3    H176232   1.150   0.638  16.928 -0.1328  2.5651 -0.0976
18247TIP3    H276233   1.178   0.625  16.780  1.0482  1.5067  0.2126
18248TIP3   OH276234   0.087   0.827   1.795 -0.3686  0.2277  0.6772
18248TIP3    H176235   0.131   0.801   1.875 -0.2525 -3.6441 -0.5555
18248TIP3    H276236  -0.006   0.819   1.815 -0.4708  2.8625  1.4964
18249TIP3   OH276237   3.510   6.809   4.419  0.1995 -0.2945 -0.0273
18249TIP3    H176238   3.586   6.765   4.455  0.2084 -1.2611 -1.1832
18249TIP3    H276239   3.525   6.902   4.436  1.8891 -0.4277 -0.7142
18250TIP3   OH276240   6.255   0.258   3.069  0.0749  0.7320 -0.2204
18250TIP3    H176241   6.199   0.317   3.020  0.8172  1.8562  0.2481
18250TIP3    H276242   6.232   0.273   3.161  0.5746  0.6320 -0.0736
18251TIP3   OH276243   5.152   2.382  11.992 -0.0006  0.1654  0.2572
18251TIP3    H176244   5.161   2.296  11.951  0.4449  1.1998 -1.8454
18251TIP3    H276245   5.057   2.395  12.001 -0.0984 -0.0207 -0.5260
18252TIP3   OH276246   5.258   0.249   4.418 -0.2572 -0.1503 -0.0550
18252TIP3    H176247   5.294   0.234   4.331 -0.1178  0.0246 -0.0269
18252TIP3    H276248   5.164   0.261   4.403 -0.2876 -0.5036 -0.1373
18253TIP3   OH276249   0.388   4.094   4.867  0.1362 -0.2025  0.6240
18253TIP3    H176250   0.462   4.076   4.808  0.3382  3.4165 -0.3529
18253TIP3    H276251   0.315   4.113   4.808 -0.6210 -0.1432  1.5771
18254TIP3   OH276252   3.336   6.113   3.631  0.3528 -0.1966 -0.6787
18254TIP3    H176253   3.304   6.198   3.601  0.6957  0.4150  0.6899
18254TIP3    H276254   3.276   6.050   3.591 -1.0468  0.7909 -0.1698
18255TIP3   OH276255   2.963   4.663  14.086 -0.6108 -0.3800  0.0162
18255TIP3    H176256   2.943   4.582  14.132 -1.6550 -0.8522 -1.2238
18255TIP3    H276257   3.058   4.666  14.080 -0.5964 -1.9107 -0.6172
18256TIP3   OH276258   4.911   6.265  11.665 -0.7549  0.0018  0.1897
18256TIP3    H176259   4.979   6.264  11.598 -1.9188  0.0104 -1.0110
18256TIP3    H276260   4.922   6.181  11.712  1.6356  1.0554  1.6462
18257TIP3   OH276261   6.420   6.073  11.728 -0.3601 -0.4528  0.4253
18257TIP3    H176262   6.512   6.089  11.706 -0.4196  1.6514  1.5506
18257TIP3    H276263   6.394   6.000  11.672  2.0133 -1.1183  0.1401
18258TIP3   OH276264   6.668   1.496   0.465 -0.9558  0.0632 -0.0416
18258TIP3    H176265   6.628   1.430   0.522 -0.1273  0.5805  1.1592
18258TIP3    H276266   6.733   1.447   0.415 -1.6625 -0.3870 -0.5430
18259TIP3   OH276267   2.312   2.646   3.673  0.4374  0.3593  0.3120
18259TIP3    H176268   2.274   2.558   3.662 -0.1271  0.4167  1.6364
18259TIP3    H276269   2.351   2.644   3.760 -0.7368  1.8391  0.8944
18260TIP3   OH276270   0.986   5.860   5.818  0.6471 -0.6804 -0.1695
18260TIP3    H176271   0.927   5.923   5.860  1.8516  1.2077 -1.2655
18260TIP3    H276272   0.930   5.785   5.798 -0.9425  0.2642  0.6057
18261TIP3   OH276273   1.379   2.757   4.433 -0.3132  0.2474  0.3137
18261TIP3    H176274   1.323   2.680   4.443 -0.4236  0.5394  2.0701
18261TIP3    H276275   1.466   2.727   4.457 -0.0406  0.2468 -0.6694
18262TIP3   OH276276   1.458   2.333   4.069  0.1250  0.1151 -0.7325
18262TIP3    H176277   1.423   2.419   4.095  1.2382  0.1591  0.6350
18262TIP3    H276278   1.526   2.354   4.005  0.3248  0.2343 -0.4787
18263TIP3   OH276279   5.075   2.489   0.306 -0.1629  0.4907  0.0384
18263TIP3    H176280   5.153   2.496   0.250 -0.4064  0.8765 -0.2557
18263TIP3    H276281   5.069   2.396   0.326 -1.0119  0.0838 -1.9401
18264TIP3   OH276282   5.504   0.613   5.506 -0.2270  0.6697 -0.2309
18264TIP3    H176283   5.514   0.666   5.585  1.2410 -0.4074  0.3435
18264TIP3    H276284   5.542   0.667   5.436 -0.7939  1.2892 -0.0676
18265TIP3   OH276285   1.395   5.877   0.096  0.9570  0.1822 -0.1211
18265TIP3    H176286   1.396   5.902   0.004 -0.2015  0.4950 -0.0593
18265TIP3    H276287   1.317   5.821   0.104  0.8624  0.4344  0.7391
18266TIP3   OH276288   4.914   5.976  11.757  0.4097 -0.2877 -0.4555
18266TIP3    H176289   4.881   5.892  11.724  1.1284 -0.9952  0.6050
18266TIP3    H276290   5.008   5.974  11.737  0.8208 -0.6315  1.3855
18267TIP3   OH276291   5.266   4.937  14.058 -0.0651  0.2275  0.1287
18267TIP3    H176292   5.297   4.884  13.985  0.5531 -1.7842  1.7762
18267TIP3    H276293   5.176   4.907  14.072 -0.0063  0.2146  0.4960
18268TIP3   OH276294   6.510   3.982   2.427  0.0620  0.4883  0.2540
18268TIP3    H176295   6.478   3.897   2.457  1.8575 -0.3442 -0.1072
18268TIP3    H276296   6.534   3.968   2.336 -0.0035  1.5032  0.0694
18269TIP3   OH276297   4.988   4.147  15.251  0.1569  0.0234 -0.5409
18269TIP3    H176298   4.922   4.090  15.212  1.3912 -1.6818 -0.1882
18269TIP3    H276299   4.944   4.187  15.326 -0.9409  0.1011 -1.2182
18270TIP3   OH276300   3.634   6.717   2.269 -0.1629 -0.2794  0.7064
18270TIP3    H176301   3.659   6.733   2.178 -0.1250 -0.3961  0.6966
18270TIP3    H276302   3.539   6.711   2.267 -0.2118  0.3853  0.7751
18271TIP3   OH276303   5.162   5.598   5.205 -0.4939  0.1248 -0.3437
18271TIP3    H176304   5.227   5.666   5.188 -0.6923  0.3688 -0.1237
18271TIP3    H276305   5.084   5.626   5.157 -1.0817  0.8616  1.0142
18272TIP3   OH276306   1.903   4.220   4.935 -0.2319  0.1551  0.2064
18272TIP3    H176307   1.928   4.160   5.005  0.8421  1.4841  0.9854
18272TIP3    H276308   1.983   4.233   4.885 -0.5649  0.6062 -0.2128
18273TIP3   OH276309   3.691   1.077  15.457 -0.0322  0.6178  0.7111
18273TIP3    H176310   3.730   1.148  15.407  2.5282 -1.2763 -0.0482
18273TIP3    H276311   3.600   1.073  15.426  1.1668  0.2319 -3.0297
18274TIP3   OH276312   4.666   5.734   2.456 -0.0693 -0.2877  0.4795
18274TIP3    H176313   4.596   5.669   2.448  0.2153 -0.3353 -1.9287
18274TIP3    H276314   4.747   5.683   2.451  0.1540  0.2047 -1.0851
18275TIP3   OH276315   3.710   5.933  12.418  0.0234 -0.4683  0.3590
18275TIP3    H176316   3.659   5.897  12.490 -1.4738  1.8032  0.4574
18275TIP3    H276317   3.756   6.008  12.456  1.8780 -1.2751 -0.2310
18276TIP3   OH276318   3.335   4.100  15.612  0.5728  0.2255  0.1955
18276TIP3    H176319   3.291   4.168  15.560 -0.9105  0.3772  1.5970
18276TIP3    H276320   3.342   4.026  15.552 -1.2763  0.3362 -0.1978
18277TIP3   OH276321   5.431   1.742  16.708  1.0071  0.5726  0.2564
18277TIP3    H176322   5.369   1.777  16.773  0.1445  0.3873 -0.4649
18277TIP3    H276323   5.517   1.768  16.742  0.5038  1.4692  0.8940
18278TIP3   OH276324   1.723   5.717  11.400  0.6831 -0.1077  0.1600
18278TIP3    H176325   1.703   5.624  11.392  1.8441 -0.4898  1.6606
18278TIP3    H276326   1.648   5.754  11.445  0.8418 -0.5548  0.7894
18279TIP3   OH276327   4.340   2.226  15.973  0.0882 -0.2129 -0.5688
18279TIP3    H176328   4.264   2.273  15.941  0.8842  0.0482 -2.1392
18279TIP3    H276329   4.312   2.134  15.979 -1.0099  0.2128  1.0577
18280TIP3   OH276330   1.415   4.169  15.667 -0.1774 -0.4701  0.2567
18280TIP3    H176331   1.463   4.149  15.747  0.7512  0.3695 -0.0761
18280TIP3    H276332   1.479   4.153  15.596 -0.7247 -0.3949 -0.2558
18281TIP3   OH276333   4.092   3.991  11.818  0.4562 -0.4452 -0.0852
18281TIP3    H176334   4.173   3.971  11.771 -0.1599 -0.5792 -1.0970
18281TIP3    H276335   4.028   3.928  11.784 -0.3704  0.4209 -0.1519
18282TIP3   OH276336   2.097   3.361   2.548 -0.1662  0.7047 -0.1185
18282TIP3    H176337   2.111   3.398   2.461 -0.5300 -0.5759 -0.7409
18282TIP3    H276338   2.021   3.408   2.582 -1.4682 -0.4069 -1.4485
18283TIP3   OH276339   0.695   0.881   5.130 -0.1714  0.2766 -0.0121
18283TIP3    H176340   0.709   0.943   5.201  0.3076  0.6106 -0.4012
18283TIP3    H276341   0.608   0.902   5.096 -1.0533 -0.8735  1.4665
18284TIP3   OH276342   1.764   2.890  13.032  0.7811 -0.1144  0.2823
18284TIP3    H176343   1.669   2.883  13.026  0.9286 -0.8782 -2.0653
18284TIP3    H276344   1.786   2.970  12.984  1.4304 -1.0544 -1.0484
18285TIP3   OH276345   5.580   5.029   4.471  0.0430  0.3931 -0.4645
18285TIP3    H176346   5.585   5.093   4.542 -1.0501 -0.2910  0.2433
18285TIP3    H276347   5.487   5.007   4.465  0.2881 -0.4336 -1.3270
18286TIP3   OH276348   5.210   4.306   5.796  0.5166 -0.3230 -0.2855
18286TIP3    H176349   5.123   4.345   5.788  1.9602  3.1597  0.0192
18286TIP3    H276350   5.210   4.267   5.884 -0.3568  0.6423  0.1568
18287TIP3   OH276351   6.191   2.256  12.518  0.1119  0.4361 -0.2522
18287TIP3    H176352   6.160   2.177  12.474  1.2931 -0.2683  0.1405
18287TIP3    H276353   6.143   2.328  12.477  0.7839 -0.2648 -2.2958
18288TIP3   OH276354   1.378   4.151  15.325  0.9783  0.1698  0.1559
18288TIP3    H176355   1.375   4.056  15.339  0.6055  0.1332 -0.1557
18288TIP3    H276356   1.294   4.171  15.284  1.4470  0.5004 -0.6514
18289TIP3   OH276357   2.798   4.507  13.889  0.7754  0.7696 -0.4445
18289TIP3    H176358   2.867   4.441  13.901 -0.5192 -0.5603 -0.2422
18289TIP3    H276359   2.845   4.590  13.892  2.5543 -0.1508 -1.5576
18290TIP3   OH276360   0.526   3.249  13.381  0.2453  0.0951 -0.1907
18290TIP3    H176361   0.577   3.169  13.386  0.0285 -0.1244 -1.2371
18290TIP3    H276362   0.568   3.309  13.442  1.1164 -0.4298 -0.2659
18291TIP3   OH276363   2.875   1.645   5.952  0.2959  0.0248  0.7049
18291TIP3    H176364   2.855   1.575   6.014 -0.3402 -1.1510 -0.7878
18291TIP3    H276365   2.971   1.648   5.951  0.3362 -0.9442  0.6738
18292TIP3   OH276366   4.025   6.105  13.067 -0.0420  0.7144 -0.8077
18292TIP3    H176367   3.950   6.071  13.019  0.1718 -1.4465  0.3066
18292TIP3    H276368   3.990   6.130  13.152  0.5230 -0.5329 -0.1956
18293TIP3   OH276369   1.715   5.955  11.252  0.3989 -0.5670  0.0379
18293TIP3    H176370   1.624   5.933  11.235  0.8782 -1.9009 -0.8853
18293TIP3    H276371   1.748   5.881  11.303  0.9324 -0.0184  0.5025
18294TIP3   OH276372   4.123   0.243  13.780  0.0993 -0.6803  0.1605
18294TIP3    H176373   4.189   0.205  13.838 -0.0642  2.1270  2.2639
18294TIP3    H276374   4.042   0.196  13.802  0.2312 -0.2614  1.5871
18295TIP3   OH276375   5.120   3.416  15.601 -0.4473 -0.1556 -0.0695
18295TIP3    H176376   5.129   3.472  15.678 -0.1688  0.6424 -0.6766
18295TIP3    H276377   5.101   3.477  15.530 -3.9050 -1.1393 -0.0744
18296TIP3   OH276378   1.950   6.519   0.061 -0.6137  0.4975 -0.0311
18296TIP3    H176379   1.979   6.559   0.143  0.1625  1.3500 -0.7203
18296TIP3    H276380   1.950   6.425   0.080 -2.2029  0.7920  1.5072
18297TIP3   OH276381   1.302   4.944   0.296  0.3618 -0.0681 -0.3569
18297TIP3    H176382   1.265   4.917   0.212  1.7281 -0.6513 -0.7832
18297TIP3    H276383   1.226   4.963   0.350 -0.5445 -0.0504 -1.6030
18298TIP3   OH276384   2.528   1.659   2.180  0.8760 -0.2531 -0.1363
18298TIP3    H176385   2.593   1.730   2.186  0.8232 -0.0963 -1.3009
18298TIP3    H276386   2.518   1.644   2.086 -0.9537 -0.1163  0.0232
18299TIP3   OH276387   0.752   3.175   4.218 -0.2760  0.3126  0.6931
18299TIP3    H176388   0.699   3.102   4.187  0.8701 -0.2441  0.0127
18299TIP3    H276389   0.688   3.242   4.243 -1.2668  0.4976 -2.1217
18300TIP3   OH276390   6.125   2.470   4.680 -0.2389  0.2443  0.1692
18300TIP3    H176391   6.088   2.547   4.637 -2.4923 -0.9591 -0.1400
18300TIP3    H276392   6.096   2.476   4.771 -1.8447 -1.0354 -0.2180
18301TIP3   OH276393   4.233   3.784  12.899 -0.0296 -0.3324  0.2087
18301TIP3    H176394   4.278   3.867  12.885 -0.5380 -0.1916 -0.6297
18301TIP3    H276395   4.168   3.803  12.967  0.9293 -0.4533  1.1725
18302TIP3   OH276396   5.697   1.942  12.911 -0.2613 -0.1156  0.0683
18302TIP3    H176397   5.689   1.862  12.859  1.6571  1.3652 -2.6687
18302TIP3    H276398   5.625   1.998  12.881 -0.0072  0.2012  0.0441
18303TIP3   OH276399   2.140   1.157  11.377  0.0923  0.1168 -0.0525
18303TIP3    H176400   2.063   1.133  11.429 -0.3786 -0.1531 -0.8815
18303TIP3    H276401   2.179   1.230  11.425 -0.2745 -0.2083  0.7528
18304TIP3   OH276402   2.281   1.205   1.422  0.1040  0.3990 -0.1680
18304TIP3    H176403   2.364   1.240   1.454  0.1493 -0.0353  0.2006
18304TIP3    H276404   2.300   1.114   1.400 -0.3370  0.2096  0.2021
18305TIP3   OH276405   5.167   4.026  14.608  0.1378  0.7870 -0.6395
18305TIP3    H176406   5.229   4.070  14.666  0.2890 -0.6661  0.3101
18305TIP3    H276407   5.081   4.049  14.643  0.2178  0.3472 -0.1456
18306TIP3   OH276408   3.914   6.493  12.055 -0.1435 -0.2265  0.2583
18306TIP3    H176409   3.831   6.515  12.097  0.7141 -0.1522  1.9269
18306TIP3    H276410   3.951   6.577  12.029  0.0665 -0.1544  0.7826
18307TIP3   OH276411   4.841   5.702  14.670 -0.2030  0.1692 -0.0055
18307TIP3    H176412   4.789   5.732  14.744  0.2821 -0.1294  0.4572
18307TIP3    H276413   4.902   5.773  14.652 -1.2648  0.8473 -1.0405
18308TIP3   OH276414   5.083   1.643  12.180 -0.0544 -0.0614  0.1099
18308TIP3    H176415   5.042   1.586  12.115  0.5167  0.2017 -0.4834
18308TIP3    H276416   5.023   1.717  12.189  1.0122  1.0887 -1.9064
18309TIP3   OH276417   5.378   0.264  16.196 -0.0695  0.5263 -0.2735
18309TIP3    H176418   5.429   0.205  16.250 -0.3415 -1.0905 -1.7538
18309TIP3    H276419   5.442   0.326  16.160  0.1094  1.6070  1.8374
18310TIP3   OH276420   3.794   4.255  16.360  0.0247 -0.1508  0.0062
18310TIP3    H176421   3.780   4.245  16.265 -1.1554  0.6574  0.0876
18310TIP3    H276422   3.785   4.166  16.394 -3.0241 -0.0110 -0.2227
18311TIP3   OH276423   4.653   5.537   5.197 -0.2276  0.1327  0.0204
18311TIP3    H176424   4.616   5.619   5.228 -1.4753  0.1785 -1.5376
18311TIP3    H276425   4.729   5.522   5.253 -0.5221  1.8815  0.9041
18312TIP3   OH276426   6.511   3.032   2.386 -0.6088 -0.1818 -0.2440
18312TIP3    H176427   6.448   3.069   2.448  0.2931  2.6329 -0.9361
18312TIP3    H276428   6.460   3.013   2.307 -1.0652 -0.3980  0.1003
18313TIP3   OH276429   3.821   4.327  14.703 -0.1477 -0.0873  0.1885
18313TIP3    H176430   3.869   4.360  14.627  0.4596 -0.2461  0.5018
18313TIP3    H276431   3.774   4.403  14.736  1.3530  0.5158  0.9914
18314TIP3   OH276432   5.775   1.266  12.780  0.6901  0.6642 -0.4707
18314TIP3    H176433   5.788   1.278  12.686  0.5509 -1.5041 -0.7804
18314TIP3    H276434   5.739   1.178  12.789  0.7703  0.8095  1.6301
18315TIP3   OH276435   3.359   2.318  15.164 -0.0577  0.3921  0.0928
18315TIP3    H176436   3.410   2.355  15.092 -1.4575  0.5297 -0.8451
18315TIP3    H276437   3.390   2.228  15.171  0.5377  0.5622 -0.2473
18316TIP3   OH276438   4.805   5.704   5.840 -0.6571 -0.4676  0.4394
18316TIP3    H176439   4.789   5.645   5.913 -3.5084 -1.5664 -0.9821
18316TIP3    H276440   4.765   5.787   5.867 -2.5018 -1.1286 -0.1911
18317TIP3   OH276441   6.206   1.326   3.071 -0.0677  0.1043  0.5459
18317TIP3    H176442   6.226   1.376   3.150  0.7909 -0.9538  1.0190
18317TIP3    H276443   6.280   1.342   3.012 -0.6184  0.7457  0.0261
18318TIP3   OH276444   1.388   2.024  14.680  0.2304 -0.3322  0.1786
18318TIP3    H176445   1.473   2.063  14.658 -0.2915  0.6797 -0.0590
18318TIP3    H276446   1.410   1.947  14.733  1.2785  0.1846  0.5080
18319TIP3   OH276447   2.867   5.497  15.386 -0.2822 -0.1951  0.2613
18319TIP3    H176448   2.833   5.585  15.368 -0.6435 -0.3922 -0.0276
18319TIP3    H276449   2.856   5.450  15.304  3.4294  0.5708 -0.7711
18320TIP3   OH276450   6.249   5.722  11.802  0.1334 -0.6764 -0.0885
18320TIP3    H176451   6.213   5.746  11.887  1.1744 -0.6384  0.3537
18320TIP3    H276452   6.182   5.667  11.762 -0.8850  0.3144  0.2377
18321TIP3   OH276453   2.834   4.804   4.545  0.1555  0.1882 -0.4407
18321TIP3    H176454   2.902   4.869   4.529 -0.8388  1.3018 -0.2283
18321TIP3    H276455   2.754   4.855   4.555 -0.2303 -0.8475  2.3139
18322TIP3   OH276456   1.551   0.243  15.202  0.0657 -0.1930  0.0283
18322TIP3    H176457   1.586   0.328  15.228 -0.8970 -0.1682  1.2847
18322TIP3    H276458   1.477   0.264  15.144 -1.6157 -0.0983  2.1577
18323TIP3   OH276459   5.183   4.921  11.985  0.4659 -0.3851 -0.1492
18323TIP3    H176460   5.149   4.882  12.066 -0.6099  0.4310 -0.1882
18323TIP3    H276461   5.260   4.970  12.013  0.0777 -0.0742  0.3947
18324TIP3   OH276462   5.637   3.485   3.464  0.0133 -0.2928 -0.0052
18324TIP3    H176463   5.595   3.418   3.410 -0.7156  1.8106 -2.1346
18324TIP3    H276464   5.594   3.477   3.549 -0.6760 -1.9367 -0.4768
18325TIP3   OH276465   4.389   4.793  14.922  0.1366 -0.7448  0.1852
18325TIP3    H176466   4.295   4.805  14.936 -0.3729 -2.1576 -1.8868
18325TIP3    H276467   4.416   4.871  14.873 -0.5186 -1.6351 -1.6219
18326TIP3   OH276468   3.517   0.365  12.569  0.0710 -0.6171  0.3386
18326TIP3    H176469   3.518   0.460  12.556  0.7790 -0.0068  4.3085
18326TIP3    H276470   3.424   0.342  12.571 -0.1796  0.4482  1.9646
18327TIP3   OH276471   5.607   6.328  10.557 -0.0613  0.3854 -0.8900
18327TIP3    H176472   5.678   6.317  10.493  0.9032 -2.1859  0.5678
18327TIP3    H276473   5.527   6.320  10.506  0.6973 -0.6953 -1.9271
18328TIP3   OH276474   1.360   1.745   3.434  0.5141 -0.2584  0.2626
18328TIP3    H176475   1.317   1.660   3.428 -0.0723  0.0922 -0.5097
18328TIP3    H276476   1.449   1.724   3.464  0.7894 -1.2688 -1.2241
18329TIP3   OH276477   5.456   2.082   5.158 -0.1561  0.1026  0.2033
18329TIP3    H176478   5.403   2.127   5.225  0.4721  0.2291  0.6133
18329TIP3    H276479   5.424   1.992   5.158 -0.4582  0.2095  0.3609
18330TIP3   OH276480   3.116   0.103   3.810 -0.0345  0.0506 -0.4340
18330TIP3    H176481   3.168   0.085   3.889 -1.1538  0.7361  0.4801
18330TIP3    H276482   3.163   0.173   3.765  0.0434  0.4027  0.1922
18331TIP3   OH276483   5.010   2.425   5.841 -0.4638 -0.1534  0.0354
18331TIP3    H176484   5.066   2.408   5.766  1.3722  0.9152  1.1369
18331TIP3    H276485   5.069   2.423   5.917 -2.4135 -2.1592  1.5750
18332TIP3   OH276486   3.470   3.027   5.955  0.3507  0.1564  0.5307
18332TIP3    H176487   3.487   3.062   6.043  0.3650 -0.7761  0.9014
18332TIP3    H276488   3.508   2.939   5.956  0.2870  0.1142 -0.3889
18333TIP3   OH276489   1.764   3.721   6.258 -0.7454  0.5121  0.0018
18333TIP3    H176490   1.784   3.788   6.192 -1.5036  0.0663 -0.7089
18333TIP3    H276491   1.846   3.705   6.303 -0.2191  0.8744 -0.8148
18334TIP3   OH276492   6.672   1.495   3.318  0.1377 -0.4970  0.5489
18334TIP3    H176493   6.593   1.463   3.361  0.2242 -0.4740  0.7264
18334TIP3    H276494   6.665   1.590   3.321 -0.2011 -0.5001 -0.1305
18335TIP3   OH276495   2.196   2.990  11.053  0.4830 -0.0093 -0.0008
18335TIP3    H176496   2.229   2.994  11.143  3.1616 -1.0399 -0.8985
18335TIP3    H276497   2.159   2.903  11.044 -0.1390  0.2313  0.2179
18336TIP3   OH276498   1.939   2.956   5.791 -0.3284 -0.3816  0.7249
18336TIP3    H176499   2.020   2.982   5.747 -0.4786 -0.7151  0.2438
18336TIP3    H276500   1.947   2.861   5.800 -1.0048 -0.5143 -0.0207
18337TIP3   OH276501   2.516   0.281  11.343  0.3007 -0.0505  0.4130
18337TIP3    H176502   2.571   0.323  11.278 -0.7928  1.3774  0.3801
18337TIP3    H276503   2.557   0.196  11.358  1.4905  0.2699 -0.9070
18338TIP3   OH276504   5.480   4.267   3.303 -0.1500  0.1441 -0.4704
18338TIP3    H176505   5.500   4.349   3.348  1.0432 -0.2070 -0.3634
18338TIP3    H276506   5.398   4.285   3.257  1.0067  1.9756 -1.8758
18339TIP3   OH276507   4.062   2.451  13.985  0.0759 -0.4286 -0.6356
18339TIP3    H176508   4.131   2.509  14.017  0.3033 -1.0270 -0.0323
18339TIP3    H276509   4.010   2.506  13.926 -0.1750  0.6131  0.5315
18340TIP3   OH276510   6.201   1.250   3.410 -0.5329 -0.6922 -0.4078
18340TIP3    H176511   6.153   1.203   3.479  0.3300 -2.6570 -1.0976
18340TIP3    H276512   6.132   1.292   3.359 -1.3607 -1.3285  0.1575
18341TIP3   OH276513   5.595   2.193   6.563  0.4322  0.4046  0.8026
18341TIP3    H176514   5.577   2.111   6.609 -0.6747  0.3732  0.3164
18341TIP3    H276515   5.512   2.240   6.564  0.6425  0.8075 -0.3880
18342TIP3   OH276516   4.706   6.130   0.007 -0.0590 -0.5857  0.0507
18342TIP3    H176517   4.702   6.124   0.102  1.1829  3.2983  0.4326
18342TIP3    H276518   4.799   6.123  -0.014  0.0991  2.2530 -0.4727
18343TIP3   OH276519   4.893   2.676  12.142 -0.2880 -0.0814 -0.3970
18343TIP3    H176520   4.967   2.700  12.086 -0.2527  1.1369  0.1382
18343TIP3    H276521   4.839   2.756  12.144 -1.2393 -0.7268 -0.1996
18344TIP3   OH276522   6.792   0.279   0.644 -0.0962  0.3100  0.2537
18344TIP3    H176523   6.873   0.238   0.675  0.5092  2.0488  1.0483
18344TIP3    H276524   6.748   0.308   0.724 -0.3205  1.5191 -0.3001
18345TIP3   OH276525   2.348   2.123   0.347  0.5504 -0.2577 -0.0698
18345TIP3    H176526   2.280   2.056   0.340 -0.6725  0.6468  2.4958
18345TIP3    H276527   2.305   2.204   0.319  1.1647 -0.0378 -0.3757
18346TIP3   OH276528   2.613   4.869  16.209 -0.8946 -0.3307  0.3300
18346TIP3    H176529   2.568   4.950  16.235 -0.1342 -0.1195  0.9947
18346TIP3    H276530   2.636   4.882  16.118 -3.1264 -0.8630 -0.3407
18347TIP3   OH276531   3.201   0.373   3.973  0.2748 -0.3409 -0.1194
18347TIP3    H176532   3.273   0.314   3.954  1.0940  0.0112  1.7604
18347TIP3    H276533   3.157   0.334   4.049  1.6775  2.1216  2.0586
18348TIP3   OH276534   3.660   0.264   5.019 -0.6277  0.0345  0.2202
18348TIP3    H176535   3.652   0.169   5.009  0.8552 -0.0414 -0.3791
18348TIP3    H276536   3.612   0.300   4.945 -2.3250 -0.1936  1.1676
18349TIP3   OH276537   4.084   4.016   1.216  0.0131  0.1152 -0.5112
18349TIP3    H176538   4.075   4.107   1.186  1.9652  0.6796  0.4493
18349TIP3    H276539   4.102   4.025   1.310 -0.9411 -1.3311 -0.1929
18350TIP3   OH276540   5.937   0.307  14.152  0.6378 -0.5968 -0.3603
18350TIP3    H176541   5.991   0.281  14.227 -1.4744  0.8280  1.7149
18350TIP3    H276542   5.862   0.247  14.155 -0.4837  0.7980 -0.0621
18351TIP3   OH276543   1.799   6.629   5.824  0.1511 -0.1861  0.5338
18351TIP3    H176544   1.759   6.542   5.826 -0.8673  0.2885  1.6573
18351TIP3    H276545   1.836   6.636   5.736 -1.9264 -0.7985 -0.4366
18352TIP3   OH276546   5.354   4.129   3.695  0.3189 -0.2622  0.0202
18352TIP3    H176547   5.280   4.069   3.689  0.2295 -0.0924 -0.6758
18352TIP3    H276548   5.387   4.119   3.784 -0.8439  0.0167  0.4914
18353TIP3   OH276549   3.230   6.078  13.048  0.4875  0.2388  0.1111
18353TIP3    H176550   3.138   6.080  13.023  1.1580 -0.3656 -2.6079
18353TIP3    H276551   3.231   6.102  13.140 -2.8243 -4.1953  1.4982
18354TIP3   OH276552   5.668   1.934  11.574  0.1193  0.0231 -0.1984
18354TIP3    H176553   5.688   1.993  11.501  1.6372  0.0534  0.2240
18354TIP3    H276554   5.727   1.860  11.563 -0.3128 -0.4298  0.4604
18355TIP3   OH276555   5.954   6.236  13.697  0.2317 -0.0984 -0.4924
18355TIP3    H176556   5.965   6.143  13.718  0.2057 -0.1683 -0.7872
18355TIP3    H276557   5.897   6.237  13.621  0.1454  0.1664 -0.4245
18356TIP3   OH276558   0.349   2.054   0.502  0.0777 -1.1463 -0.0157
18356TIP3    H176559   0.271   2.100   0.472  1.4100  0.4901 -1.1215
18356TIP3    H276560   0.365   2.088   0.590 -0.3054 -1.2633  0.0960
18357TIP3   OH276561   4.353   1.487  15.787  0.3026  0.5401  0.4221
18357TIP3    H176562   4.312   1.468  15.702 -0.0556  0.3887  0.6256
18357TIP3    H276563   4.445   1.465  15.774 -0.4160 -3.3481  1.2520
18358TIP3   OH276564   2.965   0.115  16.261 -0.2777 -0.0191 -0.0149
18358TIP3    H176565   3.007   0.085  16.181 -1.0616 -0.9380 -0.0855
18358TIP3    H276566   3.027   0.095  16.331 -0.6011 -1.4334 -0.1097
18359TIP3   OH276567   6.228   5.705  16.406  0.0094  0.1609  0.0494
18359TIP3    H176568   6.140   5.673  16.384  0.9659 -1.0785 -2.1365
18359TIP3    H276569   6.233   5.791  16.367 -0.5104  0.5918  0.9088
18360TIP3   OH276570   2.413   4.938   2.649 -0.3207  0.4049  0.8093
18360TIP3    H176571   2.415   4.967   2.557  1.3965  0.5110  0.8638
18360TIP3    H276572   2.432   5.018   2.699  2.3760 -0.3554  1.0644
18361TIP3   OH276573   6.026   2.580  14.030  0.4034  0.6329 -0.3860
18361TIP3    H176574   5.950   2.565  13.974  0.4099 -0.9981  0.0274
18361TIP3    H276575   6.095   2.607  13.970 -0.1938  1.0449 -0.8966
18362TIP3   OH276576   3.270   2.723  15.552  0.1135  0.1094  0.2273
18362TIP3    H176577   3.208   2.793  15.536 -0.4544 -0.4155  0.1195
18362TIP3    H276578   3.356   2.764  15.544 -0.2134  0.6871 -0.2827
18363TIP3   OH276579   2.453   1.591   5.926 -0.0576 -0.1290 -0.6985
18363TIP3    H176580   2.536   1.546   5.910 -0.2046 -0.5194 -0.3742
18363TIP3    H276581   2.398   1.567   5.852  1.2204  2.8551 -2.7287
18364TIP3   OH276582   4.921   5.974  13.595 -0.4255 -0.0217 -0.1840
18364TIP3    H176583   5.001   5.933  13.627  0.1866  1.1885 -0.1133
18364TIP3    H276584   4.912   6.054  13.648 -0.3039  1.1362 -1.8738
18365TIP3   OH276585   4.391   5.445  12.986  0.6891  0.3544 -0.4538
18365TIP3    H176586   4.485   5.453  13.004  0.6553  1.7126 -0.8697
18365TIP3    H276587   4.380   5.481  12.899 -0.0631 -0.8641 -0.8804
18366TIP3   OH276588   0.389   5.596   0.442 -0.1843 -0.0565  0.2017
18366TIP3    H176589   0.410   5.583   0.534  0.7992  2.1797  0.3336
18366TIP3    H276590   0.293   5.588   0.438 -0.3571  1.0105  1.6589
18367TIP3   OH276591   1.927   2.211   5.912  0.3413 -0.1226 -0.2998
18367TIP3    H176592   1.966   2.132   5.951  2.4943  1.4610  0.8523
18367TIP3    H276593   1.972   2.220   5.829  1.2280  0.7607  0.2716
18368TIP3   OH276594   4.733   1.718   0.213  0.1738  0.0797 -0.4095
18368TIP3    H176595   4.646   1.679   0.213  1.2177 -2.3717 -1.2043
18368TIP3    H276596   4.763   1.710   0.123  0.9642  1.5265 -0.2878
18369TIP3   OH276597   2.659   6.816   1.882  0.0656 -0.4511  0.0867
18369TIP3    H176598   2.668   6.728   1.916 -0.1920 -0.4004  0.2789
18369TIP3    H276599   2.616   6.805   1.797  0.2549 -0.5296 -0.0002
18370TIP3   OH276600   6.016   2.050   5.655  0.0589 -0.1881  0.3748
18370TIP3    H176601   6.106   2.016   5.652  0.3272  0.6479 -1.8858
18370TIP3    H276602   6.019   2.118   5.722  1.3160  0.3494 -0.2027
18371TIP3   OH276603   3.328   0.425  11.860  0.0408 -0.0094  0.1991
18371TIP3    H176604   3.284   0.430  11.945 -1.4892  1.5598 -0.6619
18371TIP3    H276605   3.340   0.331  11.845 -1.8894 -0.4137  1.0414
18372TIP3   OH276606   6.013   0.697   3.994 -0.1583 -0.2103  0.8050
18372TIP3    H176607   6.048   0.780   4.028  0.7577 -0.7711  1.2296
18372TIP3    H276608   5.944   0.672   4.055  0.0113 -0.1031  1.0383
18373TIP3   OH276609   2.801   4.248  13.194 -0.2688 -0.4237  0.7139
18373TIP3    H176610   2.820   4.342  13.194  0.1316 -0.5060  0.4343
18373TIP3    H276611   2.710   4.243  13.164  0.3882 -0.2595 -1.3625
18374TIP3   OH276612   1.994   5.126  12.650 -0.0594 -0.1832 -0.0265
18374TIP3    H176613   2.038   5.209  12.668  0.0111 -0.0170 -0.9627
18374TIP3    H276614   1.901   5.148  12.652 -0.0406 -0.0767 -0.2843
18375TIP3   OH276615   5.648   5.404  14.842 -0.1987  0.7095  0.4189
18375TIP3    H176616   5.715   5.337  14.851 -0.5929  0.3924  1.0081
18375TIP3    H276617   5.661   5.440  14.754  0.0189 -0.1321  0.1085
18376TIP3   OH276618   2.341   6.621  14.507  0.1700 -0.0940  0.0684
18376TIP3    H176619   2.343   6.618  14.411  1.8149 -0.0504  0.0903
18376TIP3    H276620   2.328   6.530  14.534  0.2957 -0.1885 -0.1897
18377TIP3   OH276621   3.941   1.413  13.140 -0.4695  0.4280 -0.4652
18377TIP3    H176622   3.865   1.359  13.161 -0.3258  1.0211  1.7219
18377TIP3    H276623   3.939   1.484  13.205  1.1332  1.2456 -1.2780
18378TIP3   OH276624   5.592   2.958  16.158 -0.4029  0.2084  0.3113
18378TIP3    H176625   5.560   3.042  16.191 -0.1075  0.0820  0.9360
18378TIP3    H276626   5.572   2.959  16.064  1.4858  1.8809 -0.1126
18379TIP3   OH276627   6.529   5.465   3.998 -0.3126  0.5393  0.0975
18379TIP3    H176628   6.442   5.430   4.014 -0.7762  2.0295  1.0236
18379TIP3    H276629   6.538   5.466   3.903 -1.2974  0.3400  0.0006
18380TIP3   OH276630   4.689   1.056  14.664 -0.3468  0.2697 -0.5535
18380TIP3    H176631   4.613   1.093  14.709 -1.4536 -3.5941  0.9566
18380TIP3    H276632   4.661   1.047  14.573 -0.3538  2.1887 -0.7716
18381TIP3   OH276633   4.002   4.919  16.589 -0.5415 -0.0448 -0.2627
18381TIP3    H176634   4.022   4.965  16.670 -0.9022 -1.1921  0.4949
18381TIP3    H276635   3.963   4.986  16.532  2.4224  1.4744 -0.6090
18382TIP3   OH276636   2.364   0.509   1.990 -0.3098 -0.0369  0.0774
18382TIP3    H176637   2.405   0.482   2.072 -0.8401  0.5299  0.5370
18382TIP3    H276638   2.402   0.452   1.923 -0.7157 -1.2507  0.8858
18383TIP3   OH276639   2.226   3.911   6.083 -0.1368  0.5094 -0.1400
18383TIP3    H176640   2.158   3.911   6.016  0.3892  0.4083 -0.6743
18383TIP3    H276641   2.281   3.986   6.062  1.5634 -1.0532 -1.3975
18384TIP3   OH276642   5.415   1.202   2.886 -0.0891 -0.0594 -0.7609
18384TIP3    H176643   5.407   1.125   2.829 -1.2926  0.0105 -0.6965
18384TIP3    H276644   5.401   1.277   2.828  1.1103  0.1316 -0.8290
18385TIP3   OH276645   2.073   5.997  15.116  0.6042 -0.1736  0.5028
18385TIP3    H176646   2.070   6.092  15.107 -2.6622 -0.0745  2.1081
18385TIP3    H276647   1.982   5.969  15.109  1.3525 -3.0505  1.5887
18386TIP3   OH276648   5.665   3.171   1.227 -0.2305  0.1362 -0.3325
18386TIP3    H176649   5.639   3.147   1.316  3.0915  2.0847  1.2649
18386TIP3    H276650   5.615   3.251   1.209  0.4850  0.7817  0.5247
18387TIP3   OH276651   5.687   0.864   5.910 -0.2970 -0.3651  0.1716
18387TIP3    H176652   5.641   0.792   5.867 -0.8796  0.4327 -0.5760
18387TIP3    H276653   5.683   0.844   6.003 -0.2411 -1.4200 -0.0488
18388TIP3   OH276654   6.736   3.935  12.979 -0.2349  0.3832  0.1894
18388TIP3    H176655   6.775   4.019  12.954  0.5586  0.2467  0.9368
18388TIP3    H276656   6.732   3.885  12.898  1.2719  0.3583  0.1204
18389TIP3   OH276657   6.319   1.679  16.939  0.3624 -0.2764 -0.2175
18389TIP3    H176658   6.237   1.652  16.897 -0.5644 -0.5046  1.7187
18389TIP3    H276659   6.339   1.764  16.900 -0.7386 -0.2545 -0.7634
18390TIP3   OH276660   2.291   4.397   5.251 -0.1217  0.1711 -0.2149
18390TIP3    H176661   2.323   4.312   5.220 -0.6837  0.3177 -1.1961
18390TIP3    H276662   2.199   4.399   5.225 -0.1227  1.0604 -0.1501
18391TIP3   OH276663   2.139   5.610  15.948 -0.0091 -0.3003 -0.3347
18391TIP3    H176664   2.060   5.556  15.959 -0.4152  1.0719  4.7082
18391TIP3    H276665   2.211   5.548  15.955 -0.5391 -0.6963  1.9022
18392TIP3   OH276666   2.782   4.770  11.386 -0.3255 -0.8055  0.5343
18392TIP3    H176667   2.723   4.716  11.438 -1.7036 -0.9165 -1.1117
18392TIP3    H276668   2.870   4.744  11.415 -1.0695  0.0504  3.6756
18393TIP3   OH276669   1.642   6.275   4.069  0.3132  0.0552  0.0937
18393TIP3    H176670   1.619   6.368   4.070 -1.2650 -0.3231  0.9269
18393TIP3    H276671   1.578   6.235   4.010 -0.6954 -0.8836  1.7547
18394TIP3   OH276672   5.959   4.611   4.961  0.1754 -0.3866 -0.1232
18394TIP3    H176673   5.952   4.587   5.053  1.0216 -1.5753 -0.3648
18394TIP3    H276674   6.042   4.660   4.955  0.1220 -0.3096 -0.2556
18395TIP3   OH276675   3.050   1.558  15.977 -1.1314  0.5297 -0.4600
18395TIP3    H176676   3.022   1.538  15.888 -0.4160 -0.1264 -0.5457
18395TIP3    H276677   3.140   1.591  15.967 -0.7508 -0.3323  0.0856
18396TIP3   OH276678   1.476   4.068   3.292 -0.2821 -0.3736  0.5641
18396TIP3    H176679   1.390   4.026   3.288 -0.2524 -0.3158 -2.2003
18396TIP3    H276680   1.456   4.161   3.306 -0.7395 -0.2833 -0.5728
18397TIP3   OH276681   5.949   1.747   2.352 -0.3614 -0.0497 -0.3783
18397TIP3    H176682   5.885   1.788   2.294  0.5139  1.2855 -0.4255
18397TIP3    H276683   6.011   1.817   2.372  1.4675 -1.4928 -0.8858
18398TIP3   OH276684   4.327   6.452   2.944 -0.1192  0.3156  0.1594
18398TIP3    H176685   4.295   6.364   2.927 -0.4903  0.9538 -2.6080
18398TIP3    H276686   4.249   6.501   2.971 -0.4002  0.4131 -0.8066
18399TIP3   OH276687   2.701   0.408  11.170 -0.1179  0.1691 -0.1615
18399TIP3    H176688   2.640   0.398  11.097 -0.4559  1.7823 -0.1202
18399TIP3    H276689   2.782   0.440  11.130 -0.1268  0.5115  0.0853
18400TIP3   OH276690   5.912   0.325   5.986  0.3131 -0.6958  0.0169
18400TIP3    H176691   5.869   0.240   5.974  0.4120 -0.8038  0.4346
18400TIP3    H276692   5.855   0.387   5.941  0.4108 -1.0294 -0.5791
18401TIP3   OH276693   4.693   4.457   0.495 -0.9952 -0.4941 -0.4526
18401TIP3    H176694   4.723   4.425   0.580  0.5862  0.5370 -0.5900
18401TIP3    H276695   4.624   4.520   0.516 -2.4776 -2.1801 -0.0850
18402TIP3   OH276696   6.575   3.113   2.789  0.1169  0.0177 -0.3672
18402TIP3    H176697   6.636   3.186   2.797  0.3966  0.1021 -2.7195
18402TIP3    H276698   6.495   3.144   2.829  0.4094  1.4278 -0.8344
18403TIP3   OH276699   0.130   2.753   4.421 -0.1148 -0.0938  0.0035
18403TIP3    H176700   0.119   2.679   4.362 -2.9245 -1.0428  1.6075
18403TIP3    H276701   0.157   2.713   4.504  1.3974  0.9900  0.0554
18404TIP3   OH276702   3.203   5.015   0.314  0.2577 -0.1936 -0.1200
18404TIP3    H176703   3.164   5.035   0.228 -1.2726  1.9688  1.0301
18404TIP3    H276704   3.286   5.063   0.314 -0.2034  0.6068 -0.0160
18405TIP3   OH276705   3.509   2.009  13.263 -0.5727 -0.2394  0.5056
18405TIP3    H176706   3.604   1.995  13.260 -0.7277 -1.5549  0.9577
18405TIP3    H276707   3.486   1.994  13.355 -1.0889  1.0648  0.6007
18406TIP3   OH276708   5.584   1.945  15.101  0.2529 -0.1997 -0.3788
18406TIP3    H176709   5.556   1.945  15.193 -0.7324  1.7620 -0.6502
18406TIP3    H276710   5.505   1.928  15.051  0.7096 -0.8378 -0.8843
18407TIP3   OH276711   1.250   0.274   5.956 -0.5851  1.0611 -0.3130
18407TIP3    H176712   1.325   0.281   5.897  0.0946  0.4807  0.4684
18407TIP3    H276713   1.249   0.183   5.983 -1.0461  1.2631  0.3733
18408TIP3   OH276714   0.896   2.196   4.962 -0.5158 -0.5334 -0.2269
18408TIP3    H176715   0.840   2.272   4.946 -1.3082 -1.3114 -1.2309
18408TIP3    H276716   0.886   2.178   5.055  1.5944  2.0743  0.5866
18409TIP3   OH276717   4.096   1.547   4.282  0.0162  0.0939 -0.0190
18409TIP3    H176718   4.012   1.502   4.275  0.6391 -1.0787 -0.0818
18409TIP3    H276719   4.077   1.626   4.333 -1.1602 -0.0552 -0.2117
18410TIP3   OH276720   4.815   6.285   3.093  0.0901 -1.0948 -0.5953
18410TIP3    H176721   4.816   6.372   3.052 -0.8818 -1.1095 -0.6539
18410TIP3    H276722   4.723   6.260   3.095 -0.1043 -0.4402  2.9820
18411TIP3   OH276723   1.697   6.505  14.594 -0.3396 -0.1435 -0.0051
18411TIP3    H176724   1.719   6.453  14.672 -1.3969 -0.8962 -0.2066
18411TIP3    H276725   1.723   6.449  14.520 -1.3836 -0.3393 -0.2207
18412TIP3   OH276726   3.618   0.326   1.245  0.6002 -0.0645 -0.4358
18412TIP3    H176727   3.549   0.260   1.235  0.0686  0.3767  0.2887
18412TIP3    H276728   3.677   0.311   1.171 -1.8031  1.4020 -2.7475
18413TIP3   OH276729   0.889   0.120   3.361  0.1118 -0.2516  0.0099
18413TIP3    H176730   0.928   0.065   3.428 -0.3384 -1.2181 -0.5190
18413TIP3    H276731   0.963   0.167   3.322  0.4735 -0.3699  0.5492
18414TIP3   OH276732   4.029   0.148   3.277 -0.3260  0.1148 -0.2094
18414TIP3    H176733   4.027   0.244   3.268 -1.8102  0.5152  3.5405
18414TIP3    H276734   3.937   0.122   3.269 -0.1054 -0.8287  0.2665
18415TIP3   OH276735   2.147   6.136   2.494 -0.0451 -0.1674 -0.2862
18415TIP3    H176736   2.107   6.153   2.409 -1.7842 -2.4674 -0.0012
18415TIP3    H276737   2.193   6.052   2.483  3.4009  1.6195 -0.1327
18416TIP3   OH276738   0.171   0.022   5.223  0.5634 -0.0826 -0.1279
18416TIP3    H176739   0.224   0.011   5.301 -0.0709 -0.1576  0.2919
18416TIP3    H276740   0.192  -0.054   5.169  1.6175  0.3913 -0.3982
18417TIP3   OH276741   1.872   2.028   1.269  0.3431  0.3604  0.0860
18417TIP3    H176742   1.954   2.036   1.318  0.5020  0.7307 -0.2370
18417TIP3    H276743   1.831   1.948   1.303 -1.4734  2.7181  3.6089
18418TIP3   OH276744   5.904   3.625   4.337  0.2300  0.1421 -0.1040
18418TIP3    H176745   5.873   3.591   4.253 -1.0276  1.1484 -0.0625
18418TIP3    H276746   5.938   3.712   4.317  0.7784  0.0152  0.2737
18419TIP3   OH276747   2.569   2.987   1.719  0.2744 -0.4960  0.0001
18419TIP3    H176748   2.603   3.070   1.752 -1.6637  0.2201  0.2907
18419TIP3    H276749   2.582   2.925   1.791 -1.7284  0.4929  1.2606
18420TIP3   OH276750   1.295   4.973  13.584  0.5579 -0.0499  0.1362
18420TIP3    H176751   1.314   5.067  13.583  1.1867 -0.1749 -0.0062
18420TIP3    H276752   1.320   4.943  13.497 -1.7675  0.0503 -0.5860
18421TIP3   OH276753   6.115   1.581  16.784  0.1980 -0.0922  0.3817
18421TIP3    H176754   6.069   1.551  16.862  0.2950 -2.2228 -0.3304
18421TIP3    H276755   6.058   1.557  16.711  0.3995  1.2900 -0.2550
18422TIP3   OH276756   0.746   4.104  15.041 -0.4810  0.0591  0.2388
18422TIP3    H176757   0.708   4.068  15.120 -0.3657  0.9687  0.7218
18422TIP3    H276758   0.836   4.125  15.065 -0.0727 -0.8262 -0.4994
18423TIP3   OH276759   4.103   4.246   5.666 -0.2764 -0.3492  0.0720
18423TIP3    H176760   4.095   4.240   5.761  0.5842  0.5039  0.2019
18423TIP3    H276761   4.018   4.277   5.636 -1.6267 -3.6197  0.2585
18424TIP3   OH276762   2.800   4.000   3.658 -0.1846  0.4246 -0.0997
18424TIP3    H176763   2.828   3.923   3.707 -0.7005 -0.1772 -0.7425
18424TIP3    H276764   2.734   4.041   3.714  0.0236  0.3547  0.2014
18425TIP3   OH276765   5.198   3.120   3.668 -0.0057 -0.2067  0.4864
18425TIP3    H176766   5.111   3.148   3.639  0.2573  0.1600  0.0474
18425TIP3    H276767   5.227   3.190   3.726 -0.5788 -0.9938  1.7377
18426TIP3   OH276768   4.557   5.198  12.992  0.2756 -0.4412  0.4243
18426TIP3    H176769   4.610   5.275  13.011  0.0107  0.0725 -0.8698
18426TIP3    H276770   4.468   5.232  12.980  0.4278 -0.7278 -1.6979
18427TIP3   OH276771   3.804   5.997   2.256 -0.5058  0.5424  0.5446
18427TIP3    H176772   3.722   6.039   2.283 -1.6134  0.5919 -2.7129
18427TIP3    H276773   3.819   6.028   2.167  1.3719 -2.0130 -0.0903
18428TIP3   OH276774   4.466   2.141  13.809  0.4313  0.4820 -0.0104
18428TIP3    H176775   4.474   2.171  13.718 -1.8906  1.2190 -0.0058
18428TIP3    H276776   4.505   2.211  13.861  0.5864  0.6604 -0.3636
18429TIP3   OH276777   1.736   3.018  14.572 -0.0484 -0.3585  0.4725
18429TIP3    H176778   1.763   2.937  14.616  0.9109 -0.5760 -0.5033
18429TIP3    H276779   1.788   3.020  14.491  0.7691  1.8137  1.0257
18430TIP3   OH276780   4.623   2.014  14.383  0.4746  0.4089 -0.9101
18430TIP3    H176781   4.700   2.008  14.326  0.1194  0.0245 -1.3570
18430TIP3    H276782   4.555   1.966  14.336  0.4864 -0.8831  0.3698
18431TIP3   OH276783   0.834   2.749  13.205 -0.0462  0.5689 -0.2551
18431TIP3    H176784   0.781   2.795  13.140  0.2433  0.4327 -0.5871
18431TIP3    H276785   0.923   2.755  13.172  0.0803  0.3488  0.0448
18432TIP3   OH276786   3.614   4.249  12.086  0.0689 -0.0447  0.8214
18432TIP3    H176787   3.568   4.181  12.037  0.5306  1.3567 -1.6181
18432TIP3    H276788   3.548   4.318  12.100  0.0725 -0.2226  1.7658
18433TIP3   OH276789   5.994   2.420  13.596  0.2145 -0.1764  0.3972
18433TIP3    H176790   6.055   2.405  13.668 -3.1340 -1.9680  3.0450
18433TIP3    H276791   5.913   2.447  13.639 -1.4556  0.1611 -2.8168
18434TIP3   OH276792   6.120   6.294  17.286 -0.5969  0.4364  0.1154
18434TIP3    H176793   6.117   6.201  17.264  0.4275  0.1667  1.0557
18434TIP3    H276794   6.171   6.334  17.217 -0.8076  0.2595 -0.1429
18435TIP3   OH276795   4.802   1.282  12.745  0.1979  0.2312  0.1907
18435TIP3    H176796   4.795   1.285  12.650 -0.0227 -1.3277  0.1528
18435TIP3    H276797   4.733   1.340  12.776 -0.1081  0.2830 -0.5849
18436TIP3   OH276798   0.889   4.183   2.884  0.7495 -0.1556 -0.2607
18436TIP3    H176799   0.831   4.258   2.865 -0.6716 -0.6241  2.0210
18436TIP3    H276800   0.893   4.135   2.801 -0.1880  1.1967 -1.1242
18437TIP3   OH276801   2.532   1.362  13.818  0.3621 -0.3747 -0.3249
18437TIP3    H176802   2.539   1.347  13.912  0.0852  0.6790 -0.1331
18437TIP3    H276803   2.564   1.281  13.778  1.0095 -0.6142  0.6668
18438TIP3   OH276804   6.462   3.339   5.061  0.3879 -0.0763 -0.1654
18438TIP3    H176805   6.525   3.334   4.989  0.5929  1.1013 -0.0639
18438TIP3    H276806   6.424   3.426   5.055 -0.6125 -0.4628  0.3108
18439TIP3   OH276807   1.672   1.080   3.688  0.2260  0.8892  0.7154
18439TIP3    H176808   1.608   1.147   3.714  1.2577  1.7253  1.1535
18439TIP3    H276809   1.624   0.998   3.692 -0.7584  1.4806  1.2737
18440TIP3   OH276810   2.884   5.284   6.083  0.1438 -0.0013 -0.1323
18440TIP3    H176811   2.949   5.303   6.151  1.7431  0.5002 -1.7719
18440TIP3    H276812   2.807   5.255   6.132  1.2715  0.2958  1.8982
18441TIP3   OH276813   3.409   1.538   5.982 -0.2490 -0.2744 -0.0215
18441TIP3    H176814   3.481   1.477   5.965 -0.4637 -0.5087 -0.0956
18441TIP3    H276815   3.362   1.501   6.056 -0.0807  0.0691  0.2592
18442TIP3   OH276816   4.294   2.329   1.587  0.3663 -0.1429  0.1015
18442TIP3    H176817   4.304   2.308   1.494  1.2685  1.2274 -0.1404
18442TIP3    H276818   4.334   2.255   1.633 -2.8745 -2.3324 -0.4942
18443TIP3   OH276819   0.146   3.201   0.450 -0.5351 -0.1073  0.4192
18443TIP3    H176820   0.173   3.125   0.502 -1.2487  0.0980  1.0984
18443TIP3    H276821   0.174   3.276   0.501 -0.7951  0.0943  0.2655
18444TIP3   OH276822   2.740   6.471  14.438  0.4937 -0.5941  0.2231
18444TIP3    H176823   2.825   6.431  14.418  0.8921  0.7574 -0.8205
18444TIP3    H276824   2.692   6.466  14.356  1.0811  2.3768 -0.3417
18445TIP3   OH276825   2.630   0.788  10.762 -0.4448  0.3908 -0.3616
18445TIP3    H176826   2.570   0.802  10.835 -0.7116  0.6017 -0.6219
18445TIP3    H276827   2.661   0.875  10.738 -1.3585  0.4571 -1.3478
18446TIP3   OH276828   1.429   4.980  13.339  0.2004 -0.2886  0.0284
18446TIP3    H176829   1.340   4.976  13.303  0.6351 -1.9896 -0.9058
18446TIP3    H276830   1.479   5.030  13.275  0.0500  0.2001  0.2881
18447TIP3   OH276831   4.464   3.548  14.237  0.1716 -0.8266  0.3209
18447TIP3    H176832   4.440   3.637  14.210 -0.4143 -1.1571 -0.2525
18447TIP3    H276833   4.556   3.539  14.212 -0.0858 -0.7722 -0.6303
18448TIP3   OH276834   4.004   2.749  15.376  0.4718 -0.2104  0.6199
18448TIP3    H176835   3.927   2.706  15.339 -0.2283  2.3837 -1.0783
18448TIP3    H276836   4.079   2.703  15.338 -0.2457 -0.7015 -0.2081
18449TIP3   OH276837   2.251   4.102   2.250  0.3385 -0.3447 -0.1070
18449TIP3    H176838   2.161   4.123   2.226 -0.7479 -1.1117  2.9969
18449TIP3    H276839   2.256   4.123   2.344  2.7494 -2.3476  0.2583
18450TIP3   OH276840   6.692   0.480  10.769  0.2082 -0.2417 -0.1976
18450TIP3    H176841   6.735   0.395  10.776 -0.4551 -0.5988 -0.4151
18450TIP3    H276842   6.718   0.513  10.683  0.2167 -0.3584 -0.2390
18451TIP3   OH276843   1.837   0.548  12.097  0.3600 -0.0987 -0.3934
18451TIP3    H176844   1.865   0.602  12.023 -0.3316  0.1708 -0.4628
18451TIP3    H276845   1.754   0.511  12.069  0.1365 -0.0573  0.2210
18452TIP3   OH276846   5.071   0.264  14.785  0.0441 -0.0333  0.3168
18452TIP3    H176847   5.128   0.333  14.752  0.6440 -0.9813 -0.6593
18452TIP3    H276848   5.131   0.192  14.806 -0.5176 -0.0849  1.8232
18453TIP3   OH276849   1.658   0.537   3.943  0.2570 -0.2058  1.4627
18453TIP3    H176850   1.704   0.590   4.009  0.5561 -0.1388  1.1996
18453TIP3    H276851   1.657   0.592   3.865  2.9155 -1.6022  0.3822
18454TIP3   OH276852   1.402   1.756   1.090  0.4267  0.0484 -0.6125
18454TIP3    H176853   1.352   1.694   1.142  0.7503 -1.4593 -2.0555
18454TIP3    H276854   1.460   1.800   1.153 -2.3214  1.5077  1.0141
18455TIP3   OH276855   2.315   0.057  16.672 -0.1849  0.4158 -0.2978
18455TIP3    H176856   2.350   0.119  16.608 -1.6318 -0.1859 -1.7200
18455TIP3    H276857   2.220   0.066  16.664 -0.4320 -2.3911 -0.9756
18456TIP3   OH276858   1.160   3.964   2.862 -0.1558 -0.0992 -0.2761
18456TIP3    H176859   1.170   3.903   2.935 -2.3866  0.2675  0.4041
18456TIP3    H276860   1.073   3.945   2.827 -0.1428  1.4442 -1.2079
18457TIP3   OH276861   3.582   4.547   0.835  0.1941  0.4598  0.0637
18457TIP3    H176862   3.523   4.484   0.876  0.2795 -0.8199 -1.6898
18457TIP3    H276863   3.526   4.598   0.776  0.9410 -1.3950 -2.3259
18458TIP3   OH276864   5.553   2.090  14.040  0.6671  0.6603 -0.1863
18458TIP3    H176865   5.459   2.100  14.049  0.6108  0.6524 -0.7468
18458TIP3    H276866   5.569   2.089  13.945  1.1759  0.2208 -0.1044
18459TIP3   OH276867   6.286   4.128  13.172 -0.0867  0.0804  0.7594
18459TIP3    H176868   6.213   4.083  13.215  0.4836 -1.0352  0.5878
18459TIP3    H276869   6.263   4.125  13.079 -0.4038  0.8060  0.8126
18460TIP3   OH276870   4.017   0.790   3.275 -0.6594 -0.0379 -0.4943
18460TIP3    H176871   4.110   0.779   3.256 -0.7873 -0.6444 -0.7898
18460TIP3    H276872   4.013   0.802   3.370 -0.1006  2.0964 -0.7144
18461TIP3   OH276873   1.106   1.375   4.433  0.2454  0.4436 -0.1719
18461TIP3    H176874   1.066   1.289   4.444  1.1724  0.1996  1.5054
18461TIP3    H276875   1.110   1.410   4.522  0.0927  2.1341 -0.8101
18462TIP3   OH276876   6.489   6.514  12.189  0.2489  0.0242  0.0046
18462TIP3    H176877   6.440   6.472  12.119 -1.1584 -1.3563  1.7550
18462TIP3    H276878   6.537   6.442  12.231 -0.9731  0.3691  2.0697
18463TIP3   OH276879   1.666   4.517   5.873  0.1761  0.0904 -0.0817
18463TIP3    H176880   1.754   4.524   5.911  0.6979  0.5301 -1.3774
18463TIP3    H276881   1.676   4.456   5.800 -0.6473 -0.0144 -0.1136
18464TIP3   OH276882   4.322   5.776  14.671 -0.4891 -0.2637 -0.6467
18464TIP3    H176883   4.310   5.683  14.692  1.8108 -0.1438  1.4357
18464TIP3    H276884   4.373   5.776  14.590 -0.3532 -0.8366 -0.5613
18465TIP3   OH276885   0.225   6.202  11.546  0.0087  0.1183 -0.1898
18465TIP3    H176886   0.244   6.200  11.640  1.1937  0.7465 -0.4027
18465TIP3    H276887   0.168   6.127  11.532 -0.5268  0.2677  1.1052
18466TIP3   OH276888   3.020   0.897   3.099 -0.1091 -0.1235  0.2614
18466TIP3    H176889   3.056   0.816   3.062  0.9383 -1.2904  3.7117
18466TIP3    H276890   3.097   0.951   3.118 -0.8171  1.9586 -2.4580
18467TIP3   OH276891   6.485   0.713  12.727  0.7363 -0.2596  0.2062
18467TIP3    H176892   6.460   0.679  12.813  1.1691  0.9054  0.7989
18467TIP3    H276893   6.433   0.793  12.717  4.3171  2.3197  1.5433
18468TIP3   OH276894   3.836   2.119  12.696  0.1360  0.4588  0.4521
18468TIP3    H176895   3.778   2.181  12.652  0.9750 -0.2780 -1.7812
18468TIP3    H276896   3.916   2.169  12.714  0.4052  0.3229 -0.3580
18469TIP3   OH276897   4.156   5.264   4.418 -0.1739 -0.1859 -0.2494
18469TIP3    H176898   4.237   5.216   4.434  0.7018  1.4529  0.3459
18469TIP3    H276899   4.161   5.339   4.478 -2.0711 -0.0087 -0.2925
18470TIP3   OH276900   2.305   3.189   4.957  0.3859  0.3149 -0.1202
18470TIP3    H176901   2.386   3.229   4.988  1.1870  0.4945 -2.3639
18470TIP3    H276902   2.261   3.258   4.908 -1.7996  0.6252  2.1642
18471TIP3   OH276903   5.491   5.305   5.832  0.1464  0.6047  0.0787
18471TIP3    H176904   5.567   5.290   5.889 -1.0580 -1.8589  1.1071
18471TIP3    H276905   5.437   5.368   5.881 -0.1689 -0.3757  1.0182
18472TIP3   OH276906   5.744   6.702   0.925  0.4068  1.0056  0.2935
18472TIP3    H176907   5.708   6.645   0.993  0.0726 -0.7375 -1.3093
18472TIP3    H276908   5.667   6.737   0.880  0.6438  0.8587 -0.2294
18473TIP3   OH276909   1.908   3.583  15.677 -0.2049 -0.2465  0.2230
18473TIP3    H176910   1.868   3.546  15.599 -0.9629  0.2779  0.3614
18473TIP3    H276911   2.001   3.592  15.654 -0.3106 -0.6812 -0.3872
18474TIP3   OH276912   4.762   1.614  17.218  0.1525  0.2808  0.3643
18474TIP3    H176913   4.684   1.596  17.164 -0.7811  0.5484  1.6053
18474TIP3    H276914   4.825   1.546  17.193 -0.8812 -0.6129  0.1363
18475TIP3   OH276915   6.114   6.180  13.949 -0.0156  0.1238  0.3770
18475TIP3    H176916   6.071   6.219  13.873 -0.2367 -2.3759 -0.8420
18475TIP3    H276917   6.046   6.128  13.991  0.1920  1.2461  2.1403
18476TIP3   OH276918   1.323   3.001   2.881 -0.3810  0.5808 -0.0383
18476TIP3    H176919   1.251   2.943   2.858 -0.2627  0.2988  0.3043
18476TIP3    H276920   1.337   2.987   2.974 -1.0470  1.9450  0.2779
18477TIP3   OH276921   5.168   0.461   6.439  0.9642  0.0145 -0.1942
18477TIP3    H176922   5.077   0.455   6.409  0.7629  0.0918  0.3991
18477TIP3    H276923   5.219   0.419   6.369  0.4303 -0.4389 -0.3180
18478TIP3   OH276924   1.151   4.324  15.296 -0.0911 -0.1145 -0.1630
18478TIP3    H176925   1.215   4.388  15.265 -1.4061  0.1994 -2.3541
18478TIP3    H276926   1.170   4.314  15.389  2.0618  1.2045 -0.4272
18479TIP3   OH276927   2.335   5.760  13.892 -0.4624 -0.5373 -0.4773
18479TIP3    H176928   2.271   5.779  13.824 -1.6848  0.6513  0.9767
18479TIP3    H276929   2.420   5.770  13.848 -1.2048  1.6325 -1.4900
18480TIP3   OH276930   6.229   1.757  15.773  0.0098  0.1782 -0.2593
18480TIP3    H176931   6.294   1.687  15.760  2.1082  2.0117  0.0910
18480TIP3    H276932   6.276   1.825  15.822 -1.9587  1.8867 -0.6763
18481TIP3   OH276933   1.203   4.321  15.641 -0.1491 -0.2000 -0.4052
18481TIP3    H176934   1.281   4.267  15.636 -0.1675 -0.6104  2.9100
18481TIP3    H276935   1.229   4.398  15.692 -2.2706 -1.1358  2.2315
18482TIP3   OH276936   4.983   6.103   0.393  0.0825  0.2137 -0.1878
18482TIP3    H176937   5.023   6.017   0.390 -1.0395 -0.3518  0.5567
18482TIP3    H276938   5.049   6.159   0.434  1.4452  0.1001 -2.1554
18483TIP3   OH276939   5.602   3.687  16.155  0.7833 -0.0802 -0.1315
18483TIP3    H176940   5.592   3.643  16.239 -1.1606  1.1278  0.2867
18483TIP3    H276941   5.512   3.702  16.125  1.4510  0.6466 -1.8273
18484TIP3   OH276942   0.825   3.163   1.118  0.3056 -0.3858 -0.1690
18484TIP3    H176943   0.793   3.250   1.143 -1.8113 -0.9614 -0.7475
18484TIP3    H276944   0.784   3.104   1.181  1.1307 -1.0439 -0.2450
18485TIP3   OH276945   3.151   1.380   1.110  0.3496 -0.4663 -0.7501
18485TIP3    H176946   3.215   1.380   1.182  1.8098  0.2941 -2.0281
18485TIP3    H276947   3.170   1.300   1.061 -1.1198 -1.3587  0.0956
18486TIP3   OH276948   0.118   2.917   0.809  0.7639  0.2093  0.0945
18486TIP3    H176949   0.125   2.906   0.714  0.4909 -1.0937  0.2089
18486TIP3    H276950   0.051   2.853   0.835  1.9168 -0.5101  1.3544
18487TIP3   OH276951   0.064   1.485   5.254  0.3433 -0.5321  0.1946
18487TIP3    H176952   0.028   1.513   5.338  1.1995 -0.6566  0.6074
18487TIP3    H276953  -0.012   1.477   5.197 -0.0378  1.6341  0.3537
18488TIP3   OH276954   6.141   4.505  12.498 -0.2932  0.2639  0.1224
18488TIP3    H176955   6.184   4.501  12.583  0.0090  0.9151  0.0033
18488TIP3    H276956   6.047   4.510  12.518 -0.3557 -1.5696  0.3749
18489TIP3   OH276957   6.390   5.973   4.066  0.0316  0.4032  0.2808
18489TIP3    H176958   6.391   5.877   4.072  0.4553  0.4115  0.3594
18489TIP3    H276959   6.394   6.002   4.157 -1.3811  0.4951  0.3342
18490TIP3   OH276960   1.482   1.114  16.639  0.2637 -0.0583 -0.2306
18490TIP3    H176961   1.426   1.176  16.593  0.3087  1.9226  2.2621
18490TIP3    H276962   1.444   1.028  16.621 -3.1184  1.1553  0.7441
18491TIP3   OH276963   3.403   5.202   4.304 -1.0995 -0.4570 -0.4071
18491TIP3    H176964   3.398   5.228   4.212 -1.6964  0.8181 -0.0374
18491TIP3    H276965   3.388   5.108   4.304  1.5048 -0.9193 -1.8555
18492TIP3   OH276966   6.582   0.697  13.417 -0.1201 -0.4260 -0.5599
18492TIP3    H176967   6.646   0.769  13.419  1.8547 -2.1698  1.2696
18492TIP3    H276968   6.601   0.650  13.336  0.0312 -0.1509 -0.6834
18493TIP3   OH276969   0.907   6.605   6.166  0.4401 -0.2250  0.0723
18493TIP3    H176970   0.883   6.552   6.242  0.0929 -0.5873 -0.2962
18493TIP3    H276971   0.887   6.695   6.193  2.0653 -0.1513  1.1098
18494TIP3   OH276972   0.824   4.704   3.171 -0.5677 -0.1731 -0.4317
18494TIP3    H176973   0.762   4.773   3.146 -1.7678 -0.9603  0.3096
18494TIP3    H276974   0.830   4.710   3.267  1.0393  0.3345 -0.5454
18495TIP3   OH276975   3.650   2.660  11.421 -0.3337  0.4314  0.0023
18495TIP3    H176976   3.606   2.661  11.506  0.1374 -0.5710  0.2676
18495TIP3    H276977   3.593   2.711  11.363 -1.2913  0.0580  0.6077
18496TIP3   OH276978   2.978   0.673   5.255  0.2276  0.1892  0.8721
18496TIP3    H176979   3.026   0.618   5.317 -1.4075 -1.1258  1.0182
18496TIP3    H276980   2.907   0.617   5.223  0.5904  1.0842 -1.6465
18497TIP3   OH276981   4.059   3.095   1.918 -0.4204 -0.3352 -0.4594
18497TIP3    H176982   3.998   3.022   1.919 -0.3588 -0.3893 -0.7843
18497TIP3    H276983   4.016   3.162   1.972 -1.6003  0.3030 -2.1324
18498TIP3   OH276984   1.757   4.627  15.022  0.0994 -0.1309 -0.5012
18498TIP3    H176985   1.844   4.633  15.062 -0.5147  0.0742  0.8470
18498TIP3    H276986   1.738   4.715  14.992  0.1487 -0.0683 -0.3497
18499TIP3   OH276987   4.728   6.355  15.390  0.4201 -0.4948 -0.2479
18499TIP3    H176988   4.657   6.411  15.421 -0.4355 -1.1702 -0.9551
18499TIP3    H276989   4.684   6.277  15.355  1.5937 -1.6435  0.7723
18500TIP3   OH276990   5.243   6.787   4.583 -0.2015  0.3112  0.0834
18500TIP3    H176991   5.158   6.743   4.584  0.5121 -1.0988 -0.8074
18500TIP3    H276992   5.237   6.850   4.512  0.0894 -1.0019 -1.1270
18501TIP3   OH276993   1.806   3.325  15.044 -0.0294 -0.0425 -0.3349
18501TIP3    H176994   1.760   3.286  15.118 -0.3591  0.6505 -0.1718
18501TIP3    H276995   1.766   3.284  14.967 -0.4357  0.0280 -0.1662
18502TIP3   OH276996   3.894   2.168   3.496  0.0204  0.8148 -0.6927
18502TIP3    H176997   3.847   2.133   3.421 -0.4967  0.0447 -0.0280
18502TIP3    H276998   3.830   2.222   3.542 -0.5045 -0.9291  0.6882
18503TIP3   OH276999   6.085   5.515  11.734  0.0374 -0.3529 -0.1068
18503TIP3    H177000   6.068   5.482  11.822  2.2321 -2.0475 -0.2680
18503TIP3    H277001   6.020   5.472  11.679 -0.2690 -0.5814  0.4249
18504TIP3   OH277002   2.986   0.155  14.812  0.7091  0.2612 -0.1601
18504TIP3    H177003   3.069   0.168  14.766  0.4723 -0.0071 -0.6700
18504TIP3    H277004   3.005   0.179  14.902  1.5980 -0.6907 -0.0829
18505TIP3   OH277005   2.040   4.128  12.104  0.8926 -0.0737 -0.3606
18505TIP3    H177006   2.117   4.130  12.162  0.2785  0.4858  0.4465
18505TIP3    H277007   1.965   4.134  12.163  0.2499  0.4840 -1.2251
18506TIP3   OH277008   2.336   2.168  15.736  0.2499 -0.1839 -0.1973
18506TIP3    H177009   2.411   2.210  15.779  0.6239 -0.8663 -0.1678
18506TIP3    H277010   2.358   2.171  15.642 -0.4434  1.0678 -0.3277
18507TIP3   OH277011   6.152   1.279  15.466  0.8803 -0.2550 -0.0139
18507TIP3    H177012   6.148   1.278  15.370  1.6957  0.4096 -0.0622
18507TIP3    H277013   6.165   1.188  15.490  2.4351 -0.2186 -0.6394
18508TIP3   OH277014   1.156   4.634  16.906 -0.3533 -0.0306 -0.1480
18508TIP3    H177015   1.238   4.656  16.950 -0.8876  1.7063  0.0131
18508TIP3    H277016   1.148   4.697  16.835 -1.5999 -0.1180 -0.1131
18509TIP3   OH277017   1.376   3.059  10.809  0.6932 -0.0641  0.3645
18509TIP3    H177018   1.439   3.126  10.837  2.3487 -1.0899 -0.7915
18509TIP3    H277019   1.325   3.039  10.887  0.7668  1.9151  0.9356
18510TIP3   OH277020   5.507   5.845   0.287  0.3133 -0.2236 -0.6404
18510TIP3    H177021   5.441   5.835   0.356  2.8331 -0.9151  1.7805
18510TIP3    H277022   5.564   5.914   0.318  1.6400 -0.7039 -1.9390
18511TIP3   OH277023   6.577   1.244  12.996 -0.2030  0.1647  0.0396
18511TIP3    H177024   6.500   1.297  13.017 -0.0754  0.2049  0.4151
18511TIP3    H277025   6.541   1.159  12.971 -0.3443 -0.0651  0.9780
18512TIP3   OH277026   3.194   1.838  15.939 -0.6590  0.2143 -0.2867
18512TIP3    H177027   3.233   1.783  16.006  0.8904 -1.6156 -2.5929
18512TIP3    H277028   3.228   1.926  15.957 -0.2063 -0.2667  1.2506
18513TIP3   OH277029   3.500   1.181  16.320  0.0332  0.6130 -0.0913
18513TIP3    H177030   3.417   1.157  16.362 -0.8093  0.1467 -1.9467
18513TIP3    H277031   3.476   1.252  16.260  1.0070  0.5680 -0.5458
18514TIP3   OH277032   6.507   2.770  12.914 -0.5264 -0.2674  0.0705
18514TIP3    H177033   6.592   2.812  12.906 -0.6281 -0.3394 -1.4747
18514TIP3    H277034   6.444   2.838  12.890 -0.9313 -0.1530  1.4004
18515TIP3   OH277035   6.725   5.919  12.204  0.4785  0.5269 -0.1688
18515TIP3    H177036   6.716   5.972  12.125  0.6635 -0.8473 -1.1325
18515TIP3    H277037   6.635   5.912  12.238 -0.3823 -2.8405 -2.9223
18516TIP3   OH277038   6.133   2.972  14.695 -0.6188  0.5505  0.4268
18516TIP3    H177039   6.045   3.007  14.712 -0.5964  0.6541  0.3306
18516TIP3    H277040   6.191   3.047  14.703 -0.7507  0.8671 -1.3920
18517TIP3   OH277041   0.143   2.839   5.230 -0.4605 -0.6850 -0.5066
18517TIP3    H177042   0.060   2.795   5.208 -0.8265 -0.7450  0.9775
18517TIP3    H277043   0.121   2.932   5.226 -0.7450 -0.7065  0.3939
18518TIP3   OH277044   6.778   2.051  15.260 -0.3002 -0.0698 -0.3408
18518TIP3    H177045   6.860   2.005  15.242 -0.4013  0.0544 -1.1440
18518TIP3    H277046   6.712   2.003  15.210 -0.6542  0.0511  0.0054
18519TIP3   OH277047   6.441   3.095  16.507  0.0958  0.3109 -0.7514
18519TIP3    H177048   6.485   3.041  16.441 -1.5969  0.9686 -2.4909
18519TIP3    H277049   6.350   3.101  16.476 -0.1429  2.7486  0.2888
18520TIP3   OH277050   4.312   0.240   0.389  0.2723 -0.1854 -0.3270
18520TIP3    H177051   4.262   0.166   0.354  1.2613  0.2185 -2.6831
18520TIP3    H277052   4.373   0.200   0.451  1.0145 -1.3967 -1.8173
18521TIP3   OH277053   1.887   1.254   5.147 -0.2074  0.0777  0.1758
18521TIP3    H177054   1.968   1.210   5.124 -0.3498 -0.3725  0.5262
18521TIP3    H277055   1.821   1.185   5.146 -0.9452  0.7434 -1.9394
18522TIP3   OH277056   5.274   5.667  14.015  0.2559 -0.6085  0.3244
18522TIP3    H177057   5.201   5.706  13.965  0.6537 -0.0531  0.1666
18522TIP3    H277058   5.348   5.725  13.997  0.9774 -1.7071 -0.2758
18523TIP3   OH277059   0.614   1.065   0.517  0.5435  0.6553 -0.4074
18523TIP3    H177060   0.621   0.972   0.499  0.9374  0.7546 -0.7659
18523TIP3    H277061   0.627   1.108   0.432 -0.6522  0.9985 -0.4313
18524TIP3   OH277062   1.050   1.702  13.547 -0.2869 -0.1110 -0.0233
18524TIP3    H177063   1.124   1.736  13.496 -0.6619  2.9703  1.3787
18524TIP3    H277064   1.091   1.664  13.625  0.0480 -2.0020 -1.0741
18525TIP3   OH277065   0.710   0.505   4.127 -0.0570 -0.1916  0.0578
18525TIP3    H177066   0.661   0.497   4.045 -1.9509  1.2760  1.0335
18525TIP3    H277067   0.798   0.473   4.104 -1.5177 -3.3023 -1.5760
18526TIP3   OH277068   0.698   3.543   4.785 -0.2919 -0.1819 -0.3471
18526TIP3    H177069   0.717   3.455   4.816  1.0605  0.1811 -0.0904
18526TIP3    H277070   0.688   3.595   4.865 -0.5990 -0.0116 -0.4973
18527TIP3   OH277071   3.909   6.507  13.754 -0.0351 -0.2450  0.1141
18527TIP3    H177072   3.872   6.585  13.794 -1.3549 -0.9641  0.3042
18527TIP3    H277073   3.998   6.533  13.730 -0.8996  1.7533 -1.0787
18528TIP3   OH277074   6.566   2.972  16.305  0.1261 -0.3000 -0.0582
18528TIP3    H177075   6.606   3.014  16.228 -1.2815 -1.4345 -1.4251
18528TIP3    H277076   6.613   2.889  16.314  1.6546  0.6913  1.5501
18529TIP3   OH277077   5.728   1.132  14.671  0.1312  0.7589 -0.2597
18529TIP3    H177078   5.772   1.065  14.620  0.9499  0.6984  0.5193
18529TIP3    H277079   5.798   1.188  14.703 -0.2169 -0.1484  2.1572
18530TIP3   OH277080   2.111   0.121  11.934 -0.3345  0.3065 -0.4152
18530TIP3    H177081   2.154   0.206  11.923  0.2228  0.1524  0.4793
18530TIP3    H277082   2.165   0.075  11.998 -2.2440  0.4040  1.3306
18531TIP3   OH277083   0.245   3.529  12.807 -0.3004 -0.1202 -0.3796
18531TIP3    H177084   0.156   3.500  12.788 -0.1802 -0.5377 -0.2926
18531TIP3    H277085   0.297   3.449  12.809 -0.2291 -0.0332  1.2513
18532TIP3   OH277086   4.438   4.116   5.034  0.4569  0.6216 -0.5551
18532TIP3    H177087   4.390   4.094   5.114  2.1213 -0.6049  0.1449
18532TIP3    H277088   4.530   4.108   5.059  1.0178  2.1753 -2.0810
18533TIP3   OH277089   4.877   5.568   2.389 -0.3818  0.0816  0.0765
18533TIP3    H177090   4.972   5.563   2.382 -0.0761  1.0473  2.9264
18533TIP3    H277091   4.846   5.569   2.298  2.2751 -0.8886 -0.8699
18534TIP3   OH277092   0.087   4.944  14.446  0.4190  0.1080 -0.3296
18534TIP3    H177093   0.005   4.992  14.440 -0.7576 -1.7521  0.3675
18534TIP3    H277094   0.061   4.855  14.470  2.6609 -0.4212  0.2763
18535TIP3   OH277095   2.879   6.255  15.339  0.3116 -0.0072 -0.0575
18535TIP3    H177096   2.923   6.314  15.400  1.0477 -0.0100 -0.5801
18535TIP3    H277097   2.860   6.309  15.263  0.0815 -0.1960 -0.1352
18536TIP3   OH277098   3.292   2.583   6.151  0.4035 -0.1197  0.0500
18536TIP3    H177099   3.204   2.603   6.120 -0.1137 -2.7639 -0.3305
18536TIP3    H277100   3.279   2.528   6.227  1.7339 -0.1547  0.2771
18537TIP3   OH277101   3.811   3.066   2.226  0.0033 -0.6590  0.0016
18537TIP3    H177102   3.740   3.127   2.242 -0.2659 -0.7418 -0.8885
18537TIP3    H277103   3.863   3.068   2.307 -0.7300 -0.2363  0.4602
18538TIP3   OH277104   4.929   5.268  11.337 -0.3519 -0.3532 -0.2840
18538TIP3    H177105   5.016   5.230  11.323 -0.0649  0.4709 -0.7751
18538TIP3    H277106   4.907   5.244  11.427  1.7669  2.1177  0.9755
18539TIP3   OH277107   1.953   5.594   6.497 -0.7543 -0.4754  0.0431
18539TIP3    H177108   1.890   5.522   6.501 -1.8567  0.5121  0.8219
18539TIP3    H277109   2.036   5.553   6.519 -1.6526 -1.1926  2.2271
18540TIP3   OH277110   5.357   3.281  16.880 -0.0789  0.5082  0.2675
18540TIP3    H177111   5.409   3.289  16.960  0.2398 -0.1862  0.1301
18540TIP3    H277112   5.404   3.218  16.826 -1.1854 -0.3301  0.2512
18541TIP3   OH277113   4.613   3.988   2.255 -0.0360  0.4035  0.2324
18541TIP3    H177114   4.548   3.920   2.239 -1.0467  0.7848  2.6126
18541TIP3    H277115   4.688   3.941   2.292  0.0628  0.3091 -0.0868
18542TIP3   OH277116   3.926   5.319  11.514  1.1450  0.6681  0.2657
18542TIP3    H177117   3.956   5.352  11.429  0.7036 -3.1370 -1.4526
18542TIP3    H277118   3.837   5.353  11.524  0.0950 -1.2711 -2.2100
18543TIP3   OH277119   6.488   2.741  14.877 -0.5123 -0.1117  0.3085
18543TIP3    H177120   6.485   2.826  14.922  1.4436  0.6319 -0.9243
18543TIP3    H277121   6.544   2.687  14.932 -0.2811 -0.0430  0.1378
18544TIP3   OH277122   2.588   5.480   5.134 -0.0128  0.5121  0.0179
18544TIP3    H177123   2.638   5.509   5.211 -1.1273  1.2934  0.4549
18544TIP3    H277124   2.527   5.552   5.117 -0.9905 -0.4449 -0.5264
18545TIP3   OH277125   1.846   3.873   1.738 -0.2616  0.6190  0.0061
18545TIP3    H177126   1.938   3.896   1.754  0.1522 -0.8881 -0.0665
18545TIP3    H277127   1.836   3.879   1.643  0.7238 -2.4225 -0.3709
18546TIP3   OH277128   2.532   4.598   3.711  0.1309  0.5794 -0.0551
18546TIP3    H177129   2.551   4.504   3.710 -1.0377  0.3343 -0.7844
18546TIP3    H277130   2.437   4.603   3.707  0.1257  1.7952  1.2672
18547TIP3   OH277131   5.289   4.911  16.494  0.0508  0.1812  0.0197
18547TIP3    H177132   5.319   4.952  16.575 -0.0696 -0.5525  0.4462
18547TIP3    H277133   5.315   4.972  16.425 -1.5331  1.7648  0.7597
18548TIP3   OH277134   5.650   3.929   2.434  0.1768  0.2722  0.7690
18548TIP3    H177135   5.690   3.848   2.466  0.1987 -0.4259 -0.9449
18548TIP3    H277136   5.697   3.999   2.479  1.1855 -0.6281  1.1345
18549TIP3   OH277137   4.545   0.701   0.944 -0.1057 -0.1017  0.1827
18549TIP3    H177138   4.629   0.746   0.953  1.0539 -1.8827 -1.3501
18549TIP3    H277139   4.539   0.645   1.022 -0.4585  0.9299  0.9083
18550TIP3   OH277140   3.423   6.018  11.984 -0.0299 -0.0625  0.4456
18550TIP3    H177141   3.354   5.961  11.950  0.1004 -0.0829  0.2182
18550TIP3    H277142   3.484   6.028  11.911  0.0225  0.2476  0.5320
18551TIP3   OH277143   5.983   3.007   5.455 -0.0766 -0.4496 -0.3783
18551TIP3    H177144   5.888   3.002   5.455 -0.0398 -1.8047 -1.9924
18551TIP3    H277145   6.008   2.998   5.363  1.4747  3.9143 -0.4913
18552TIP3   OH277146   3.993   3.891  15.085  0.2220  0.5275 -0.0779
18552TIP3    H177147   3.944   3.916  15.163  0.4399  1.4229 -0.2238
18552TIP3    H277148   3.960   3.804  15.063  1.1300 -0.2991  1.7963
18553TIP3   OH277149   0.081   3.994   3.822  0.4298  1.1580  0.4521
18553TIP3    H177150   0.047   4.083   3.830  0.3094  1.2395 -0.8826
18553TIP3    H277151   0.170   4.005   3.791  0.8473  0.8522  1.5379
18554TIP3   OH277152   3.008   1.664   0.238  1.0529 -0.2697  0.3891
18554TIP3    H177153   3.090   1.630   0.274  0.2790 -1.3594  1.1718
18554TIP3    H277154   3.019   1.658   0.143  2.0628  0.0518  0.4821
18555TIP3   OH277155   0.559   5.943   0.785 -0.1194 -0.0181  0.3287
18555TIP3    H177156   0.469   5.941   0.752  0.5124 -1.1714 -1.3891
18555TIP3    H277157   0.557   5.886   0.861 -0.5879 -1.0045 -0.4050
18556TIP3   OH277158   5.719   0.378   5.092 -0.6555 -0.0487  0.4020
18556TIP3    H177159   5.688   0.468   5.091 -1.1363 -0.2146  0.3090
18556TIP3    H277160   5.741   0.359   5.001 -0.4468  0.0078  0.4386
18557TIP3   OH277161   0.031   4.806   6.690 -0.6188 -0.1954 -0.0808
18557TIP3    H177162   0.027   4.871   6.619 -0.8573  0.3038  0.3830
18557TIP3    H277163   0.022   4.722   6.645 -1.4136  0.1485 -0.5838
18558TIP3   OH277164   3.308   3.545  14.969 -0.2708  0.6058 -0.2114
18558TIP3    H177165   3.387   3.500  14.938 -0.7055  1.0042 -1.9288
18558TIP3    H277166   3.311   3.630  14.925 -1.2936  0.8865  0.2716
18559TIP3   OH277167   3.580   5.799   1.799 -0.6647  0.0089  0.3380
18559TIP3    H177168   3.600   5.709   1.772 -1.7114 -0.0172 -0.3910
18559TIP3    H277169   3.527   5.834   1.728  1.6766  2.0070 -0.5022
18560TIP3   OH277170   1.058   4.302   2.633  0.3334  0.0542  0.5185
18560TIP3    H177171   1.021   4.345   2.555  0.2921 -1.1242 -0.1202
18560TIP3    H277172   0.993   4.237   2.658  2.0421 -2.2606 -0.8074
18561TIP3   OH277173   6.642   4.447  15.084 -0.0503 -0.6571  0.5713
18561TIP3    H177174   6.699   4.521  15.066 -0.6374  0.0393  1.5407
18561TIP3    H277175   6.623   4.410  14.998 -0.7672  1.0837 -0.0520
18562TIP3   OH277176   0.575   2.850  10.882 -0.0159  0.6720  0.5863
18562TIP3    H177177   0.501   2.910  10.872 -0.6075  0.2172  2.0938
18562TIP3    H277178   0.548   2.789  10.951  1.5015  0.0905  0.7014
18563TIP3   OH277179   3.624   0.806  12.596  0.0334  0.5399  0.1671
18563TIP3    H177180   3.715   0.827  12.576  0.0999  1.2916  1.2017
18563TIP3    H277181   3.596   0.747  12.525  1.2706  0.4288 -0.2331
18564TIP3   OH277182   3.360   0.407  16.952 -0.1873  0.4958 -0.4235
18564TIP3    H177183   3.376   0.498  16.979 -1.6055  0.6635 -0.1081
18564TIP3    H277184   3.298   0.415  16.879 -1.8119 -0.3000  0.8349
18565TIP3   OH277185   3.736   2.181   4.132 -0.0793  0.2792 -0.4884
18565TIP3    H177186   3.710   2.219   4.048  0.7850  1.0192 -0.4213
18565TIP3    H277187   3.831   2.178   4.129 -0.0757 -0.4414  0.1428
18566TIP3   OH277188   0.264   1.761  16.918 -0.3356  0.1580 -0.2955
18566TIP3    H177189   0.201   1.692  16.938 -1.0050  0.8610  0.0188
18566TIP3    H277190   0.212   1.832  16.881  0.8023 -0.8248 -3.9525
18567TIP3   OH277191   6.021   0.333  15.736  0.3215 -0.6241  0.1762
18567TIP3    H177192   6.003   0.246  15.770 -0.6603 -1.3570 -2.1151
18567TIP3    H277193   6.116   0.334  15.722 -0.0151 -2.5155 -2.7396
18568TIP3   OH277194   2.158   2.064   4.597 -0.0625 -0.3371 -0.3702
18568TIP3    H177195   2.127   1.999   4.659  0.1011 -0.3961 -0.3495
18568TIP3    H277196   2.115   2.041   4.514 -0.3406 -0.2109 -0.2610
18569TIP3   OH277197   2.459   4.943   0.211  0.0048 -0.3288 -0.2647
18569TIP3    H177198   2.545   4.948   0.252 -0.1225  1.0880 -0.1278
18569TIP3    H277199   2.466   4.999   0.134 -1.2078  1.0095  0.5618
18570TIP3   OH277200   6.809   1.336  11.569 -0.4077 -0.6630 -0.2725
18570TIP3    H177201   6.887   1.390  11.581 -0.8556  0.0318 -0.4484
18570TIP3    H277202   6.766   1.372  11.492 -3.1974  1.7756  2.2743
18571TIP3   OH277203   0.509   1.390   4.186  0.5813 -0.4720  0.4140
18571TIP3    H177204   0.557   1.421   4.263 -0.0607 -0.2015  0.7083
18571TIP3    H277205   0.553   1.432   4.112  1.7193 -1.3936  0.5657
18572TIP3   OH277206   2.282   0.899  11.976  0.0002 -0.1389 -0.1842
18572TIP3    H177207   2.191   0.869  11.976  0.6377 -2.1370 -0.8942
18572TIP3    H277208   2.327   0.843  11.913  1.7674  0.7411  0.2366
18573TIP3   OH277209   2.069   5.438  13.977 -0.5310 -0.1249  0.0563
18573TIP3    H177210   1.994   5.384  13.952 -1.3763  1.6259 -1.3044
18573TIP3    H277211   2.032   5.525  13.992  1.2146  0.7842 -0.6840
18574TIP3   OH277212   4.551   0.771  14.705  0.1805  0.3307 -0.2732
18574TIP3    H177213   4.540   0.813  14.620  1.0464 -0.7199 -0.9054
18574TIP3    H277214   4.541   0.677  14.688 -2.6477  0.2705  1.2746
18575TIP3   OH277215   6.038   5.226  12.327 -0.2372  0.0339 -0.2627
18575TIP3    H177216   6.061   5.139  12.359  0.8553  0.2170 -0.5266
18575TIP3    H277217   6.120   5.262  12.294 -1.0144  0.4982 -1.7464
18576TIP3   OH277218   0.052   6.263   6.990  0.0872  0.2556  0.4243
18576TIP3    H177219  -0.022   6.276   6.930 -0.2285 -0.3017  0.6857
18576TIP3    H277220   0.012   6.260   7.077  0.5597  1.1907  0.6791
18577TIP3   OH277221   5.962   6.013   3.113  0.0706 -0.0870 -0.0476
18577TIP3    H177222   5.980   5.922   3.134  1.4698 -0.5547 -3.0269
18577TIP3    H277223   6.022   6.064   3.168 -0.2433 -0.9687  1.1206
18578TIP3   OH277224   5.239   0.332  14.205 -0.0373  0.4723 -0.3595
18578TIP3    H177225   5.294   0.291  14.272  1.5986  1.7820 -0.8618
18578TIP3    H277226   5.150   0.304  14.226  0.4663  0.7630  2.2933
18579TIP3   OH277227   2.057   0.170   1.839 -0.5189 -0.2688  0.1797
18579TIP3    H177228   2.037   0.198   1.750 -3.3458 -2.0589  0.1901
18579TIP3    H277229   2.015   0.235   1.895 -1.6205 -0.9791  0.1912
18580TIP3   OH277230   5.855   2.252   0.615  0.5560 -0.0324  0.3979
18580TIP3    H177231   5.902   2.334   0.629 -1.5463  1.8539 -2.9625
18580TIP3    H277232   5.766   2.270   0.645 -0.0463 -0.9048 -0.8425
18581TIP3   OH277233   5.827   1.812  16.651  0.3910  0.2618 -0.0621
18581TIP3    H177234   5.785   1.835  16.568 -0.8312  0.9255  0.7425
18581TIP3    H277235   5.921   1.817  16.632  0.1556  3.0788 -0.6822
18582TIP3   OH277236   1.520   5.330  13.949 -0.1884  0.6069 -0.1446
18582TIP3    H177237   1.593   5.381  13.915 -0.5647  1.6937  0.6379
18582TIP3    H277238   1.530   5.244  13.909  2.2673  0.3354  0.9418
18583TIP3   OH277239   3.663   2.780  12.323  0.6001 -0.0894  0.5115
18583TIP3    H177240   3.636   2.775  12.415  2.3450  0.7612  1.0939
18583TIP3    H277241   3.756   2.805  12.327  1.0559 -1.3832 -1.4538
18584TIP3   OH277242   0.938   4.585   2.953  0.1894 -0.4402  0.3161
18584TIP3    H177243   0.903   4.599   3.041 -0.8936 -1.1792  0.0085
18584TIP3    H277244   0.987   4.503   2.960 -1.5228 -1.5147 -0.2451
18585TIP3   OH277245   0.779   3.776  14.879  0.5831  0.0649  0.0472
18585TIP3    H177246   0.751   3.688  14.852  2.4424 -0.2561 -0.9332
18585TIP3    H277247   0.705   3.832  14.859  0.0375 -1.0125 -1.0122
18586TIP3   OH277248   1.420   6.775   0.330  0.2666  0.3379 -0.3093
18586TIP3    H177249   1.479   6.811   0.396 -0.8708 -1.0753  1.5606
18586TIP3    H277250   1.369   6.710   0.378 -2.1361  0.8543 -2.0988
18587TIP3   OH277251   2.543   0.289  14.617  0.0083  0.5762  0.0873
18587TIP3    H177252   2.450   0.281  14.637  0.0859  0.5860  0.4493
18587TIP3    H277253   2.587   0.252  14.693  0.2884 -0.0885 -0.3964
18588TIP3   OH277254   2.062   4.940   3.475 -0.3947  0.2834 -0.3612
18588TIP3    H177255   2.029   4.881   3.407  1.1598 -2.2722  1.0218
18588TIP3    H277256   2.143   4.976   3.437 -0.2579 -0.0747 -0.4165
18589TIP3   OH277257   5.509   3.946   1.020 -0.2775  0.1200  0.1793
18589TIP3    H177258   5.573   3.946   1.092  0.4282 -1.7191 -0.4225
18589TIP3    H277259   5.426   3.965   1.063  0.2979  0.1237  1.3230
18590TIP3   OH277260   3.546   1.362   3.707 -0.6563  0.5073 -0.0600
18590TIP3    H177261   3.555   1.269   3.686  2.4366  0.6922  0.2390
18590TIP3    H277262   3.540   1.365   3.802 -0.5846  0.6189 -0.0583
18591TIP3   OH277263   6.706   2.570  17.195  0.1609 -0.0370  0.4755
18591TIP3    H177264   6.801   2.569  17.200  0.2579  1.1843 -0.8226
18591TIP3    H277265   6.682   2.663  17.194 -0.8486 -0.2862 -2.0163
18592TIP3   OH277266   0.906   6.152   4.607 -0.6871  0.4848 -0.3161
18592TIP3    H177267   0.899   6.146   4.702  1.1020 -1.1660 -0.2302
18592TIP3    H277268   0.994   6.187   4.592 -0.1332 -1.2431 -1.3410
18593TIP3   OH277269   2.487   0.739   3.580  0.2543  0.6547  0.3312
18593TIP3    H177270   2.574   0.756   3.544  0.1107  0.8148  0.0615
18593TIP3    H277271   2.463   0.820   3.625 -0.5996  1.3356 -1.2946
18594TIP3   OH277272   0.974   1.027   6.039 -0.3491  0.0778  0.7935
18594TIP3    H177273   0.902   1.010   5.978 -0.7447 -0.0616  1.2923
18594TIP3    H277274   0.933   1.023   6.125  0.0825  0.9350  1.0391
18595TIP3   OH277275   0.168   4.053   0.021  0.0635  0.7629 -0.1987
18595TIP3    H177276   0.264   4.051   0.023  0.1039  1.0308 -1.6661
18595TIP3    H277277   0.143   3.981  -0.037 -0.7631 -1.4588  2.8003
18596TIP3   OH277278   6.064   1.994   2.878 -0.6501 -0.0629  0.1412
18596TIP3    H177279   6.014   1.934   2.822 -2.1256 -0.2529  1.6216
18596TIP3    H277280   6.100   2.059   2.817 -1.2174 -0.9481 -1.1697
18597TIP3   OH277281   3.012   3.325  13.421  0.3316 -0.0361 -0.3821
18597TIP3    H177282   3.027   3.294  13.510 -1.1785 -0.2479 -0.1893
18597TIP3    H277283   3.086   3.384  13.404 -0.2348  1.3390  1.6375
18598TIP3   OH277284   2.688   0.651  11.293 -0.2748 -0.2948  0.7436
18598TIP3    H177285   2.702   0.721  11.229  0.8898 -1.0938  0.0862
18598TIP3    H277286   2.675   0.572  11.239 -0.8242 -0.7045  1.4773
18599TIP3   OH277287   0.238   0.749  11.401 -0.0832  0.0094  0.6118
18599TIP3    H177288   0.307   0.749  11.467  1.2608 -0.5668 -0.7726
18599TIP3    H277289   0.218   0.842  11.387  2.7267  0.3677 -1.3269
18600TIP3   OH277290   0.721   3.774  12.295  0.3637 -0.5421 -0.0509
18600TIP3    H177291   0.638   3.747  12.257  0.2279  0.5398 -0.5346
18600TIP3    H277292   0.697   3.821  12.375  0.5291 -0.5941  0.0289
18601TIP3   OH277293   1.298   2.399   5.028  0.3212 -0.0405  0.3533
18601TIP3    H177294   1.232   2.428   5.091 -0.6104 -0.6249 -0.3466
18601TIP3    H277295   1.359   2.346   5.080  0.0682  0.2383  0.9397
18602TIP3   OH277296   3.307   3.712  11.961  0.0237 -0.0918  0.2904
18602TIP3    H177297   3.213   3.695  11.955  0.0268  0.4472 -1.4972
18602TIP3    H277298   3.321   3.787  11.904  1.6149 -0.4316  0.2281
18603TIP3   OH277299   6.017   1.125   3.049 -0.0655  0.1987  0.1145
18603TIP3    H177300   6.084   1.191   3.070 -0.1338  0.0912  0.6759
18603TIP3    H277301   5.937   1.176   3.038  0.5630  0.6227 -3.0075
18604TIP3   OH277302   3.696   3.143  13.476 -0.4815  0.8630  0.7794
18604TIP3    H177303   3.730   3.194  13.550  1.3755  0.7046  0.0737
18604TIP3    H277304   3.775   3.111  13.432 -1.5550  1.4735 -1.6361
18605TIP3   OH277305   3.869   6.521   5.555 -0.1064 -0.1342 -0.0535
18605TIP3    H177306   3.821   6.469   5.490 -2.6783  0.1666  1.5279
18605TIP3    H277307   3.815   6.516   5.634  1.5068  1.8512  1.2256
18606TIP3   OH277308   1.465   0.159  11.838  0.6940  0.9139  0.0747
18606TIP3    H177309   1.507   0.117  11.913  0.7791 -0.3815 -0.6821
18606TIP3    H277310   1.407   0.225  11.877  1.2459  0.7298  1.2450
18607TIP3   OH277311   0.551   1.163   0.757  0.2915  0.6443  0.4088
18607TIP3    H177312   0.566   1.123   0.671 -0.3213  0.3518  0.4393
18607TIP3    H277313   0.639   1.171   0.795  0.2853 -2.1490  1.0653
18608TIP3   OH277314   0.236   1.107  16.642 -0.2264 -0.7257 -0.3914
18608TIP3    H177315   0.172   1.121  16.573 -0.1843  0.7526 -0.1501
18608TIP3    H277316   0.283   1.190  16.648  0.5588 -1.2313  0.6021
18609TIP3   OH277317   3.717   5.737   2.798  0.8813 -0.0194  0.0316
18609TIP3    H177318   3.756   5.785   2.870 -0.0269 -1.4476  1.5095
18609TIP3    H277319   3.742   5.646   2.813  0.6994 -0.3441 -1.4718
18610TIP3   OH277320   1.411   4.157   2.279 -0.0820  0.5620  0.2698
18610TIP3    H177321   1.493   4.109   2.264  0.2939  0.6889  1.8881
18610TIP3    H277322   1.374   4.168   2.191  0.4528 -1.5814 -0.2660
18611TIP3   OH277323   1.660   2.394   0.989  0.1576 -0.3995 -0.4923
18611TIP3    H177324   1.679   2.317   1.043 -1.6976 -0.5899 -0.0550
18611TIP3    H277325   1.670   2.362   0.899 -0.4148 -1.1135 -0.3102
18612TIP3   OH277326   2.881   6.736  11.285 -0.2362 -0.2066 -0.1851
18612TIP3    H177327   2.918   6.822  11.266 -0.5296 -0.1756 -0.6222
18612TIP3    H277328   2.867   6.696  11.199 -0.9324 -0.3319 -0.0153
18613TIP3   OH277329   6.736   1.074   5.481 -0.2463 -0.1148  0.0563
18613TIP3    H177330   6.743   1.152   5.537 -0.1468 -0.7258  0.9003
18613TIP3    H277331   6.826   1.042   5.473  0.0764  1.2031 -2.2580
18614TIP3   OH277332   1.017   4.881  17.076 -0.3919 -0.2114  0.3727
18614TIP3    H177333   0.994   4.972  17.097 -0.7537 -0.1054 -0.4598
18614TIP3    H277334   1.022   4.879  16.981  0.4546 -0.8705  0.4198
18615TIP3   OH277335   4.089   2.240  15.690 -0.1055 -0.2733  0.0716
18615TIP3    H177336   4.069   2.333  15.681  0.9952 -0.0566 -0.2383
18615TIP3    H277337   4.029   2.209  15.757 -0.9407  0.5105 -0.2953
18616TIP3   OH277338   5.642   1.083   0.302 -0.0561 -0.2857 -0.1645
18616TIP3    H177339   5.585   1.065   0.376  0.5533 -0.5227  0.2554
18616TIP3    H277340   5.614   1.023   0.233 -0.6374 -0.0491 -0.1330
18617TIP3   OH277341   4.702   4.759  16.414 -0.0705  0.3251 -0.3876
18617TIP3    H177342   4.688   4.717  16.499 -0.5756  1.1936 -0.0422
18617TIP3    H277343   4.789   4.728  16.386 -0.4672 -1.0050 -0.1755
18618TIP3   OH277344   5.511   4.945   2.333  0.2336 -0.0959 -0.1564
18618TIP3    H177345   5.455   4.957   2.410  0.7279 -1.0821  0.3796
18618TIP3    H277346   5.451   4.944   2.259 -0.2710  0.6714  0.2305
18619TIP3   OH277347   2.618   1.193  13.418  0.1313  0.0245  0.3638
18619TIP3    H177348   2.642   1.267  13.473  0.1967  1.7397 -1.8659
18619TIP3    H277349   2.636   1.116  13.471  4.0154  1.4520  1.2881
18620TIP3   OH277350   0.549   0.052  12.326 -0.4077 -0.1809  0.0969
18620TIP3    H177351   0.535  -0.004  12.250 -0.2822 -0.3366  0.1881
18620TIP3    H277352   0.463   0.062  12.366 -0.5844  0.4089 -0.4202
18621TIP3   OH277353   5.824   6.177  16.192  0.3754  0.6755 -0.3595
18621TIP3    H177354   5.886   6.201  16.123  0.1867  1.3524 -0.2987
18621TIP3    H277355   5.773   6.106  16.155  1.4605 -0.1742 -0.2638
18622TIP3   OH277356   4.955   6.712   5.870  0.1508 -0.1380 -0.2702
18622TIP3    H177357   4.936   6.799   5.907 -2.9247 -1.1647  0.6936
18622TIP3    H277358   4.979   6.659   5.946  1.1541 -0.3983 -0.7554
18623TIP3   OH277359   2.532   3.418  17.287 -0.0055 -0.0973  0.5439
18623TIP3    H177360   2.602   3.420  17.352 -0.7096 -4.1394  1.5625
18623TIP3    H277361   2.574   3.387  17.207  0.0763  1.1633  0.0768
18624TIP3   OH277362   2.599   0.603  16.050  0.1163 -0.2279  1.1558
18624TIP3    H177363   2.634   0.566  15.969 -0.5191 -0.1481  0.8420
18624TIP3    H277364   2.544   0.676  16.021  1.4329  1.0216  1.7693
18625TIP3   OH277365   5.972   6.110   0.906  0.0410 -0.0617  0.5482
18625TIP3    H177366   6.044   6.115   0.968 -0.2847  1.5321  0.8373
18625TIP3    H277367   5.988   6.182   0.845 -0.1851 -0.9957 -0.6156
18626TIP3   OH277368   4.892   3.789  15.720 -0.0396 -0.6093 -0.3412
18626TIP3    H177369   4.818   3.831  15.677  0.4809  0.5142 -0.1431
18626TIP3    H277370   4.899   3.703  15.677 -1.8569 -0.9913  0.0969
18627TIP3   OH277371   6.520   4.932  15.916  0.4539 -0.0753 -0.0844
18627TIP3    H177372   6.552   5.017  15.886  0.9144 -0.1528  0.1795
18627TIP3    H277373   6.427   4.945  15.930  0.4521  0.2797 -0.4295
18628TIP3   OH277374   5.247   5.233  15.051  0.3937  0.3577  0.1449
18628TIP3    H177375   5.312   5.231  14.980  2.5489  4.1783  1.8450
18628TIP3    H277376   5.287   5.184  15.122 -0.1975 -0.4298 -0.0657
18629TIP3   OH277377   3.959   1.560  12.317  0.7445 -0.5307  0.1103
18629TIP3    H177378   3.970   1.503  12.241 -0.4576  0.6402 -0.9744
18629TIP3    H277379   3.872   1.539  12.350  1.0962 -0.7346  0.9239
18630TIP3   OH277380   5.669   1.178   5.747  0.2791  0.0905  0.3346
18630TIP3    H177381   5.707   1.165   5.834 -0.4364 -0.3040  0.5976
18630TIP3    H277382   5.742   1.205   5.692  0.7864  0.0858  1.0042
18631TIP3   OH277383   4.753   5.779  16.227 -0.9094  0.1129  0.2054
18631TIP3    H177384   4.845   5.776  16.252 -0.6454  3.3971 -0.1518
18631TIP3    H277385   4.744   5.714  16.158  1.6323  1.2582 -1.2430
18632TIP3   OH277386   5.604   3.979  10.514 -0.0066  0.2924  0.3234
18632TIP3    H177387   5.569   3.953  10.429  1.2013  0.9664 -0.3870
18632TIP3    H277388   5.599   3.899  10.567 -0.9411 -0.0799 -0.3137
18633TIP3   OH277389   3.679   6.190  13.249  0.3866 -0.1451 -0.1334
18633TIP3    H177390   3.772   6.173  13.237  0.5850  0.9672 -0.2553
18633TIP3    H277391   3.639   6.169  13.165  0.3583 -1.6761  0.2473
18634TIP3   OH277392   1.124   2.512  12.397 -0.1225  0.2862 -0.3525
18634TIP3    H177393   1.150   2.604  12.406  0.7440  0.0934 -0.7856
18634TIP3    H277394   1.091   2.506  12.308 -0.1818  0.1793 -0.3223
18635TIP3   OH277395   6.394   0.225   5.710 -0.3015 -0.0093 -0.1435
18635TIP3    H177396   6.371   0.287   5.641  1.7264  1.8254  0.7924
18635TIP3    H277397   6.324   0.235   5.775 -0.8862  0.0531 -0.7696
18636TIP3   OH277398   1.311   4.877  12.151  0.5279  0.1442 -0.5345
18636TIP3    H177399   1.308   4.881  12.056 -3.3978  1.0059 -0.4614
18636TIP3    H277400   1.283   4.964  12.179  1.8515 -0.0335  1.4373
18637TIP3   OH277401   1.589   0.063  12.371  0.8975 -0.3265 -0.0696
18637TIP3    H177402   1.574   0.156  12.354  3.4336  0.3300  1.1356
18637TIP3    H277403   1.594   0.057  12.467 -2.9449 -2.3229  0.1082
18638TIP3   OH277404   3.805   5.290  12.031  0.4658 -0.0541  0.2969
18638TIP3    H177405   3.877   5.353  12.030  0.7759 -0.4288 -0.9359
18638TIP3    H277406   3.813   5.243  11.948 -0.6148 -0.7566  0.5896
18639TIP3   OH277407   4.608   1.350   4.413  0.3335  0.6330  0.3775
18639TIP3    H177408   4.637   1.260   4.431  1.6074  1.1217  0.8311
18639TIP3    H277409   4.513   1.347   4.425  0.4609 -0.4682  1.2333
18640TIP3   OH277410   1.222   0.674  13.713  0.0870 -0.1435 -0.2595
18640TIP3    H177411   1.288   0.618  13.672  1.7882  0.4883  1.5000
18640TIP3    H277412   1.251   0.763  13.692  0.2646  0.1544  1.2057
18641TIP3   OH277413   6.199   2.510  13.171  0.0391  0.2823  0.0232
18641TIP3    H177414   6.176   2.602  13.182  1.3349  0.6550 -0.3194
18641TIP3    H277415   6.252   2.489  13.248  2.2682  0.6607 -1.3669
18642TIP3   OH277416   4.662   5.201  13.964 -0.6202  0.3729  0.7441
18642TIP3    H177417   4.652   5.119  14.012 -3.4825 -0.2425 -0.8308
18642TIP3    H277418   4.578   5.245  13.974  0.8881  3.1830  1.5854
18643TIP3   OH277419   3.851   5.745   1.669  0.2461  0.1414  0.3715
18643TIP3    H177420   3.803   5.816   1.626  1.0337  0.1792 -0.4607
18643TIP3    H277421   3.783   5.690   1.708 -0.4639  0.2900 -0.6539
18644TIP3   OH277422   1.523   2.521  16.364 -0.3139  0.4431 -0.5155
18644TIP3    H177423   1.608   2.476  16.362 -0.4638  0.1411 -0.1623
18644TIP3    H277424   1.546   2.612  16.385 -0.2745 -0.2133  2.6242
18645TIP3   OH277425   3.166   5.155  13.334 -0.3524  0.7381  0.6124
18645TIP3    H177426   3.213   5.203  13.266  0.1792  1.5821  1.5777
18645TIP3    H277427   3.190   5.198  13.416 -1.0330 -0.2406  1.3402
18646TIP3   OH277428   3.285   2.659   2.406 -0.1674 -0.3721  0.0552
18646TIP3    H177429   3.272   2.589   2.469 -0.3132  0.2631  0.7348
18646TIP3    H277430   3.340   2.620   2.338  0.4691 -0.8867  0.8587
18647TIP3   OH277431   1.031   4.351   4.309  0.4080  0.0851 -0.5102
18647TIP3    H177432   1.087   4.337   4.385  0.2223  0.0999 -0.3681
18647TIP3    H277433   0.997   4.264   4.288 -1.0254  0.3511  0.5904
18648TIP3   OH277434   2.026   5.969   0.017 -0.0740 -0.4198  0.3095
18648TIP3    H177435   2.006   5.986   0.109 -0.9672  1.4051 -0.1829
18648TIP3    H277436   2.005   6.052  -0.027 -0.1838 -1.4452 -1.6166
18649TIP3   OH277437   1.413   2.957  14.579  0.4547 -0.3777  0.2280
18649TIP3    H177438   1.464   2.981  14.502 -0.4412 -2.6497 -1.1509
18649TIP3    H277439   1.466   2.892  14.624 -0.4653 -1.5745 -0.3600
18650TIP3   OH277440   3.316   6.200   6.380  0.8817 -0.4750  0.1377
18650TIP3    H177441   3.355   6.280   6.416  1.5190 -0.7413  0.0527
18650TIP3    H277442   3.390   6.154   6.339  0.2927 -0.4770 -0.9575
18651TIP3   OH277443   0.260   6.108   3.683 -0.5938  0.4227  0.0092
18651TIP3    H177444   0.241   6.095   3.590 -1.4684  1.5840  0.0036
18651TIP3    H277445   0.181   6.149   3.717 -0.0330  0.5765  1.1282
18652TIP3   OH277446   5.145   1.123  14.578  0.4074 -0.4489 -0.0428
18652TIP3    H177447   5.166   1.196  14.635 -1.9654  0.1278  0.1396
18652TIP3    H277448   5.193   1.049  14.615  1.3841  0.5979  0.8257
18653TIP3   OH277449   5.665   0.171   2.970 -0.3234  0.4244  0.5136
18653TIP3    H177450   5.573   0.176   2.994 -0.8467 -0.9172 -1.1332
18653TIP3    H277451   5.681   0.248   2.916 -1.0102 -0.3803 -0.8633
18654TIP3   OH277452   2.619   3.897  11.829  0.3967 -0.1771  0.6299
18654TIP3    H177453   2.530   3.925  11.849  0.7235  0.9858  0.5378
18654TIP3    H277454   2.664   3.895  11.913  0.1847 -1.1531  0.7247
18655TIP3   OH277455   6.195   3.897   5.563  0.6774 -0.0203 -0.3849
18655TIP3    H177456   6.131   3.903   5.634  0.6546  0.5168 -0.4526
18655TIP3    H277457   6.143   3.876   5.485  0.7927 -1.4414 -0.0942
18656TIP3   OH277458   0.387   6.501  16.220 -0.1429  0.3440  0.3452
18656TIP3    H177459   0.432   6.418  16.232  1.7167  1.3107  0.3653
18656TIP3    H277460   0.400   6.522  16.128 -0.7011  0.5563  0.3141
18657TIP3   OH277461   1.074   5.231   5.467 -0.0382 -0.3069  0.5081
18657TIP3    H177462   1.109   5.216   5.379 -0.8422  1.6707 -0.1787
18657TIP3    H277463   1.127   5.303   5.502  0.4474 -1.2437  1.7695
18658TIP3   OH277464   2.652   4.914   3.211 -0.2548  0.1250 -0.1357
18658TIP3    H177465   2.731   4.866   3.185 -0.8256 -0.3748 -0.9494
18658TIP3    H277466   2.596   4.913   3.133 -0.5226  1.6070  0.0149
18659TIP3   OH277467   6.048   0.500  16.056 -0.6772  0.0872 -0.6021
18659TIP3    H177468   6.022   0.564  15.990 -0.3301 -0.3708 -1.1910
18659TIP3    H277469   5.977   0.437  16.057 -0.7246  0.1443 -0.4805
18660TIP3   OH277470   0.009   2.649  16.528 -0.9109 -0.3507 -0.2859
18660TIP3    H177471   0.101   2.677  16.520 -1.0602 -0.4187 -2.3698
18660TIP3    H277472   0.006   2.604  16.613  0.9330 -0.1394 -0.0781
18661TIP3   OH277473   5.603   0.775  13.599  0.2208  0.1510  0.6224
18661TIP3    H177474   5.592   0.825  13.680  2.0787 -1.4104  1.8504
18661TIP3    H277475   5.625   0.842  13.534  0.9154  1.1627  1.8632
18662TIP3   OH277476   5.423   6.567   4.648  0.2361  0.4428  0.3942
18662TIP3    H177477   5.356   6.631   4.626 -0.8382 -0.4847  0.9607
18662TIP3    H277478   5.479   6.563   4.570 -1.4850 -0.2007 -0.8217
18663TIP3   OH277479   1.395   1.617   0.853 -0.0519 -0.0144  0.2354
18663TIP3    H177480   1.375   1.646   0.943 -0.6410  1.7780 -0.4426
18663TIP3    H277481   1.341   1.539   0.840 -3.2200  2.1127  0.0341
18664TIP3   OH277482   5.483   1.524  13.449 -0.2077  0.6696 -0.2415
18664TIP3    H177483   5.485   1.514  13.353  0.9493  0.1603 -0.1726
18664TIP3    H277484   5.391   1.533  13.470 -0.4751  0.7957 -1.4184
18665TIP3   OH277485   4.342   3.699  11.006  0.4257  0.5007 -0.1455
18665TIP3    H177486   4.305   3.623  10.961 -1.6944  1.0376  0.6423
18665TIP3    H277487   4.424   3.667  11.045  0.6042 -0.8136 -1.5687
18666TIP3   OH277488   5.517   4.442   2.095  0.7888 -0.0469 -0.1572
18666TIP3    H177489   5.557   4.496   2.027  2.0735 -0.6879  0.0783
18666TIP3    H277490   5.511   4.354   2.056  0.8644 -0.2585  0.3057
18667TIP3   OH277491   2.219   0.069  11.659  0.0479 -0.1182 -0.5588
18667TIP3    H177492   2.278   0.065  11.584 -1.2276  1.0503 -1.6713
18667TIP3    H277493   2.212   0.162  11.679  0.9720 -0.4872  1.5073
18668TIP3   OH277494   2.324   6.797  12.445 -0.5957  0.7402  0.1787
18668TIP3    H177495   2.408   6.840  12.462 -0.7345  0.6833  1.0732
18668TIP3    H277496   2.260   6.851  12.490 -1.4763  2.5819 -3.2056
18669TIP3   OH277497   4.385   2.866  12.738  0.0277 -0.2140  0.2326
18669TIP3    H177498   4.345   2.922  12.672  1.2990  1.1176  0.5793
18669TIP3    H277499   4.479   2.871  12.720  0.3777  0.0810  2.0600
18670TIP3   OH277500   4.869   5.199  15.881  0.6859 -0.7978  0.0780
18670TIP3    H177501   4.896   5.238  15.964  0.2895  0.1463 -0.2277
18670TIP3    H277502   4.794   5.144  15.904  1.0663 -1.1610  0.4687
18671TIP3   OH277503   1.324   1.116  15.133 -0.6495 -0.2388  0.3846
18671TIP3    H177504   1.408   1.116  15.087 -1.0447  1.2546 -0.3444
18671TIP3    H277505   1.304   1.023  15.146 -0.6447 -0.6949 -2.6499
18672TIP3   OH277506   4.250   2.803   3.755  0.4508 -0.4455  0.1572
18672TIP3    H177507   4.332   2.826   3.712 -0.0163  0.4158 -0.2796
18672TIP3    H277508   4.198   2.883   3.752 -1.1244 -1.5027 -1.2345
18673TIP3   OH277509   4.112   1.304  15.571  0.3663 -0.2782 -0.0036
18673TIP3    H177510   4.185   1.363  15.586  0.0827 -0.1704  1.0384
18673TIP3    H277511   4.132   1.261  15.488  0.9875  0.6577 -0.3410
18674TIP3   OH277512   6.022   0.774   2.264 -0.2848 -0.2614  0.0902
18674TIP3    H177513   5.957   0.836   2.232  0.8188 -0.0419 -1.7838
18674TIP3    H277514   6.083   0.827   2.314 -0.3948 -0.1423  0.1000
18675TIP3   OH277515   3.809   3.781  11.710 -0.7034 -0.1187  0.2199
18675TIP3    H177516   3.722   3.820  11.715 -0.8387 -0.5240  1.2702
18675TIP3    H277517   3.801   3.700  11.761 -0.0009 -0.6976 -0.5853
18676TIP3   OH277518   0.084   4.519  13.638  0.5598  0.7479 -0.0163
18676TIP3    H177519   0.101   4.469  13.718  2.4902  1.3253 -0.0631
18676TIP3    H277520   0.057   4.605  13.669  0.1047  0.6022  0.0101
18677TIP3   OH277521   5.618   5.771  14.358  0.3708  0.5586 -0.0666
18677TIP3    H177522   5.707   5.737  14.355  0.2924  0.3963 -0.6494
18677TIP3    H277523   5.628   5.865  14.374  0.7305  0.9190 -2.2331
18678TIP3   OH277524   3.049   4.094   5.369 -0.5629  0.1366 -0.3274
18678TIP3    H177525   3.055   4.021   5.430 -0.8780 -0.5818 -1.1456
18678TIP3    H277526   3.095   4.166   5.412  0.3236 -0.7408  0.1912
18679TIP3   OH277527   1.321   1.861  12.519 -0.0756  0.2074 -0.0878
18679TIP3    H177528   1.281   1.905  12.595 -0.0074  2.2020 -1.1805
18679TIP3    H277529   1.265   1.885  12.446  0.6834 -0.5555 -0.9241
18680TIP3   OH277530   5.935   4.316  11.718 -0.4903 -0.0723 -0.2337
18680TIP3    H177531   6.024   4.350  11.728 -0.2400 -0.5162 -0.8729
18680TIP3    H277532   5.925   4.254  11.790 -0.4365  0.2946  0.0941
18681TIP3   OH277533   0.752   1.814  17.052  0.0459 -0.1124 -0.0391
18681TIP3    H177534   0.680   1.877  17.043 -0.9963 -0.9876  1.8512
18681TIP3    H277535   0.822   1.849  16.997 -0.6512  2.4849  0.6487
18682TIP3   OH277536   5.906   3.310  15.022  0.0184  0.0883  1.3034
18682TIP3    H177537   5.907   3.300  15.117  2.1446  1.9991  1.5478
18682TIP3    H277538   5.869   3.397  15.007 -0.4632 -0.2695  0.3852
18683TIP3   OH277539   0.937   3.650  11.670  0.1124 -0.4121 -0.2721
18683TIP3    H177540   1.032   3.666  11.668  0.0591  0.0557  0.7309
18683TIP3    H277541   0.910   3.654  11.578  0.8139  1.0167 -0.4329
18684TIP3   OH277542   1.346   3.765   1.863  1.0053  0.2458  0.1843
18684TIP3    H177543   1.321   3.855   1.885 -0.0937  0.1864 -0.7167
18684TIP3    H277544   1.441   3.763   1.874  0.9833  1.3820  0.6970
18685TIP3   OH277545   3.749   0.167   1.619  0.5246  0.1542  0.1453
18685TIP3    H177546   3.732   0.073   1.625 -0.2935  0.1469 -1.7329
18685TIP3    H277547   3.663   0.206   1.603  1.0285  1.0715 -0.4074
18686TIP3   OH277548   1.016   1.394  11.472 -0.0435 -0.1830 -0.5553
18686TIP3    H177549   0.954   1.465  11.487  0.7095  0.8498 -2.1481
18686TIP3    H277550   1.094   1.419  11.522  0.8520  1.0270 -2.4843
18687TIP3   OH277551   1.538   1.312   0.416  0.1954  0.0269  0.1373
18687TIP3    H177552   1.505   1.339   0.502 -0.6203 -0.2370 -0.0895
18687TIP3    H277553   1.548   1.394   0.368  0.7700  0.1865  0.5201
18688TIP3   OH277554   6.661   1.474  17.236 -0.0586 -0.0457 -0.5406
18688TIP3    H177555   6.589   1.430  17.191 -0.7541 -0.1742  0.6908
18688TIP3    H277556   6.734   1.413  17.231 -1.5050 -2.1300  2.6714
18689TIP3   OH277557   0.370   2.108   1.548 -0.3325  0.2064  0.4973
18689TIP3    H177558   0.375   2.020   1.585 -1.0859 -0.0997 -0.1318
18689TIP3    H277559   0.459   2.125   1.515 -0.0608 -0.1201  1.0543
18690TIP3   OH277560   3.395   4.226  12.880  0.1991 -0.0995 -0.4601
18690TIP3    H177561   3.377   4.287  12.952  4.6644 -0.2524  0.9176
18690TIP3    H277562   3.366   4.141  12.913 -1.1550  0.4107 -0.3094
18691TIP3   OH277563   3.817   4.819   3.696  0.6216  0.4059 -0.9612
18691TIP3    H177564   3.734   4.867   3.692 -0.1279 -0.7110  0.5695
18691TIP3    H277565   3.864   4.859   3.770  1.1489  0.5737 -1.3875
18692TIP3   OH277566   0.168   2.312   0.674  0.0497  0.7560 -0.3348
18692TIP3    H177567   0.112   2.388   0.660  0.7222  1.5944  1.4039
18692TIP3    H277568   0.109   2.246   0.711 -0.1884  0.9788 -0.3139
18693TIP3   OH277569   5.439   4.215  13.152  0.0630 -0.2689 -0.3559
18693TIP3    H177570   5.461   4.250  13.238  0.4323 -0.1783 -0.4882
18693TIP3    H277571   5.474   4.126  13.153  0.3639 -0.1498 -0.5423
18694TIP3   OH277572   2.320   4.283   2.772 -0.5323 -0.0827  0.2792
18694TIP3    H177573   2.362   4.302   2.856 -1.1556 -1.5906  0.9610
18694TIP3    H277574   2.319   4.367   2.726 -0.5603  0.8685  1.9545
18695TIP3   OH277575   2.370   5.003  15.400  0.5422  0.1386 -0.3760
18695TIP3    H177576   2.324   5.081  15.428  1.4704  1.0034 -1.2026
18695TIP3    H277577   2.420   5.031  15.323 -0.4684 -1.6866 -1.7290
18696TIP3   OH277578   4.190   1.458  16.801 -0.9131 -1.0182 -0.3157
18696TIP3    H177579   4.188   1.554  16.796 -3.1876 -0.9882  0.5122
18696TIP3    H277580   4.210   1.429  16.712  1.1552  0.2393 -0.2916
18697TIP3   OH277581   3.251   6.080   4.668  0.0604  0.2143  0.1884
18697TIP3    H177582   3.294   6.165   4.659  2.4012 -0.9730 -0.0639
18697TIP3    H277583   3.263   6.038   4.583 -0.3655 -0.7029  0.5761
18698TIP3   OH277584   0.414   6.479   3.265  0.2167  0.2894 -0.0621
18698TIP3    H177585   0.402   6.408   3.328 -0.6812  1.4548  1.0961
18698TIP3    H277586   0.448   6.552   3.317 -1.3720  1.5487 -0.7520
18699TIP3   OH277587   3.753   4.652   0.551  0.2809 -0.8328 -0.2813
18699TIP3    H177588   3.661   4.655   0.578 -0.2465  0.1830 -2.0791
18699TIP3    H277589   3.793   4.586   0.608 -1.5511 -1.2680  0.5401
18700TIP3   OH277590   5.816   1.609  13.367 -0.3208 -0.0233 -0.8498
18700TIP3    H177591   5.817   1.701  13.392  0.2565 -0.6786  1.6610
18700TIP3    H277592   5.833   1.562  13.448 -2.0081 -2.4199 -1.8404
18701TIP3   OH277593   0.202   2.455  14.609  0.2187 -0.2047 -0.0500
18701TIP3    H177594   0.167   2.437  14.696  0.7119  0.4449  0.2892
18701TIP3    H277595   0.297   2.444  14.619  0.0937 -2.2686 -1.0356
18702TIP3   OH277596   3.733   5.111  16.612  0.0797 -0.2124 -0.5378
18702TIP3    H177597   3.742   5.137  16.703 -0.0213  1.1172 -0.8959
18702TIP3    H277598   3.653   5.058  16.609  1.4406 -2.4106  0.5939
18703TIP3   OH277599   5.847   1.666  13.873 -0.7516 -0.2113  0.1809
18703TIP3    H177600   5.805   1.743  13.834 -0.1160 -0.2463 -0.5891
18703TIP3    H277601   5.910   1.703  13.935 -0.3612 -0.0985 -0.2762
18704TIP3   OH277602   3.150   5.574  15.342 -0.4925 -0.1639 -0.4868
18704TIP3    H177603   3.203   5.569  15.262  2.7324 -2.3766  1.6413
18704TIP3    H277604   3.075   5.517  15.324  0.1589 -0.5977 -1.9567
18705TIP3   OH277605   1.701   5.699   5.873  0.1887  0.5298 -0.0507
18705TIP3    H177606   1.661   5.617   5.845 -1.4798  1.2844  0.0588
18705TIP3    H277607   1.707   5.751   5.793  1.0144  0.3922 -0.0777
18706TIP3   OH277608   3.739   5.461  15.994 -0.7280 -0.3029 -0.4477
18706TIP3    H177609   3.738   5.470  15.899  0.4859  1.6050 -0.3105
18706TIP3    H277610   3.827   5.488  16.020 -2.2689  3.2543  1.5211
18707TIP3   OH277611   4.912   1.750  16.760  0.3225 -0.5912 -0.4593
18707TIP3    H177612   5.000   1.761  16.796  0.0521 -0.9855  0.3335
18707TIP3    H277613   4.873   1.837  16.765  0.7188 -0.3839 -0.9495
18708TIP3   OH277614   3.377   0.405  13.337  0.3385  0.0003 -0.6274
18708TIP3    H177615   3.467   0.398  13.370  0.8107  0.3667 -1.8245
18708TIP3    H277616   3.325   0.422  13.416  1.1809 -1.1330  0.2096
18709TIP3   OH277617   6.538   5.366   5.647 -0.4623 -0.7334 -0.1061
18709TIP3    H177618   6.611   5.323   5.603  0.2141  0.4686 -0.1708
18709TIP3    H277619   6.562   5.365   5.740 -0.3145 -0.2476 -0.1376
18710TIP3   OH277620   3.941   0.958  17.058  0.1602 -0.2770  0.0696
18710TIP3    H177621   3.877   1.019  17.024  0.8507  1.3214  1.5443
18710TIP3    H277622   3.965   0.903  16.984  1.0567  2.5813 -1.8161
18711TIP3   OH277623   3.955   5.051  17.131  0.3885 -0.5583 -0.0274
18711TIP3    H177624   3.924   4.994  17.201 -0.1884  0.2805  0.4096
18711TIP3    H277625   4.043   5.077  17.157  1.0162 -1.9909 -0.6874
18712TIP3   OH277626   6.699   0.638   0.178  0.3812 -0.7066  0.0433
18712TIP3    H177627   6.676   0.730   0.168 -0.2124 -0.7074  1.2501
18712TIP3    H277628   6.757   0.635   0.254  0.6330 -1.2892 -0.1636
18713TIP3   OH277629   2.466   0.550  14.181 -0.4539 -0.5155 -0.7971
18713TIP3    H177630   2.507   0.624  14.135 -1.2940  0.6830  0.3601
18713TIP3    H277631   2.377   0.579  14.198 -0.0467 -0.7648  1.9436
18714TIP3   OH277632   3.103   4.144   5.888 -0.3350 -0.4884  0.1995
18714TIP3    H177633   3.031   4.147   5.951 -1.2119 -0.3774 -0.7962
18714TIP3    H277634   3.067   4.181   5.808  0.5869 -1.1963 -0.5610
18715TIP3   OH277635   2.609   2.527  11.728 -0.2508 -0.4301  0.4815
18715TIP3    H177636   2.521   2.548  11.699 -0.4139 -2.2886 -0.4303
18715TIP3    H277637   2.603   2.529  11.824 -1.1051  0.1209  0.4230
18716TIP3   OH277638   3.483   4.072   3.749  0.2244 -0.2078  0.3619
18716TIP3    H177639   3.438   4.007   3.695 -1.1136 -0.1796  1.4273
18716TIP3    H277640   3.529   4.127   3.685 -1.2621 -0.2288 -0.7693
18717TIP3   OH277641   4.746   4.579   4.998 -0.4667 -0.2441  0.2037
18717TIP3    H177642   4.785   4.514   4.939 -0.3795 -0.0589  0.0580
18717TIP3    H277643   4.754   4.662   4.951 -2.2821 -0.3939 -0.4135
18718TIP3   OH277644   0.257   5.693  15.170 -0.4261  0.2279  0.5461
18718TIP3    H177645   0.282   5.743  15.248 -0.5798  0.9146  0.1466
18718TIP3    H277646   0.163   5.707  15.161  0.1943  3.2803 -1.9762
18719TIP3   OH277647   2.436   5.228  14.618 -0.1923 -0.5322  0.2699
18719TIP3    H177648   2.459   5.300  14.676 -0.6286 -0.1919  0.0251
18719TIP3    H277649   2.432   5.268  14.531  2.2633 -1.3909 -0.2819
18720TIP3   OH277650   5.544   3.370  11.791  0.4294  0.1390  0.4529
18720TIP3    H177651   5.620   3.427  11.780  1.2984 -1.2543 -1.0397
18720TIP3    H277652   5.560   3.324  11.874  1.1333  0.0006  0.2461
18721TIP3   OH277653   6.102   6.236   5.856  0.8812  0.4316  0.2054
18721TIP3    H177654   6.058   6.204   5.777  0.5603  1.8951 -0.2244
18721TIP3    H277655   6.140   6.157   5.896  0.7787 -0.3667 -1.2341
18722TIP3   OH277656   6.261   3.069   0.359 -0.0117 -0.6436  0.4756
18722TIP3    H177657   6.223   3.022   0.433  1.3693  0.2228  1.7790
18722TIP3    H277658   6.356   3.068   0.376  0.2018  0.8700 -0.4805
18723TIP3   OH277659   1.045   0.471   0.383 -0.2404  0.1482  0.0415
18723TIP3    H177660   1.086   0.416   0.449 -0.2926 -0.8166 -0.7140
18723TIP3    H277661   0.997   0.537   0.433 -1.0191 -1.1029  0.9894
18724TIP3   OH277662   4.843   3.349  10.425  0.0565 -0.6805  0.2015
18724TIP3    H177663   4.924   3.310  10.458 -1.0715 -2.0573  1.3991
18724TIP3    H277664   4.777   3.281  10.435 -2.0905  1.6665  2.8608
18725TIP3   OH277665   0.419   2.102  12.930 -0.5774  0.3478  0.2890
18725TIP3    H177666   0.460   2.022  12.900 -3.0132 -1.0495  0.5698
18725TIP3    H277667   0.412   2.157  12.852  3.2014  1.3192  0.5147
18726TIP3   OH277668   1.316   5.235  13.018  0.0087 -0.0662  0.3649
18726TIP3    H177669   1.386   5.196  13.070  0.0331 -0.0909  0.3121
18726TIP3    H277670   1.337   5.328  13.014  0.4566 -0.1946 -0.3036
18727TIP3   OH277671   6.004   5.712  12.693  0.7397 -0.4930  0.1984
18727TIP3    H177672   6.021   5.620  12.671  2.3187 -0.3266  0.6993
18727TIP3    H277673   5.943   5.708  12.767 -0.1947 -1.1117 -0.5864
18728TIP3   OH277674   4.335   2.123  12.483  0.5133 -0.9118  0.6524
18728TIP3    H177675   4.256   2.070  12.489 -0.2537  0.0652 -0.5623
18728TIP3    H277676   4.347   2.158  12.571 -1.2931  0.1660  0.5025
18729TIP3   OH277677   0.991   4.072  11.340  0.2443 -0.8420  0.0370
18729TIP3    H177678   0.950   4.151  11.374  0.8072 -0.7725  0.5588
18729TIP3    H277679   0.972   4.073  11.246 -0.2236 -0.3789  0.1387
18730TIP3   OH277680   0.354   2.948   5.367  0.1982  0.4972  0.1981
18730TIP3    H177681   0.299   3.016   5.407 -0.3540 -0.6384  1.3930
18730TIP3    H277682   0.292   2.883   5.335  0.6607  1.0950 -2.0475
18731TIP3   OH277683   5.679   0.519  13.668  0.6521  0.5427 -0.0068
18731TIP3    H177684   5.657   0.610  13.646  0.7498  0.4234 -0.6137
18731TIP3    H277685   5.766   0.524  13.707  0.3165  0.8037  0.7254
18732TIP3   OH277686   0.246   1.460   1.595  0.4432 -0.2127 -0.4626
18732TIP3    H177687   0.339   1.440   1.584 -0.1020 -2.2893 -1.5327
18732TIP3    H277688   0.228   1.443   1.687  1.3765  1.3140  0.0089
18733TIP3   OH277689   2.783   3.085   0.058  0.3238 -0.2789 -0.7472
18733TIP3    H177690   2.864   3.062   0.013  0.5901 -1.3016  0.2297
18733TIP3    H277691   2.741   3.150   0.001  1.7673  0.1761 -1.3124
18734TIP3   OH277692   0.174   0.180   6.438 -0.0197 -0.3324  0.0550
18734TIP3    H177693   0.225   0.251   6.475 -0.6222  0.3130 -0.3337
18734TIP3    H277694   0.214   0.100   6.472 -0.3712  0.2345  1.8307
18735TIP3   OH277695   4.985   1.200  14.901  0.2081  0.2146 -0.4019
18735TIP3    H177696   5.035   1.223  14.822  0.3273  0.1796 -0.3365
18735TIP3    H277697   5.048   1.210  14.973  0.4929 -1.1154 -0.4587
18736TIP3   OH277698   0.252   0.458  12.510 -0.4787 -0.1036 -0.0550
18736TIP3    H177699   0.198   0.537  12.507  0.0346  0.2964  0.9836
18736TIP3    H277700   0.194   0.389  12.540 -0.9519 -0.1522 -1.0487
18737TIP3   OH277701   5.549   3.501   2.692  0.1846 -0.0155  0.6362
18737TIP3    H177702   5.518   3.435   2.754 -2.0436  0.8933  0.5408
18737TIP3    H277703   5.502   3.581   2.717  0.5603  0.7839 -1.1442
18738TIP3   OH277704   1.760   6.070   2.991 -0.0597  0.0225  0.6780
18738TIP3    H177705   1.738   6.139   3.054 -3.1150 -1.4073  1.2865
18738TIP3    H277706   1.749   5.988   3.040 -1.8214 -1.0867 -1.4593
18739TIP3   OH277707   2.552   4.066   4.734  0.1244  0.1265  0.1833
18739TIP3    H177708   2.558   4.107   4.820  0.7201 -0.2901  0.3492
18739TIP3    H277709   2.492   4.121   4.684 -0.7561 -0.0150  1.0835
18740TIP3   OH277710   5.623   5.770  11.397  0.1439  0.6598 -0.7201
18740TIP3    H177711   5.657   5.752  11.485 -0.6538  1.0491 -0.3368
18740TIP3    H277712   5.558   5.702  11.382 -0.1712  0.9726 -0.7642
18741TIP3   OH277713   3.487   5.104   6.169 -0.2196  0.2850 -0.0437
18741TIP3    H177714   3.431   5.181   6.175 -2.1938 -1.1296  0.1714
18741TIP3    H277715   3.574   5.135   6.194 -0.5034  2.9240 -2.1712
18742TIP3   OH277716   5.008   1.520   0.165 -0.1997 -0.4214 -0.1224
18742TIP3    H177717   5.055   1.521   0.248  1.8987 -2.6306 -1.2344
18742TIP3    H277718   4.983   1.429   0.152  0.3628 -0.2825 -2.3723
18743TIP3   OH277719   0.866   2.967   1.371 -0.1868  0.1285 -0.0353
18743TIP3    H177720   0.925   3.043   1.369 -0.0817  0.0264 -2.3699
18743TIP3    H277721   0.791   2.996   1.422  1.0425  0.8833  1.4129
18744TIP3   OH277722   5.506   6.638   1.106 -0.3239 -0.2604  0.3222
18744TIP3    H177723   5.469   6.718   1.144 -1.0569 -1.2868  1.8158
18744TIP3    H277724   5.440   6.570   1.125 -0.1788 -1.0377 -1.7835
18745TIP3   OH277725   2.230   5.315   1.530  0.2912 -0.1702 -0.3381
18745TIP3    H177726   2.185   5.301   1.447  0.5675 -0.6502 -0.4111
18745TIP3    H277727   2.258   5.406   1.527  0.7539 -0.3283 -0.9976
18746TIP3   OH277728   1.806   0.303   0.417  0.2719 -0.3663  0.3665
18746TIP3    H177729   1.751   0.360   0.471 -0.7933 -1.3236  0.3096
18746TIP3    H277730   1.800   0.341   0.329 -0.1661 -0.3781  0.3914
18747TIP3   OH277731   4.395   4.955  14.668 -0.6496 -0.7082  0.1336
18747TIP3    H177732   4.489   4.946  14.685 -0.8142 -1.3110  0.7500
18747TIP3    H277733   4.384   4.931  14.576 -0.0109  0.6963 -0.3219
18748TIP3   OH277734   6.784   2.434   0.517  0.0147  0.4949 -0.0948
18748TIP3    H177735   6.815   2.501   0.578 -1.2669  1.0091  0.0069
18748TIP3    H277736   6.811   2.466   0.431 -0.0581  0.8401  0.0095
18749TIP3   OH277737   3.055   5.540  14.811 -0.0932  0.8464 -0.1453
18749TIP3    H177738   2.993   5.613  14.804  0.3528  1.1363 -1.3535
18749TIP3    H277739   3.010   5.474  14.863 -1.1828  1.2988 -0.5066
18750TIP3   OH277740   3.617   2.111  13.970  0.1302  0.0281 -0.2300
18750TIP3    H177741   3.533   2.152  13.950 -0.8465 -0.9321  1.7900
18750TIP3    H277742   3.594   2.029  14.013  2.1110  0.0171  0.8524
18751TIP3   OH277743   1.230   5.767  15.982 -0.3201  0.4470  0.2860
18751TIP3    H177744   1.307   5.725  15.946 -0.9683 -0.7245  0.2551
18751TIP3    H277745   1.197   5.706  16.047 -0.7113  1.3429  0.9480
18752TIP3   OH277746   0.153   1.797  14.424 -0.2536  0.0263  0.2467
18752TIP3    H177747   0.095   1.774  14.352 -0.1279  1.6635 -0.4027
18752TIP3    H277748   0.098   1.843  14.487 -0.2283 -0.8350  0.9103
18753TIP3   OH277749   1.420   6.405   0.936 -0.8599 -0.3104  0.4468
18753TIP3    H177750   1.472   6.324   0.938  1.0424  0.9206  1.0854
18753TIP3    H277751   1.437   6.448   1.019 -3.7463 -0.3646  1.1302
18754TIP3   OH277752   4.042   5.271  15.787 -0.2842 -0.2372  0.3885
18754TIP3    H177753   3.960   5.226  15.802 -0.9991  0.9108  0.0127
18754TIP3    H277754   4.093   5.212  15.733 -2.3803  0.6452 -2.6558
18755TIP3   OH277755   3.846   4.565   4.887  0.0174  0.1078  0.0644
18755TIP3    H177756   3.789   4.494   4.914 -0.2503 -0.8147 -2.7502
18755TIP3    H277757   3.935   4.534   4.905 -0.2242  0.5795  2.2183
18756TIP3   OH277758   3.966   5.929  11.732  0.1908 -0.1897 -0.3011
18756TIP3    H177759   3.972   5.982  11.653 -2.2284  0.0746 -0.3467
18756TIP3    H277760   3.955   5.839  11.700  0.0887 -0.1970 -0.2449
18757TIP3   OH277761   6.333   0.869  12.264  0.2577 -0.4251  0.3930
18757TIP3    H177762   6.308   0.944  12.211 -1.0339 -0.0719  1.4591
18757TIP3    H277763   6.298   0.793  12.216 -0.2114 -0.1726  0.3293
18758TIP3   OH277764   2.855   0.727   6.306  0.2109  0.2723 -0.4348
18758TIP3    H177765   2.809   0.650   6.340 -0.0998  0.5190 -0.2955
18758TIP3    H277766   2.869   0.782   6.383 -0.4108  0.7910 -0.6910
18759TIP3   OH277767   0.284   6.332  12.300 -0.1296  0.1842  0.5605
18759TIP3    H177768   0.292   6.354  12.392  1.2036  1.1239  0.2393
18759TIP3    H277769   0.268   6.238  12.298  0.2248  0.1012  1.7316
18760TIP3   OH277770   1.964   2.890   4.615  0.2845  0.1688  0.0196
18760TIP3    H177771   1.873   2.889   4.644  0.5171 -1.0919  0.7226
18760TIP3    H277772   2.008   2.827   4.671  1.6933  1.1056 -0.0109
18761TIP3   OH277773   6.336   3.586   1.790 -0.7820  0.4884 -0.0310
18761TIP3    H177774   6.387   3.647   1.737 -1.9512  1.2185 -0.3315
18761TIP3    H277775   6.312   3.516   1.730  0.5822 -0.2826  0.3203
18762TIP3   OH277776   5.885   1.071   5.926  0.0221 -0.0867 -0.1248
18762TIP3    H177777   5.897   1.057   6.020 -0.8649  1.9963  0.3151
18762TIP3    H277778   5.827   0.999   5.898  0.2954 -0.7100  0.9051
18763TIP3   OH277779   1.425   0.932   3.108 -0.0481 -0.3851  0.4168
18763TIP3    H177780   1.344   0.966   3.070  0.5642 -0.0905 -0.6346
18763TIP3    H277781   1.418   0.837   3.097  0.1715 -0.2986 -0.5523
18764TIP3   OH277782   2.251   5.236  17.043  0.0617  0.6261 -0.1401
18764TIP3    H177783   2.283   5.296  17.111  0.5965  1.3068 -0.9778
18764TIP3    H277784   2.184   5.184  17.086  2.7667 -1.3350  1.8656
18765TIP3   OH277785   2.126   1.964   2.964  0.2916 -0.1666  0.5243
18765TIP3    H177786   2.212   1.945   2.927  0.6083  0.6959  0.8059
18765TIP3    H277787   2.137   1.950   3.058 -0.0421 -0.6531  0.4910
18766TIP3   OH277788   2.944   6.155   0.900 -0.2351 -0.1280  0.4723
18766TIP3    H177789   2.989   6.239   0.911 -1.8947  0.8009  0.3083
18766TIP3    H277790   2.872   6.158   0.963 -1.3590 -0.6975 -0.7837
18767TIP3   OH277791   3.884   2.541  12.407 -0.1035 -0.7666 -0.1987
18767TIP3    H177792   3.919   2.452  12.410 -0.0192 -0.7771 -1.2852
18767TIP3    H277793   3.848   2.556  12.494  0.3309 -1.6814  0.1391
18768TIP3   OH277794   4.834   3.854   4.470 -0.1174  0.0965  0.2884
18768TIP3    H177795   4.846   3.782   4.531  0.1239 -0.1739 -0.0784
18768TIP3    H277796   4.808   3.928   4.525 -1.4975 -0.5578  0.5355
18769TIP3   OH277797   4.269   5.542  10.406 -0.0865 -0.1975 -0.1220
18769TIP3    H177798   4.207   5.611  10.432  0.2044  0.2851 -0.6874
18769TIP3    H277799   4.224   5.495  10.336 -0.0878 -0.2825 -0.0641
18770TIP3   OH277800   2.694   2.949  12.583  0.1295  0.1917 -0.5160
18770TIP3    H177801   2.627   2.893  12.622  0.3828 -0.2733 -0.7307
18770TIP3    H277802   2.659   2.971  12.497 -0.4474  1.2522 -0.0101
18771TIP3   OH277803   3.256   1.676  16.562  0.2160 -0.2787 -0.7218
18771TIP3    H177804   3.233   1.720  16.644 -0.3478 -2.2937  0.2374
18771TIP3    H277805   3.186   1.701  16.501 -1.1135 -1.2926  0.3543
18772TIP3   OH277806   3.558   1.702   4.280  0.0198  0.0981 -0.0413
18772TIP3    H177807   3.487   1.638   4.283 -0.8579  1.0496 -0.3935
18772TIP3    H277808   3.514   1.786   4.275  1.1554  0.8210  1.6466
18773TIP3   OH277809   6.797   2.623   3.370 -0.2313  0.8274 -0.1973
18773TIP3    H177810   6.885   2.590   3.385  0.1184  1.3570 -1.0184
18773TIP3    H277811   6.796   2.709   3.411 -0.3531  0.8352 -0.2153
18774TIP3   OH277812   4.524   0.776  13.723 -0.5216 -0.6677  0.5140
18774TIP3    H177813   4.599   0.743  13.773 -0.5859 -2.9574 -0.8002
18774TIP3    H277814   4.462   0.703  13.722 -2.5427  0.9909  1.0831
18775TIP3   OH277815   4.001   3.722  13.923  0.0262 -0.3977  0.1306
18775TIP3    H177816   3.953   3.697  13.844 -0.3044 -0.4136  0.3356
18775TIP3    H277817   4.040   3.807  13.902 -0.7034 -0.0417  0.2278
18776TIP3   OH277818   2.213   2.239   5.874 -0.6433  0.1530 -0.6400
18776TIP3    H177819   2.178   2.150   5.885 -1.4834  0.7318  1.8806
18776TIP3    H277820   2.270   2.233   5.798 -0.2966 -2.6684 -0.2388
18777TIP3   OH277821   6.434   1.555   1.435  0.0774  0.2508 -0.8052
18777TIP3    H177822   6.441   1.607   1.355 -0.3089 -0.4411 -1.3001
18777TIP3    H277823   6.504   1.489   1.426  2.0968  2.0962  0.9045
18778TIP3   OH277824   2.198   2.506  10.896 -0.0667 -0.2667  0.1981
18778TIP3    H177825   2.209   2.413  10.919 -0.2933 -0.5352 -0.7696
18778TIP3    H277826   2.221   2.511  10.804  2.4424  1.1111  0.8610
18779TIP3   OH277827   0.815   5.485  11.994 -0.6372 -0.1951 -0.2737
18779TIP3    H177828   0.894   5.537  11.979 -0.6435 -0.3967 -1.0286
18779TIP3    H277829   0.744   5.549  11.996 -0.4492 -0.0120  0.4144
18780TIP3   OH277830   2.656   0.981  14.597  0.1641 -0.6709 -0.5090
18780TIP3    H177831   2.742   0.986  14.555  1.3875 -2.4971  1.6842
18780TIP3    H277832   2.657   1.051  14.662  1.1100 -2.4109  1.4119
18781TIP3   OH277833   1.720   3.498  14.371  0.2383 -0.1351 -0.2090
18781TIP3    H177834   1.773   3.431  14.414  2.2061  0.6956 -1.2586
18781TIP3    H277835   1.696   3.460  14.286  0.5059  0.1035 -0.3915
18782TIP3   OH277836   5.680   4.824   1.457 -0.2673  0.5566  0.1310
18782TIP3    H177837   5.763   4.778   1.467  0.4331  2.2233  2.1454
18782TIP3    H277838   5.704   4.916   1.446 -1.8087  0.9122 -0.4013
18783TIP3   OH277839   6.675   2.699   0.195  0.0106 -0.4775 -0.3805
18783TIP3    H177840   6.580   2.714   0.191 -0.2500 -0.6659  3.5543
18783TIP3    H277841   6.685   2.604   0.196  0.2375 -0.4513 -0.2157
18784TIP3   OH277842   1.462   1.821  14.852  0.3024 -0.4218 -0.0063
18784TIP3    H177843   1.486   1.751  14.791 -0.4068  0.3487 -1.1671
18784TIP3    H277844   1.422   1.774  14.926  0.8192 -1.3216 -0.2812
18785TIP3   OH277845   5.817   1.552  16.729 -0.1292  0.4424  0.8054
18785TIP3    H177846   5.811   1.644  16.706  1.2038  0.2193 -0.5135
18785TIP3    H277847   5.879   1.515  16.666  1.2835 -0.8325  2.8686
18786TIP3   OH277848   1.327   4.542   2.135  0.3416 -0.1438  0.1046
18786TIP3    H177849   1.297   4.607   2.072  0.0148  1.0980  1.5161
18786TIP3    H277850   1.359   4.469   2.081  0.3518  1.0153 -1.4853
18787TIP3   OH277851   0.838   0.564   2.745  0.2630 -0.2632  0.6292
18787TIP3    H177852   0.884   0.590   2.824 -0.5023  0.8541  0.7168
18787TIP3    H277853   0.778   0.636   2.727 -0.4912 -1.0865 -0.2362
18788TIP3   OH277854   2.830   3.846  16.868  0.4308  0.8108 -0.7123
18788TIP3    H177855   2.800   3.764  16.831  1.9984  0.4534 -1.2284
18788TIP3    H277856   2.773   3.913  16.829 -1.1046 -0.0359  0.0095
18789TIP3   OH277857   6.060   6.330  14.588  0.6489 -0.1992  0.0939
18789TIP3    H177858   6.041   6.263  14.522  0.3929 -0.5646  0.5324
18789TIP3    H277859   6.066   6.412  14.538 -1.5389 -0.1498 -0.1371
18790TIP3   OH277860   3.484   5.199   2.604  0.1968  0.2433  0.5533
18790TIP3    H177861   3.439   5.235   2.527 -1.1910  1.1373  1.7583
18790TIP3    H277862   3.523   5.117   2.573  1.0045  1.3549 -1.5056
18791TIP3   OH277863   2.422   6.800  12.958  0.0048 -0.4683 -0.8141
18791TIP3    H177864   2.439   6.803  12.864  1.0571  1.1954 -0.5901
18791TIP3    H277865   2.415   6.892  12.984 -0.9491 -0.9285  0.6255
18792TIP3   OH277866   2.955   5.792   2.044 -0.2947  0.4129 -0.1197
18792TIP3    H177867   2.921   5.718   1.995  1.4081 -0.5209  0.0642
18792TIP3    H277868   2.887   5.859   2.037 -2.0335 -1.2957  0.0492
18793TIP3   OH277869   3.776   3.671  14.650  0.8742  0.6046  0.5147
18793TIP3    H177870   3.858   3.697  14.692  0.5329  0.5347  1.2335
18793TIP3    H277871   3.772   3.576  14.661  0.8076  0.5774  0.2688
18794TIP3   OH277872   4.573   0.400  16.040  0.0302 -0.4737 -0.1804
18794TIP3    H177873   4.499   0.428  15.986 -0.7713 -1.4908  0.3859
18794TIP3    H277874   4.643   0.382  15.977 -0.5975 -0.7143 -0.8111
18795TIP3   OH277875   4.693   3.160   3.686 -0.4889 -0.1784 -0.2427
18795TIP3    H177876   4.757   3.224   3.719 -0.8326  0.4022 -0.6793
18795TIP3    H277877   4.637   3.141   3.761 -0.2145 -0.1747 -0.0364
18796TIP3   OH277878   2.734   2.715   1.245  0.3183  0.4347 -0.1313
18796TIP3    H177879   2.724   2.723   1.150 -1.7467 -1.0076 -0.0704
18796TIP3    H277880   2.650   2.745   1.281  0.9234  0.5593  1.1975
18797TIP3   OH277881   4.303   0.539   0.164  0.2492  0.2066  0.0910
18797TIP3    H177882   4.237   0.533   0.096 -0.2755 -0.2771  0.6335
18797TIP3    H277883   4.379   0.493   0.128  0.0911  0.2485 -0.2973
18798TIP3   OH277884   0.815   6.012   5.303 -0.0834  0.6617 -0.3325
18798TIP3    H177885   0.854   6.010   5.390 -1.9706  0.0838  0.5328
18798TIP3    H277886   0.807   5.920   5.277 -0.3805  0.7909 -0.7164
18799TIP3   OH277887   3.431   1.084  12.799  0.1489 -0.3244  0.0825
18799TIP3    H177888   3.524   1.062  12.803  0.4788  0.6955 -1.5859
18799TIP3    H277889   3.419   1.152  12.865  0.9405  0.7459 -0.8706
18800TIP3   OH277890   5.679   6.243   0.073  0.5442  0.8926  0.1017
18800TIP3    H177891   5.745   6.194   0.121  0.4373  0.8168  0.1692
18800TIP3    H277892   5.650   6.184   0.004  0.4357  0.8714  0.1648
18801TIP3   OH277893   2.950   4.832  16.060  0.7220 -0.5816  0.3583
18801TIP3    H177894   2.864   4.837  16.020 -0.3562 -0.3277  2.6700
18801TIP3    H277895   2.989   4.752  16.022 -0.6104 -0.8403 -0.4840
18802TIP3   OH277896   5.107   1.622  10.689 -0.1868 -0.0476 -0.5713
18802TIP3    H177897   5.087   1.700  10.638  0.4523  0.3437 -0.2330
18802TIP3    H277898   5.188   1.644  10.736 -0.1499 -0.8108 -0.2656
18803TIP3   OH277899   4.704   5.445  13.469  0.2687 -0.1359 -0.5124
18803TIP3    H177900   4.777   5.461  13.529  0.4539 -0.5117 -0.6348
18803TIP3    H277901   4.631   5.418  13.525  0.2514  0.1518 -0.3977
18804TIP3   OH277902   2.417   1.853   0.335  0.0282  0.1936 -0.0091
18804TIP3    H177903   2.415   1.948   0.336  1.3809  0.2362  0.5239
18804TIP3    H277904   2.326   1.826   0.343 -0.3425  1.4412  0.0423
18805TIP3   OH277905   4.890   1.602   3.472 -0.1367  0.0851 -0.5082
18805TIP3    H177906   4.906   1.644   3.556 -0.1141 -1.2971  0.1880
18805TIP3    H277907   4.973   1.558   3.451 -0.4133 -0.2868 -0.8373
18806TIP3   OH277908   0.769   3.374   5.424  0.1322 -0.1932 -0.6850
18806TIP3    H177909   0.818   3.427   5.488 -0.5677 -0.0590 -0.2570
18806TIP3    H277910   0.700   3.432   5.393 -1.4072 -1.2225  0.6959
18807TIP3   OH277911   4.571   0.691   2.581  0.0844 -0.0044  0.1446
18807TIP3    H177912   4.525   0.692   2.665  0.5028 -2.8809  0.4878
18807TIP3    H277913   4.539   0.611   2.538  1.9386 -0.0384 -1.2199
18808TIP3   OH277914   2.690   5.635   4.000 -0.5080 -0.3950 -0.2847
18808TIP3    H177915   2.621   5.666   3.943 -0.4830 -2.4748 -1.4830
18808TIP3    H277916   2.721   5.714   4.046 -0.7473  1.2421 -2.8676
18809TIP3   OH277917   0.989   2.229   6.182 -0.2109 -0.2559  0.0439
18809TIP3    H177918   1.051   2.227   6.256 -0.1608 -0.2792  0.0016
18809TIP3    H277919   0.913   2.276   6.215 -1.2419 -2.4613  0.9531
18810TIP3   OH277920   6.626   0.646   0.834  0.2126  0.1655  0.6013
18810TIP3    H177921   6.717   0.617   0.825  0.3203  0.8836 -0.7530
18810TIP3    H277922   6.632   0.734   0.871  0.1398  0.7033 -0.6290
18811TIP3   OH277923   1.380   2.601  13.122  0.4624 -0.3287 -0.1935
18811TIP3    H177924   1.409   2.564  13.205 -2.3685 -0.5213  0.7624
18811TIP3    H277925   1.408   2.538  13.056  2.2833 -0.4146  0.6332
18812TIP3   OH277926   0.884   6.367   2.696 -0.2824  0.7334  0.4639
18812TIP3    H177927   0.970   6.342   2.663 -0.9160  0.6026 -1.1594
18812TIP3    H277928   0.880   6.329   2.784  0.7478 -0.5315 -0.0121
18813TIP3   OH277929   4.082   4.242   2.234  0.0947  0.0659 -0.1243
18813TIP3    H177930   4.107   4.167   2.180  0.8476 -0.7569  1.3096
18813TIP3    H277931   4.159   4.299   2.233  0.5344 -0.4835  0.9407
18814TIP3   OH277932   5.122   2.069  11.905  0.9588  0.6132 -0.2255
18814TIP3    H177933   5.031   2.098  11.915  0.4487 -1.0721  0.2961
18814TIP3    H277934   5.155   2.064  11.994  2.0076  2.5047 -0.4893
18815TIP3   OH277935   2.598   6.320  13.239 -0.0455 -0.3563 -0.0075
18815TIP3    H177936   2.547   6.401  13.233 -1.3306 -1.1446  0.1540
18815TIP3    H277937   2.636   6.323  13.327  0.8657  0.6122 -0.4123
18816TIP3   OH277938   5.535   3.793  15.029  0.0493 -0.2334 -0.2807
18816TIP3    H177939   5.489   3.839  14.959  1.1200 -0.9550 -1.4924
18816TIP3    H277940   5.583   3.862  15.075  1.2663 -0.0294 -1.7826
18817TIP3   OH277941   2.071   5.769  11.826 -0.1588  0.0667 -0.1367
18817TIP3    H177942   2.154   5.758  11.779 -0.4553 -2.9313 -0.0373
18817TIP3    H277943   2.003   5.758  11.760 -0.5234 -0.6909  0.3575
18818TIP3   OH277944   0.867   5.299   2.719  0.6809  0.1470 -0.3715
18818TIP3    H177945   0.862   5.349   2.800 -0.1314 -0.0075 -0.3271
18818TIP3    H277946   0.960   5.276   2.711  0.6733 -0.3487  0.8163
18819TIP3   OH277947   1.296   4.296   4.107 -0.1907 -0.1314  0.4204
18819TIP3    H177948   1.344   4.290   4.190  0.9840  4.6536  0.1991
18819TIP3    H277949   1.357   4.263   4.042 -0.1267 -1.3461  1.0707
18820TIP3   OH277950   0.792   3.659  13.194 -0.0678 -0.2360  0.5474
18820TIP3    H177951   0.802   3.721  13.121 -0.6838 -0.2619  0.4328
18820TIP3    H277952   0.790   3.715  13.272 -0.9895 -0.0667  0.4169
18821TIP3   OH277953   1.298   2.706  16.545 -0.4854  0.2206  0.0791
18821TIP3    H177954   1.223   2.726  16.490 -0.5537 -1.9875 -0.6946
18821TIP3    H277955   1.374   2.730  16.493 -0.6054  0.7604  0.1494
18822TIP3   OH277956   0.588   2.625   0.621 -0.4178  0.4910 -0.0908
18822TIP3    H177957   0.596   2.532   0.642 -3.4047 -0.0958 -1.1909
18822TIP3    H277958   0.660   2.642   0.560  0.7848 -0.8371  0.9373
18823TIP3   OH277959   2.015   1.845   3.743  0.3180 -0.1720 -0.7977
18823TIP3    H177960   1.935   1.882   3.705 -0.1781 -0.4818 -0.0747
18823TIP3    H277961   2.083   1.909   3.721 -0.4221  0.8945 -0.0714
18824TIP3   OH277962   3.588   3.694   2.561 -0.5841  0.7012  0.6792
18824TIP3    H177963   3.511   3.730   2.519  0.6435  0.8946 -1.4523
18824TIP3    H277964   3.597   3.606   2.524 -0.3294  0.3117  1.6410
18825TIP3   OH277965   2.289   2.983  17.179 -0.4300 -0.7180 -0.1205
18825TIP3    H177966   2.295   2.891  17.154 -2.4286 -0.8762 -0.1345
18825TIP3    H277967   2.331   2.988  17.264 -0.6426 -1.7265  0.0524
18826TIP3   OH277968   5.194   5.590  14.275  0.3492  0.3387 -0.3549
18826TIP3    H177969   5.210   5.624  14.187 -0.1171 -0.4401 -0.7463
18826TIP3    H277970   5.198   5.667  14.332  2.8524  0.5396 -0.7540
18827TIP3   OH277971   3.428   1.067  11.311  0.0821  0.2609 -0.0305
18827TIP3    H177972   3.371   1.062  11.235  0.1618  2.2825 -0.2591
18827TIP3    H277973   3.370   1.055  11.386 -0.1792 -0.5309 -0.3567
18828TIP3   OH277974   4.172   2.961  15.916 -0.2932  0.1928 -0.5252
18828TIP3    H177975   4.249   2.970  15.971  0.7221  0.6376 -1.9824
18828TIP3    H277976   4.191   3.015  15.839 -1.2727 -1.1547 -1.7453
18829TIP3   OH277977   5.965   1.339  16.261 -0.1274  0.0983 -0.2053
18829TIP3    H177978   5.882   1.387  16.267  0.1746  0.4915  0.9310
18829TIP3    H277979   5.953   1.265  16.320  0.4629  0.3540  0.2378
18830TIP3   OH277980   5.788   3.693  11.399 -0.0707 -0.7465  0.3330
18830TIP3    H177981   5.785   3.735  11.313  4.0075 -0.5001  0.1980
18830TIP3    H277982   5.818   3.604  11.380  0.5583 -0.7826  1.4664
18831TIP3   OH277983   0.874   3.416  12.713  0.4149  0.2723  1.1498
18831TIP3    H177984   0.902   3.506  12.695  0.8908  0.1814  1.4281
18831TIP3    H277985   0.919   3.363  12.647 -0.5541  0.3331  0.4287
18832TIP3   OH277986   5.081   5.915  14.316  0.1131 -0.2190  0.2760
18832TIP3    H177987   5.152   5.923  14.252  0.1784  0.3413  0.4182
18832TIP3    H277988   5.075   6.001  14.356 -1.0807 -0.0844 -0.1782
18833TIP3   OH277989   5.819   1.706   5.313 -0.6435 -0.1501 -0.0021
18833TIP3    H177990   5.839   1.786   5.264  1.3330  0.4065  1.6583
18833TIP3    H277991   5.741   1.728   5.364 -0.3354  0.5874  0.1543
18834TIP3   OH277992   1.348   0.017  15.456 -0.8539 -0.1925  0.4752
18834TIP3    H177993   1.271   0.066  15.486 -0.3694  1.3908 -0.7726
18834TIP3    H277994   1.386  -0.020  15.535 -0.7609  2.1675  1.5766
18835TIP3   OH277995   1.983   2.797  12.649 -0.1229 -0.0819  0.3079
18835TIP3    H177996   2.049   2.779  12.716 -0.3780  0.4634  0.7092
18835TIP3    H277997   1.903   2.756  12.682  0.3271 -1.9209 -0.8177
18836TIP3   OH277998   4.872   3.846   0.804  0.7299  0.1078 -0.2210
18836TIP3    H177999   4.932   3.779   0.836 -0.3669 -0.6651  0.2717
18836TIP3    H278000   4.818   3.868   0.880  0.8248  1.2663 -0.4883
18837TIP3   OH278001   0.017   4.744  16.436 -0.3458 -0.1473  0.2058
18837TIP3    H178002   0.014   4.681  16.508  1.3615 -0.2174  0.2326
18837TIP3    H278003  -0.043   4.814  16.463  1.0361  0.3213  2.1856
18838TIP3   OH278004   0.649   6.472   1.390 -0.6231  0.4292  0.3150
18838TIP3    H178005   0.667   6.561   1.422 -1.3810 -0.0373  2.0677
18838TIP3    H278006   0.683   6.472   1.301 -0.3582  2.4032  0.3903
18839TIP3   OH278007   3.250   4.828  11.120 -0.1963 -0.0381 -0.3374
18839TIP3    H178008   3.264   4.889  11.047 -0.3263  0.3581 -0.0289
18839TIP3    H278009   3.201   4.878  11.185  2.4503  0.5121  1.3005
18840TIP3   OH278010   6.065   3.242   0.528 -0.1614  0.0106  0.2504
18840TIP3    H178011   6.092   3.166   0.476 -0.2995 -0.1008  0.3395
18840TIP3    H278012   6.142   3.298   0.530 -0.2110  0.0944 -0.2133
18841TIP3   OH278013   5.432   0.572  14.815  0.2963 -0.4617  0.0170
18841TIP3    H178014   5.496   0.622  14.866  0.6273 -1.0816  0.2123
18841TIP3    H278015   5.348   0.590  14.858  0.4354 -0.1851  0.1720
18842TIP3   OH278016   0.947   2.803  16.911  0.6694  0.1255  0.2873
18842TIP3    H178017   1.042   2.813  16.920  0.6014  0.7019  0.3710
18842TIP3    H278018   0.917   2.778  16.998  0.5984  1.1058  0.5520
18843TIP3   OH278019   3.028   5.263   0.781 -0.4288  0.1460 -0.1477
18843TIP3    H178020   3.094   5.237   0.717  0.8328  1.1099  0.7229
18843TIP3    H278021   3.078   5.284   0.860 -1.6591  1.9843  0.1867
18844TIP3   OH278022   1.369   6.264   5.022 -0.4085  0.2626 -0.2791
18844TIP3    H178023   1.283   6.222   5.013  0.1086 -0.4324 -2.2361
18844TIP3    H278024   1.431   6.200   4.986  0.7425  1.4264 -0.4136
18845TIP3   OH278025   0.520   4.834   0.860 -0.4926  0.3625  0.1707
18845TIP3    H178026   0.546   4.794   0.777  0.2958 -0.0783  0.6222
18845TIP3    H278027   0.459   4.772   0.898  1.0714 -0.6450  1.0775
18846TIP3   OH278028   2.097   1.035  14.446  0.2721  0.0586 -0.6902
18846TIP3    H178029   2.079   1.054  14.354 -0.0348  1.0968 -0.4183
18846TIP3    H278030   2.074   1.115  14.493  2.0132  0.1175  0.1084
18847TIP3   OH278031   0.550   1.137  12.111 -0.6572 -0.1111  0.1795
18847TIP3    H178032   0.465   1.180  12.102 -0.1903  1.1870  1.6945
18847TIP3    H278033   0.598   1.161  12.032 -0.9452  0.9383  0.3140
18848TIP3   OH278034   3.602   1.807  14.034 -0.1874 -0.6029 -0.1777
18848TIP3    H178035   3.586   1.729  13.981  0.5289 -0.6867 -0.2714
18848TIP3    H278036   3.696   1.805  14.052 -0.4666 -0.7267  1.3391
18849TIP3   OH278037   1.533   4.878  16.572 -0.0961  0.0979 -0.6347
18849TIP3    H178038   1.500   4.819  16.640 -1.4390  2.0626  0.4504
18849TIP3    H278039   1.625   4.852  16.560 -0.1515 -0.9933  1.1381
18850TIP3   OH278040   5.189   5.190  15.702  0.0870 -0.3569 -0.2125
18850TIP3    H178041   5.187   5.190  15.798  0.7960  0.1064 -0.1915
18850TIP3    H278042   5.280   5.166  15.681  0.0834  0.1057 -0.7605
18851TIP3   OH278043   5.538   1.548   3.005  0.6943  0.5630 -0.2359
18851TIP3    H178044   5.466   1.566   2.944  1.9230 -0.1610 -1.9667
18851TIP3    H278045   5.587   1.477   2.963  1.7410  0.2497  1.4878
18852TIP3   OH278046   4.951   1.242  17.258  0.0570  0.0120 -0.6862
18852TIP3    H178047   4.878   1.180  17.259  1.5455 -1.7684  0.7620
18852TIP3    H278048   5.001   1.220  17.180  1.4537 -1.7054  0.6517
18853TIP3   OH278049   2.963   0.932  12.298 -0.5674  0.3220 -0.0417
18853TIP3    H178050   2.983   1.021  12.330 -0.7366  0.1914  0.4331
18853TIP3    H278051   2.894   0.945  12.233 -1.0225  0.4838  0.4657
18854TIP3   OH278052   4.913   4.765   0.705  0.1991 -0.2097 -0.2198
18854TIP3    H178053   4.954   4.739   0.623 -0.4743  1.0991 -0.9825
18854TIP3    H278054   4.840   4.821   0.679 -1.7320 -2.0148  1.1182
18855TIP3   OH278055   5.959   0.381   1.606 -0.5764 -0.0391 -0.4334
18855TIP3    H178056   5.980   0.466   1.567 -0.0191 -0.0048 -0.0697
18855TIP3    H278057   6.024   0.321   1.568  0.0222  0.0135  0.4963
18856TIP3   OH278058   3.196   1.886  14.286 -0.2110  0.5736 -0.3806
18856TIP3    H178059   3.289   1.864  14.295 -0.2000  0.1689 -1.3165
18856TIP3    H278060   3.151   1.802  14.291 -0.4347  0.6534 -0.9618
18857TIP3   OH278061   6.342   4.451   2.883 -0.9047 -0.4412 -0.1688
18857TIP3    H178062   6.385   4.366   2.873 -0.2793 -0.0035 -1.3277
18857TIP3    H278063   6.250   4.429   2.900 -0.0751 -1.4059  3.3987
18858TIP3   OH278064   3.701   3.755   0.458 -0.3240  0.1521  0.1786
18858TIP3    H178065   3.649   3.789   0.532 -1.7755 -1.2017 -0.2062
18858TIP3    H278066   3.756   3.687   0.497 -1.4642 -0.9219 -0.0707
18859TIP3   OH278067   4.980   6.626   1.697 -0.0279 -0.4577 -0.4131
18859TIP3    H178068   4.939   6.642   1.612 -0.0330 -0.2510 -0.3716
18859TIP3    H278069   4.989   6.713   1.736  1.2702 -0.4088 -0.8015
18860TIP3   OH278070   1.484   5.010  15.492  0.1989 -0.0050  0.2291
18860TIP3    H178071   1.461   4.940  15.430 -0.3295  0.2493  0.1291
18860TIP3    H278072   1.575   4.992  15.517  0.6066  0.2119 -1.0647
18861TIP3   OH278073   0.541   1.420  16.527  0.7382 -0.3949 -0.5528
18861TIP3    H178074   0.569   1.334  16.559  0.8364 -0.1880 -0.0685
18861TIP3    H278075   0.606   1.480  16.564 -1.1048  0.2584  1.7034
18862TIP3   OH278076   4.320   1.700  16.108 -0.1194 -0.6637 -0.0857
18862TIP3    H178077   4.370   1.761  16.054  0.4316 -2.2507 -1.4514
18862TIP3    H278078   4.304   1.746  16.190  0.7084  1.0979 -0.8966
18863TIP3   OH278079   0.608   3.614  16.284  0.8309 -0.1541  0.0769
18863TIP3    H178080   0.692   3.567  16.286  1.5766  1.1040 -0.6341
18863TIP3    H278081   0.619   3.679  16.215  0.2344  1.8059  1.7576
18864TIP3   OH278082   5.514   3.026  15.568 -0.4816 -0.4289 -0.2678
18864TIP3    H178083   5.503   2.987  15.482 -4.2296  0.0997 -0.1205
18864TIP3    H278084   5.473   3.112  15.561  1.6418  0.7770  1.3136
18865TIP3   OH278085   3.832   0.909   5.174 -0.7657 -0.0458 -0.2781
18865TIP3    H178086   3.784   0.977   5.222 -2.5484 -0.9940 -0.6546
18865TIP3    H278087   3.764   0.859   5.129  0.8071  0.2973 -3.1621
18866TIP3   OH278088   5.320   3.605   3.433 -0.7672 -0.4142  0.1904
18866TIP3    H178089   5.400   3.658   3.424 -0.8152 -0.4434 -0.3840
18866TIP3    H278090   5.263   3.659   3.487 -1.4272  0.8386 -1.6973
18867TIP3   OH278091   6.520   3.690  14.956  0.2002 -0.0396 -0.1258
18867TIP3    H178092   6.476   3.717  15.037  1.4273 -0.8968  0.8427
18867TIP3    H278093   6.580   3.762  14.936  2.3433 -1.2859  1.6037
18868TIP3   OH278094   2.737   5.097  13.938 -0.5317 -1.0596 -0.0808
18868TIP3    H178095   2.729   5.053  13.853 -1.7812 -0.3635 -0.3335
18868TIP3    H278096   2.651   5.087  13.979 -0.6584  0.6515  0.1002
18869TIP3   OH278097   5.720   6.383   1.404  0.2172 -0.5884 -0.2628
18869TIP3    H178098   5.751   6.449   1.342 -0.6056  2.0597  2.0508
18869TIP3    H278099   5.799   6.354   1.450  0.2050  1.0703  0.8377
18870TIP3   OH278100   0.511   6.622   1.796  0.0925 -0.5900  0.0190
18870TIP3    H178101   0.502   6.568   1.875  2.1431 -2.0223 -0.6634
18870TIP3    H278102   0.470   6.570   1.727  0.5583 -0.5056 -0.3240
18871TIP3   OH278103   1.203   1.655  11.629  0.5613  0.4157  0.0937
18871TIP3    H178104   1.158   1.706  11.697 -2.6650 -0.9893 -0.8892
18871TIP3    H278105   1.168   1.689  11.547  0.5216 -1.4062 -0.6575
18872TIP3   OH278106   0.936   4.122  16.658  0.4162  0.5272  0.2743
18872TIP3    H178107   0.909   4.182  16.728  2.2263  0.2539  1.2430
18872TIP3    H278108   1.026   4.100  16.679  0.6818 -0.3280 -1.6426
18873TIP3   OH278109   0.041   2.935   4.896  0.0363  0.0819  0.2487
18873TIP3    H178110   0.108   2.867   4.906 -1.7613 -1.9828 -1.4147
18873TIP3    H278111   0.077   2.992   4.828  0.5154 -0.4984  0.0021
18874TIP3   OH278112   0.007   1.058  15.444 -0.5611 -0.3203 -0.5511
18874TIP3    H178113   0.001   1.110  15.524 -1.1139 -0.1512 -0.6943
18874TIP3    H278114  -0.079   1.068  15.403 -0.9367 -2.0149 -0.1886
18875TIP3   OH278115   2.686   2.440   6.465  0.1735  0.2460  0.0276
18875TIP3    H178116   2.671   2.347   6.451  1.9845  0.0032 -0.4788
18875TIP3    H278117   2.608   2.470   6.512 -1.1825 -1.1589 -1.2565
18876TIP3   OH278118   1.303   1.402  17.082  0.3693  0.4385  0.3017
18876TIP3    H178119   1.357   1.414  17.004 -1.0062  0.4148 -0.6753
18876TIP3    H278120   1.317   1.481  17.133 -0.0579  1.2336 -0.7936
18877TIP3   OH278121   1.684   0.642  16.522 -0.5415  0.1235 -0.2008
18877TIP3    H178122   1.617   0.685  16.469 -2.1386  0.0387  1.6845
18877TIP3    H278123   1.743   0.712  16.549 -1.2085  0.5980  0.0485
18878TIP3   OH278124   2.007   4.855   5.549 -0.0753  0.2661  0.2257
18878TIP3    H178125   1.912   4.854   5.538 -0.3362  1.3616  2.1035
18878TIP3    H278126   2.021   4.827   5.640  1.3888  0.2943  0.0286
18879TIP3   OH278127   0.965   4.106  13.384 -0.1570 -0.2631 -0.3071
18879TIP3    H178128   1.057   4.127  13.367 -0.2107 -0.3095 -0.6606
18879TIP3    H278129   0.918   4.143  13.309 -0.5051  0.3757  0.2229
18880TIP3   OH278130   0.966   5.852  13.620 -0.6671  0.0356  0.1092
18880TIP3    H178131   0.874   5.874  13.606 -0.5221  0.6027  0.0453
18880TIP3    H278132   1.001   5.925  13.672 -0.0416  0.2560 -0.6095
18881TIP3   OH278133   5.572   0.636  13.083  0.0882 -0.3505  0.1807
18881TIP3    H178134   5.636   0.652  13.014  0.2902  1.5906  0.7955
18881TIP3    H278135   5.624   0.612  13.159 -0.0210 -0.4057  0.2388
18882TIP3   OH278136   1.005   2.245   4.704  0.5419  0.2433  0.1763
18882TIP3    H178137   1.006   2.236   4.799  1.8080  1.7409  0.3326
18882TIP3    H278138   0.941   2.313   4.687  0.0001 -0.3238 -0.0952
18883TIP3   OH278139   1.565   4.674  13.709  0.5460  0.1194 -0.1264
18883TIP3    H178140   1.483   4.645  13.669 -1.1943  3.1526  1.1179
18883TIP3    H278141   1.558   4.646  13.801  0.9115  0.4059 -0.0094
18884TIP3   OH278142   5.273   2.898   0.174 -0.1948 -0.3058 -0.3153
18884TIP3    H178143   5.263   2.838   0.101 -0.4687  1.9371 -2.1692
18884TIP3    H278144   5.228   2.978   0.146 -0.5554  0.5044  2.4154
18885TIP3   OH278145   5.826   5.565  15.799  0.9136  0.2258 -0.2809
18885TIP3    H178146   5.780   5.637  15.756  0.3013 -0.1568 -0.2619
18885TIP3    H278147   5.889   5.609  15.858 -1.3539  0.7781  1.8251
18886TIP3   OH278148   5.147   5.741  13.158  0.4257  0.2597  0.5512
18886TIP3    H178149   5.173   5.818  13.109  0.6181 -0.0692  0.1298
18886TIP3    H278150   5.170   5.667  13.101 -2.1464 -0.0079 -0.1723
18887TIP3   OH278151   4.660   1.599   2.856  0.7129  0.1219  0.2463
18887TIP3    H178152   4.708   1.536   2.909  1.0412  0.2352  0.0850
18887TIP3    H278153   4.709   1.680   2.864 -1.9733  1.5341  3.8434
18888TIP3   OH278154   1.158   0.767   2.221  0.3755  0.0613  0.2866
18888TIP3    H178155   1.109   0.776   2.140  1.2711 -1.5336 -0.4772
18888TIP3    H278156   1.172   0.856   2.252 -1.3333  0.6065 -0.4731
18889TIP3   OH278157   3.186   1.085   1.712 -0.2596  0.3072  0.1410
18889TIP3    H178158   3.147   1.047   1.790  0.6315 -0.8772  0.0136
18889TIP3    H278159   3.116   1.079   1.646  0.1925 -2.0458 -0.1592
18890TIP3   OH278160   5.376   4.582  13.725  0.0937 -0.0384 -0.6230
18890TIP3    H178161   5.464   4.573  13.689  1.0445  0.9491  1.3373
18890TIP3    H278162   5.377   4.527  13.804 -0.9106  0.2935 -0.3648
18891TIP3   OH278163   6.765   4.271   3.432  0.0508  0.2108  0.5391
18891TIP3    H178164   6.778   4.363   3.451  1.0307  0.6204 -1.8783
18891TIP3    H278165   6.838   4.247   3.375 -1.2271 -1.5443 -0.4474
18892TIP3   OH278166   3.151   5.011   0.983  0.1844 -0.0822  0.1971
18892TIP3    H178167   3.215   4.973   1.043 -0.4694 -4.3296 -1.6109
18892TIP3    H278168   3.068   4.970   1.007 -0.5033 -0.0816 -2.0627
18893TIP3   OH278169   1.831   2.043  14.740  0.6358 -0.4831 -1.0238
18893TIP3    H178170   1.920   2.054  14.709  0.1698  0.7988 -1.9302
18893TIP3    H278171   1.810   1.951  14.722  0.5596  0.0873 -4.0401
18894TIP3   OH278172   5.436   0.449  13.776 -0.3158  0.2965 -0.4306
18894TIP3    H178173   5.518   0.437  13.730  0.3228  0.9912  0.5097
18894TIP3    H278174   5.379   0.379  13.743  0.6857 -0.2571 -0.9925
18895TIP3   OH278175   2.065   0.811  14.622 -0.2311  0.0428  0.0135
18895TIP3    H178176   1.979   0.850  14.639 -0.5068 -0.8228  0.5748
18895TIP3    H278177   2.100   0.864  14.550 -0.5994  1.3509  0.7640
18896TIP3   OH278178   6.293   4.128   5.800  0.1457 -0.3815  0.0737
18896TIP3    H178179   6.263   4.039   5.821 -0.3614 -0.5499 -1.3073
18896TIP3    H278180   6.213   4.180   5.797  0.1865 -0.3839 -1.4631
18897TIP3   OH278181   1.104   5.729  11.146 -0.3421 -0.3458  0.2952
18897TIP3    H178182   1.098   5.634  11.157  1.1927 -0.4966  0.0152
18897TIP3    H278183   1.078   5.745  11.056 -1.9400 -0.3455  0.7499
18898TIP3   OH278184   0.782   4.123  15.975  0.0779 -0.2652 -0.0853
18898TIP3    H178185   0.757   4.047  15.923 -0.2278 -2.5107  3.2012
18898TIP3    H278186   0.832   4.178  15.915 -1.2889 -2.1311 -3.0479
18899TIP3   OH278187   1.823   3.474   6.628 -0.3948  0.0945  0.3905
18899TIP3    H178188   1.822   3.390   6.583  0.0476  1.5001 -2.3385
18899TIP3    H278189   1.914   3.502   6.625 -0.8070  1.4431 -0.2538
18900TIP3   OH278190   3.730   2.101  15.311 -0.2512 -0.1688  0.3530
18900TIP3    H178191   3.801   2.054  15.267 -0.9322  0.7729 -1.8464
18900TIP3    H278192   3.765   2.190  15.323 -0.8920  0.1910 -0.3876
18901TIP3   OH278193   3.931   1.651  15.071  0.8460 -0.3125 -0.1106
18901TIP3    H178194   3.851   1.673  15.024  1.3459 -0.9578 -1.2900
18901TIP3    H278195   3.948   1.727  15.126 -0.8442 -0.3796  0.5340
18902TIP3   OH278196   2.639   2.137  11.833  0.2700  0.0219  0.3856
18902TIP3    H178197   2.580   2.065  11.856  0.1693  0.6979  2.3981
18902TIP3    H278198   2.658   2.124  11.740 -1.1978 -1.5410  0.2683
18903TIP3   OH278199   6.282   1.528   0.496  0.5174 -0.1067 -0.7427
18903TIP3    H178200   6.199   1.570   0.475  0.6454 -0.0444 -1.1220
18903TIP3    H278201   6.342   1.601   0.513  1.2450 -0.0777 -3.2769
18904TIP3   OH278202   1.277   5.962   5.217  0.6421 -0.3502  0.5180
18904TIP3    H178203   1.221   5.886   5.199 -0.5793  1.1797 -2.4646
18904TIP3    H278204   1.215   6.034   5.231  1.8176  0.8156 -0.1820
18905TIP3   OH278205   1.622   6.807   3.468  0.1145 -0.0905 -0.3743
18905TIP3    H178206   1.640   6.806   3.562 -1.0714  1.7921 -0.0961
18905TIP3    H278207   1.542   6.755   3.458  1.3052 -1.9272 -0.6205
18906TIP3   OH278208   0.709   5.962  11.066 -0.1832  0.6778 -0.2738
18906TIP3    H178209   0.661   6.033  11.023 -2.2250 -1.5501 -1.7245
18906TIP3    H278210   0.648   5.927  11.131  0.6332 -0.1113  0.0884
18907TIP3   OH278211   2.329   0.306   5.969 -0.4821  0.9564  1.1109
18907TIP3    H178212   2.314   0.394   6.002 -2.3589  0.4906  1.5897
18907TIP3    H278213   2.241   0.268   5.962  0.2657 -0.7162  0.4878
18908TIP3   OH278214   0.411   5.247  15.464 -0.2450  0.4080  0.3169
18908TIP3    H178215   0.434   5.256  15.371  0.8755  0.5215  0.6008
18908TIP3    H278216   0.495   5.245  15.509 -0.6833 -1.9603  1.1363
18909TIP3   OH278217   1.674   2.323  14.037  0.3023 -0.0293 -0.0277
18909TIP3    H178218   1.614   2.309  13.964 -3.1823  2.2059  2.1982
18909TIP3    H278219   1.656   2.251  14.097  1.0224 -0.2428 -0.0642
18910TIP3   OH278220   0.228   3.723   1.122 -0.3803 -0.1819  0.0505
18910TIP3    H178221   0.214   3.661   1.193 -1.6948 -1.0533 -0.9560
18910TIP3    H278222   0.207   3.808   1.160 -1.7048 -0.7170  0.5257
18911TIP3   OH278223   5.511   5.627  13.496 -0.1033 -0.2076 -0.1515
18911TIP3    H178224   5.593   5.650  13.538 -0.1189 -0.4884  0.0287
18911TIP3    H278225   5.506   5.686  13.420 -0.3662  0.7195  0.5674
18912TIP3   OH278226   4.888   2.073  11.215  0.1993 -0.2319  0.9771
18912TIP3    H178227   4.893   1.992  11.267 -0.7261 -1.1863 -0.3915
18912TIP3    H278228   4.825   2.128  11.263 -1.7066 -1.6584  0.1809
18913TIP3   OH278229   0.491   5.439   0.903 -0.1984  0.3442 -0.1782
18913TIP3    H178230   0.565   5.458   0.961 -1.2234 -0.2561  1.3520
18913TIP3    H278231   0.529   5.388   0.832  1.1380  1.3605 -0.2126
18914TIP3   OH278232   3.154   6.273   6.161 -0.0240  0.3021 -0.2586
18914TIP3    H178233   3.062   6.286   6.186  0.2343 -1.3359  1.6644
18914TIP3    H278234   3.196   6.242   6.241  2.1330  0.6441 -1.2418
18915TIP3   OH278235   5.508   4.597   6.090 -0.3835  0.3119  0.0280
18915TIP3    H178236   5.446   4.585   6.162  0.5211  0.8028  0.8923
18915TIP3    H278237   5.525   4.508   6.059 -1.0856  0.1290  0.1514
18916TIP3   OH278238   4.242   5.650  17.077 -0.3047 -0.4303  0.3400
18916TIP3    H178239   4.214   5.559  17.069  1.1231 -0.9312  0.8657
18916TIP3    H278240   4.338   5.646  17.073 -0.1692  0.8969  1.7855
18917TIP3   OH278241   1.490   5.931  13.487 -0.0714  0.6263 -0.4904
18917TIP3    H178242   1.560   5.872  13.517  1.8426  1.9509 -2.1456
18917TIP3    H278243   1.492   6.003  13.549 -0.8028  0.0733  0.1734
18918TIP3   OH278244   4.642   4.524   2.471  0.1737  0.5262 -0.4875
18918TIP3    H178245   4.658   4.429   2.470  2.1687  0.7790  2.9237
18918TIP3    H278246   4.565   4.534   2.527  1.4134  1.1026  1.1261
18919TIP3   OH278247   4.106   1.424   6.299 -0.0724  0.6193  0.4444
18919TIP3    H178248   4.133   1.508   6.262  0.8779  0.3285  0.4519
18919TIP3    H278249   4.133   1.428   6.391  3.0318 -0.9470 -0.3158
18920TIP3   OH278250   4.472   1.966   2.875 -0.3963  0.7187  0.8038
18920TIP3    H178251   4.544   1.938   2.931  1.1258  1.5960 -0.6785
18920TIP3    H278252   4.416   1.888   2.867 -0.6198  0.5745  3.4727
18921TIP3   OH278253   1.532   0.009  13.463  0.2915 -0.6012 -0.3222
18921TIP3    H178254   1.534   0.097  13.501  1.6630  0.7375 -3.3486
18921TIP3    H278255   1.613  -0.032  13.494 -0.2456 -0.7446  0.9172
18922TIP3   OH278256   6.496   6.483  14.866  0.0537 -0.5642  0.1267
18922TIP3    H178257   6.415   6.469  14.817 -0.7355 -0.6420  1.4416
18922TIP3    H278258   6.564   6.448  14.809 -0.7689 -0.0416 -1.2158
18923TIP3   OH278259   1.944   3.710   0.337 -0.4080 -0.1263 -0.2122
18923TIP3    H178260   2.005   3.735   0.268 -2.4400 -0.1118 -2.0476
18923TIP3    H278261   1.916   3.622   0.314  0.8473 -1.1391  2.0228
18924TIP3   OH278262   5.058   5.352  14.364  0.1282 -0.4873 -0.0326
18924TIP3    H178263   5.085   5.297  14.291  0.3582 -0.2169 -0.1535
18924TIP3    H278264   5.107   5.434  14.352 -0.7601  0.0116 -0.2594
18925TIP3   OH278265   5.521   2.610  16.727 -0.7977  0.2605  0.1557
18925TIP3    H178266   5.489   2.673  16.792  1.6848  0.3695  1.3436
18925TIP3    H278267   5.466   2.533  16.739 -0.3782  0.2794  2.4232
18926TIP3   OH278268   2.291   6.496   2.527  0.0339 -0.1866 -0.4902
18926TIP3    H178269   2.344   6.527   2.600  0.1198 -2.6113  0.5081
18926TIP3    H278270   2.353   6.486   2.455  0.5085 -0.8437  0.0145
18927TIP3   OH278271   5.408   4.966  16.741 -0.8517 -0.2099  0.0937
18927TIP3    H178272   5.376   4.983  16.830 -1.1374  1.4963 -0.3164
18927TIP3    H278273   5.503   4.969  16.748 -0.8646 -0.5203  0.4189
18928TIP3   OH278274   5.647   0.597  14.431 -0.0761  0.1033  0.0705
18928TIP3    H178275   5.606   0.643  14.358 -0.5216  1.8023  1.3684
18928TIP3    H278276   5.732   0.569  14.396 -1.0651 -0.8395 -1.6891
18929TIP3   OH278277   2.583   4.097  14.572 -0.2009 -0.0732 -0.1697
18929TIP3    H178278   2.595   4.140  14.657 -1.9337  1.2653 -0.5637
18929TIP3    H278279   2.511   4.036  14.586 -1.5951  1.3391 -1.0751
18930TIP3   OH278280   0.880   0.156  12.836 -0.9991  0.0670  0.1299
18930TIP3    H178281   0.811   0.108  12.790 -0.4317 -0.3988 -0.2520
18930TIP3    H278282   0.877   0.123  12.926 -0.4758 -0.8614 -0.1783
18931TIP3   OH278283   3.955   2.682  12.192 -0.0075  0.0433  0.3960
18931TIP3    H178284   4.037   2.732  12.196 -1.1907  1.9453  1.9331
18931TIP3    H278285   3.953   2.633  12.274 -0.4448  0.0234  0.3721
18932TIP3   OH278286   4.497   3.580   1.718  0.3103 -0.0133  0.3822
18932TIP3    H178287   4.531   3.620   1.798  0.8948 -0.1048  0.1844
18932TIP3    H278288   4.430   3.519   1.747  1.4945 -1.0801  0.9078
18933TIP3   OH278289   6.042   0.424  16.923  0.5568 -0.1028  0.0532
18933TIP3    H178290   6.110   0.483  16.956 -0.9048  1.2422  0.6848
18933TIP3    H278291   6.086   0.339  16.916  1.5532  0.0973  3.1747
18934TIP3   OH278292   5.107   4.872   0.458  0.6029 -0.3297  0.2527
18934TIP3    H178293   5.141   4.907   0.541  2.0091 -0.6155 -0.1911
18934TIP3    H278294   5.173   4.894   0.394 -0.8748  0.6214 -0.9758
18935TIP3   OH278295   1.142   0.107   1.573  0.1374  0.5723  0.5737
18935TIP3    H178296   1.063   0.089   1.624 -0.8131 -0.8419 -1.3246
18935TIP3    H278297   1.111   0.157   1.497  0.9504 -0.4667 -0.4717
18936TIP3   OH278298   1.724   2.699  12.735 -0.2211 -0.3048  0.0928
18936TIP3    H178299   1.672   2.779  12.726  0.6152  0.0363 -1.9231
18936TIP3    H278300   1.668   2.640  12.785 -2.8430 -0.1821 -2.5561
18937TIP3   OH278301   0.771   0.051   0.620  0.0323  0.6450  0.0446
18937TIP3    H178302   0.862   0.082   0.625 -0.7618  3.2625 -0.8637
18937TIP3    H278303   0.753   0.044   0.526 -1.2353  1.7941  0.1903
18938TIP3   OH278304   5.237   1.172   0.112  0.8343  0.2868 -0.0134
18938TIP3    H178305   5.228   1.114   0.037  0.5740  2.2555 -1.5419
18938TIP3    H278306   5.147   1.192   0.139  0.8792  1.2525 -0.5317
18939TIP3   OH278307   4.290   2.889   4.520 -0.8079 -0.1772 -0.3531
18939TIP3    H178308   4.248   2.868   4.437 -1.6308  1.4429 -0.3693
18939TIP3    H278309   4.217   2.891   4.583 -0.2862 -0.7129  0.2668
18940TIP3   OH278310   2.259   6.693  11.876 -0.6763 -0.5027 -0.2873
18940TIP3    H178311   2.267   6.749  11.799  0.1771 -1.0143 -0.5815
18940TIP3    H278312   2.172   6.654  11.870 -0.8056 -0.1347 -0.7190
18941TIP3   OH278313   0.294   3.509  13.890 -0.6900 -0.2756 -0.2489
18941TIP3    H178314   0.340   3.586  13.923 -0.2638 -0.6183 -0.0480
18941TIP3    H278315   0.309   3.441  13.955  1.2671 -1.3447 -1.7473
18942TIP3   OH278316   1.837   6.068   1.737 -0.0418 -0.0804 -0.6371
18942TIP3    H178317   1.771   6.067   1.669 -0.4222 -0.3323 -0.2665
18942TIP3    H278318   1.858   5.976   1.752 -0.3545 -0.0579 -0.0374
18943TIP3   OH278319   6.210   5.544   0.021  0.0124 -0.2614 -0.2434
18943TIP3    H178320   6.173   5.472   0.072  1.2164 -0.9547 -0.3269
18943TIP3    H278321   6.291   5.508  -0.015 -0.3204  0.5528 -1.8267
18944TIP3   OH278322   6.768   0.837  10.522 -0.2704 -0.0266  0.6877
18944TIP3    H178323   6.697   0.902  10.532  1.3851  2.3280 -1.9595
18944TIP3    H278324   6.848   0.889  10.524  1.1017 -1.9279 -1.8106
18945TIP3   OH278325   1.178   3.234  14.301 -0.3621  0.3411 -0.0611
18945TIP3    H178326   1.246   3.193  14.247 -1.5881  0.7288 -1.9485
18945TIP3    H278327   1.193   3.328  14.291 -0.3902  0.4139  0.5535
18946TIP3   OH278328   6.768   0.834   3.088  0.5501  0.0366 -0.2361
18946TIP3    H178329   6.792   0.831   3.181 -0.5754 -0.7350  0.0506
18946TIP3    H278330   6.850   0.846   3.042  1.1711  0.0154  0.8483
18947TIP3   OH278331   2.419   3.507  14.298  0.2153  0.0587  0.2525
18947TIP3    H178332   2.362   3.584  14.295 -0.7665 -0.6284  0.8997
18947TIP3    H278333   2.500   3.536  14.256 -0.6707  0.9939 -0.8639
18948TIP3   OH278334   4.394   1.620   2.983  0.0691  0.0258  0.4947
18948TIP3    H178335   4.468   1.613   2.922  0.2662 -3.0130  0.9655
18948TIP3    H278336   4.435   1.620   3.070 -0.2616  3.4196  0.7226
18949TIP3   OH278337   0.086   1.997   6.186  0.1327  0.0339 -0.1941
18949TIP3    H178338   0.047   2.073   6.229 -0.5266 -0.1824 -0.3893
18949TIP3    H278339   0.033   1.985   6.107  1.8542  0.9254 -1.4925
18950TIP3   OH278340   4.099   3.808  11.289 -0.5185  0.1025 -0.5258
18950TIP3    H178341   4.179   3.759  11.269  0.0125 -0.1695  2.0296
18950TIP3    H278342   4.128   3.879  11.347 -2.1809 -0.3837  0.9576
18951TIP3   OH278343   2.217   3.415   3.048  0.1181 -0.0992 -0.6463
18951TIP3    H178344   2.312   3.408   3.059  0.5272  4.8602  0.4316
18951TIP3    H278345   2.181   3.394   3.134  0.5710  1.2825 -0.0904
18952TIP3   OH278346   6.133   6.402   1.919 -0.8838 -0.6352 -0.0796
18952TIP3    H178347   6.196   6.444   1.977  1.8707 -1.1705 -2.5991
18952TIP3    H278348   6.069   6.471   1.900  0.5847  0.8334  0.1323
18953TIP3   OH278349   1.713   1.361  12.120 -0.1445 -0.3454 -0.4928
18953TIP3    H178350   1.705   1.455  12.130 -1.6143 -0.7190  2.2503
18953TIP3    H278351   1.624   1.331  12.103  0.3293 -1.2372 -1.4641
18954TIP3   OH278352   2.947   0.451  16.778 -0.8912  0.1508 -0.1409
18954TIP3    H178353   2.886   0.506  16.731 -0.4183 -0.1915 -1.1819
18954TIP3    H278354   2.896   0.413  16.850 -2.1932 -0.9824 -1.6283
18955TIP3   OH278355   3.571   3.709  16.611 -0.4870 -0.4608  0.2873
18955TIP3    H178356   3.649   3.680  16.659  0.1849 -1.8128 -1.5212
18955TIP3    H278357   3.498   3.664  16.654 -0.1035 -0.3018  1.1087
18956TIP3   OH278358   2.521   2.812   0.571  0.4204 -0.5106 -0.2290
18956TIP3    H178359   2.565   2.854   0.646  2.0249 -0.5538 -1.1313
18956TIP3    H278360   2.591   2.767   0.524 -0.6306 -0.7314 -1.6073
18957TIP3   OH278361   2.391   1.974  16.607  0.0326 -0.1322 -0.2643
18957TIP3    H178362   2.441   1.933  16.677  0.3767 -0.1135 -0.4967
18957TIP3    H278363   2.399   1.913  16.533  1.9802  1.1316 -1.1628
18958TIP3   OH278364   1.066   3.669  15.434  0.2162 -0.3759 -0.4965
18958TIP3    H178365   1.001   3.737  15.453 -0.0297 -1.0536  1.1377
18958TIP3    H278366   1.092   3.686  15.344  0.1823  1.9238 -0.1055
18959TIP3   OH278367   4.240   0.813  14.463  0.4289  0.5414  0.3094
18959TIP3    H178368   4.204   0.774  14.383 -0.0126  0.0132  0.7582
18959TIP3    H278369   4.330   0.837  14.440  0.6869 -0.6811 -0.0114
18960TIP3   OH278370   1.942   3.942   2.189  0.1418 -0.0406  1.1078
18960TIP3    H178371   1.892   3.994   2.126  0.7310  0.3830  0.9855
18960TIP3    H278372   1.888   3.865   2.204  0.8348 -1.0626 -1.3415
18961TIP3   OH278373   0.741   1.264  16.825 -0.5059  0.2384 -0.9679
18961TIP3    H178374   0.732   1.348  16.869  1.4295  2.1523 -3.9769
18961TIP3    H278375   0.792   1.210  16.885 -2.1234  1.0235  1.1765
18962TIP3   OH278376   4.267   4.990   5.464 -0.4512 -0.1957 -0.1046
18962TIP3    H178377   4.215   4.949   5.533 -0.5748  0.6827  0.3246
18962TIP3    H278378   4.350   5.013   5.506 -0.6903  0.7309 -0.1383
18963TIP3   OH278379   2.821   4.983   3.673 -0.0772  0.0024 -0.5525
18963TIP3    H178380   2.793   4.908   3.725 -1.1184 -0.2245 -1.4188
18963TIP3    H278381   2.745   5.004   3.619  0.8347  0.5079 -1.6628
18964TIP3   OH278382   0.690   2.123  11.630 -0.1099 -0.0842 -0.5976
18964TIP3    H178383   0.722   2.047  11.581  0.8228 -0.3561  0.4085
18964TIP3    H278384   0.768   2.159  11.672 -1.0238 -0.5263  1.5732
18965TIP3   OH278385   0.299   5.894  11.001  0.3181 -0.1261  0.7216
18965TIP3    H178386   0.254   5.813  10.977 -0.9087  1.4155 -2.4108
18965TIP3    H278387   0.233   5.945  11.047 -0.6833  1.3753 -2.2677
18966TIP3   OH278388   5.550   4.896  12.576 -0.2312  0.1200  0.0835
18966TIP3    H178389   5.483   4.828  12.572 -1.1422  0.9593  0.7600
18966TIP3    H278390   5.503   4.974  12.607  0.7204  1.1438 -0.9979
18967TIP3   OH278391   3.570   1.466  15.045  0.0510  0.2776 -0.2890
18967TIP3    H178392   3.494   1.408  15.053 -0.3854  0.7330 -1.1653
18967TIP3    H278393   3.534   1.554  15.052  0.6333  0.4652  0.3458
18968TIP3   OH278394   6.306   6.419   3.845 -0.0859 -0.0409 -0.2567
18968TIP3    H178395   6.271   6.507   3.862 -0.8938 -0.5106  0.5298
18968TIP3    H278396   6.317   6.380   3.931 -2.0310 -1.5931 -0.6764
18969TIP3   OH278397   1.429   2.073  12.844 -0.1658 -0.4478  0.1457
18969TIP3    H178398   1.504   2.078  12.784 -0.5137 -0.5577 -0.2959
18969TIP3    H278399   1.369   2.012  12.802 -0.5926 -0.2042  0.4068
18970TIP3   OH278400   4.780   2.691  15.772 -0.1055  0.2943  0.4658
18970TIP3    H178401   4.835   2.724  15.843  0.0704  0.0619  0.4363
18970TIP3    H278402   4.754   2.770  15.723  0.8104  0.3357  0.0376
18971TIP3   OH278403   4.548   3.215   5.850 -0.5657  0.0755 -0.2882
18971TIP3    H178404   4.634   3.179   5.871 -0.5863  0.2723  0.1369
18971TIP3    H278405   4.564   3.279   5.781 -0.5340 -0.7903 -1.0925
18972TIP3   OH278406   2.171   2.080  11.325 -0.1089  0.3277 -0.1891
18972TIP3    H178407   2.155   2.174  11.325  0.8714  0.5283  2.3777
18972TIP3    H278408   2.257   2.070  11.282  0.1437  0.6797  0.2300
18973TIP3   OH278409   0.969   6.757   2.754  0.0098  0.8490 -0.0875
18973TIP3    H178410   0.875   6.756   2.739  0.0272 -1.1263 -0.1225
18973TIP3    H278411   0.985   6.683   2.813  1.5971  0.8716 -0.4703
18974TIP3   OH278412   2.426   5.238   5.142  0.3875  0.3069  0.2892
18974TIP3    H178413   2.495   5.303   5.130 -1.7195  2.7831  1.1514
18974TIP3    H278414   2.439   5.205   5.231  1.3061 -0.2950 -0.0604
18975TIP3   OH278415   4.845   5.267   3.457  0.1429  0.0035  0.2916
18975TIP3    H178416   4.846   5.295   3.365 -0.0745  1.5561  0.7448
18975TIP3    H278417   4.889   5.338   3.504 -1.1995 -0.0136  1.6016
18976TIP3   OH278418   3.642   4.341   4.344  0.5242  0.2093 -0.4100
18976TIP3    H178419   3.672   4.423   4.383  1.7169 -0.2360 -0.3459
18976TIP3    H278420   3.672   4.345   4.253  0.4502 -0.0856 -0.4485
18977TIP3   OH278421   1.954   1.895   5.420  0.3280  0.2204 -0.2308
18977TIP3    H178422   1.883   1.931   5.366  1.8971  1.2002 -1.7075
18977TIP3    H278423   1.916   1.819   5.463 -2.0290  1.5472  0.1161
18978TIP3   OH278424   3.662   0.159  16.293  0.2386  0.4912 -0.2791
18978TIP3    H178425   3.630   0.182  16.380 -0.8774  0.7427 -0.7477
18978TIP3    H278426   3.585   0.128  16.246  0.6331  1.2920 -1.4918
18979TIP3   OH278427   3.155   5.777  10.815 -0.2273 -0.3435  0.5444
18979TIP3    H178428   3.110   5.848  10.860 -1.8033  0.0394 -1.5304
18979TIP3    H278429   3.231   5.757  10.870 -1.7492  0.4720  3.0060
18980TIP3   OH278430   0.818   2.490   5.598 -0.3754  0.2469 -0.6625
18980TIP3    H178431   0.874   2.415   5.613 -2.0748 -0.8391  0.4647
18980TIP3    H278432   0.851   2.558   5.657 -0.7373 -0.6530  0.5845
18981TIP3   OH278433   3.633   2.388   2.991  0.0357  0.1520  0.2281
18981TIP3    H178434   3.607   2.428   3.075 -1.2246 -0.6409  0.2267
18981TIP3    H278435   3.702   2.445   2.958 -1.7652  2.4226  0.2001
18982TIP3   OH278436   4.306   4.344   4.095 -0.1067  0.4985 -0.0752
18982TIP3    H178437   4.310   4.359   4.000 -1.6800  2.4379  0.1230
18982TIP3    H278438   4.298   4.249   4.104 -2.1877  0.4561 -1.9776
18983TIP3   OH278439   2.642   2.367   0.991 -0.3370  0.2389 -1.7562
18983TIP3    H178440   2.659   2.356   0.898  1.6897 -1.9722 -1.1568
18983TIP3    H278441   2.716   2.326   1.035 -2.5338 -1.0973  0.8770
18984TIP3   OH278442   1.923   3.425  13.151 -0.2896 -0.0221  0.1723
18984TIP3    H178443   1.992   3.374  13.194 -0.1790 -0.1069 -0.1071
18984TIP3    H278444   1.842   3.397  13.194 -0.0607  0.7351  1.1353
18985TIP3   OH278445   3.656   5.401   3.174  0.3376 -0.3189 -0.1212
18985TIP3    H178446   3.579   5.373   3.126  0.3829 -0.7182  0.0331
18985TIP3    H278447   3.627   5.474   3.227  0.1761 -0.1771 -0.4081
18986TIP3   OH278448   5.354   1.362  12.305  0.1267  0.6003 -0.2621
18986TIP3    H178449   5.303   1.364  12.225 -0.3829  0.8436  0.0701
18986TIP3    H278450   5.342   1.273  12.339  0.3620  0.4901 -0.4666
18987TIP3   OH278451   4.009   0.116   5.658 -0.0873 -0.1077  0.1951
18987TIP3    H178452   3.943   0.108   5.588  0.6985 -0.3092 -0.5303
18987TIP3    H278453   4.083   0.159   5.616  0.1119  0.4542  1.1108
18988TIP3   OH278454   2.673   3.841   2.707  0.0841 -0.5898 -0.1939
18988TIP3    H178455   2.578   3.846   2.695 -0.3101 -1.8332  2.1359
18988TIP3    H278456   2.693   3.747   2.701  0.7163 -0.6481  2.3078
18989TIP3   OH278457   4.623   6.135  16.370  0.0961  0.7383  0.4433
18989TIP3    H178458   4.610   6.047  16.407  1.6647  0.0448 -0.6053
18989TIP3    H278459   4.559   6.190  16.416  0.2728 -0.6051  2.3556
18990TIP3   OH278460   6.474   2.215  15.411 -0.5047 -0.5287 -0.3141
18990TIP3    H178461   6.475   2.136  15.465  0.0765  0.0571  0.5397
18990TIP3    H278462   6.493   2.286  15.472 -0.7460  0.2451 -1.1291
18991TIP3   OH278463   4.284   1.144   5.672 -0.0273 -0.2454 -1.2479
18991TIP3    H178464   4.188   1.148   5.673 -0.0834 -1.5655  0.8285
18991TIP3    H278465   4.304   1.051   5.670  1.2381  0.0185 -1.4237
18992TIP3   OH278466   6.702   3.208  12.615  0.2653  0.0973 -0.1317
18992TIP3    H178467   6.645   3.270  12.570  1.4260 -0.1160 -1.9554
18992TIP3    H278468   6.672   3.122  12.584  1.0862 -0.0485 -0.5537
18993TIP3   OH278469   0.538   3.232   1.203  0.0009  0.0994  0.3383
18993TIP3    H178470   0.460   3.273   1.167  0.4047  1.4200  0.9314
18993TIP3    H278471   0.588   3.305   1.241  1.5858 -0.6972 -0.1699
18994TIP3   OH278472   3.548   4.421   0.366 -0.1830  0.2450 -0.2671
18994TIP3    H178473   3.637   4.438   0.334  0.0158 -0.2763 -0.0015
18994TIP3    H278474   3.557   4.343   0.421 -0.6068  0.8642  0.6870
18995TIP3   OH278475   6.475   5.518  17.212  0.1483  0.3025  0.2762
18995TIP3    H178476   6.456   5.464  17.135  1.3453  2.4244 -1.5694
18995TIP3    H278477   6.543   5.470  17.260 -1.9908 -2.0028  1.1316
18996TIP3   OH278478   5.478   0.968  11.445 -0.1239  0.4525 -0.1961
18996TIP3    H178479   5.385   0.948  11.432  0.8641 -2.9015 -2.6973
18996TIP3    H278480   5.507   0.907  11.514  1.0140 -1.1236 -2.0176
18997TIP3   OH278481   4.822   2.708   1.155  0.8525 -0.8461  0.0447
18997TIP3    H178482   4.859   2.792   1.184  0.6465 -0.9458  0.6056
18997TIP3    H278483   4.734   2.729   1.125 -0.0156 -1.2021  2.2676
18998TIP3   OH278484   4.424   0.099   2.222 -0.2931 -0.2151  0.3051
18998TIP3    H178485   4.512   0.089   2.187  0.0399 -0.3635  1.1805
18998TIP3    H278486   4.369   0.111   2.145  0.7292  1.7497 -0.1526
18999TIP3   OH278487   4.161   2.993   1.514  0.2794 -0.4555  0.4558
18999TIP3    H178488   4.145   2.905   1.547  0.0110 -0.0486  1.4086
18999TIP3    H278489   4.243   2.985   1.464 -0.0878 -1.3757 -0.0070
19000TIP3   OH278490   1.269   6.627  14.980 -0.2538 -0.5580 -0.3019
19000TIP3    H178491   1.290   6.690  15.049 -1.4710 -0.7014  0.2139
19000TIP3    H278492   1.265   6.679  14.900  1.4951 -0.4398 -0.3413
19001TIP3   OH278493   2.104   4.621  14.478  0.1390  0.1537  0.7455
19001TIP3    H178494   2.077   4.668  14.557 -2.1151 -0.1098  0.1785
19001TIP3    H278495   2.076   4.531  14.493 -0.1092  0.0574 -0.2447
19002TIP3   OH278496   0.300   1.799  17.199 -0.3474  0.4337 -0.1320
19002TIP3    H178497   0.285   1.765  17.111 -0.0171  0.4057 -0.1763
19002TIP3    H278498   0.213   1.798  17.240  0.0291 -2.8141  0.7119
19003TIP3   OH278499   5.617   6.114  10.979  0.3994  0.1989 -0.3271
19003TIP3    H178500   5.650   6.141  11.065  1.1584  1.6398 -1.0529
19003TIP3    H278501   5.525   6.093  10.994  0.8452 -0.8390  1.0957
19004TIP3   OH278502   0.778   3.627   6.677  0.5309 -0.2493  0.5447
19004TIP3    H178503   0.787   3.704   6.733  2.2581  0.3092 -0.4348
19004TIP3    H278504   0.868   3.595   6.667  0.4195  0.2652 -2.7038
19005TIP3   OH278505   4.654   2.759  16.911 -0.1487 -0.3685  0.2989
19005TIP3    H178506   4.636   2.837  16.859 -1.0195  0.0013  1.1280
19005TIP3    H278507   4.715   2.788  16.978 -0.0002 -0.5408  0.2365
19006TIP3   OH278508   1.352   5.368  11.052  0.0539 -0.0709  0.2080
19006TIP3    H178509   1.379   5.404  10.968 -0.1763  0.6761  0.4482
19006TIP3    H278510   1.345   5.274  11.037  0.4119  0.0126 -0.4960
19007TIP3   OH278511   1.914   1.073   1.135 -0.2086  0.2438  0.7372
19007TIP3    H178512   1.901   1.128   1.212 -0.5090  2.0864 -0.6058
19007TIP3    H278513   1.984   1.116   1.086 -1.5449  0.3413 -1.1279
19008TIP3   OH278514   3.297   2.071  15.561 -0.3725  0.3018 -0.7788
19008TIP3    H178515   3.277   2.071  15.467  0.4381 -0.9736 -0.9572
19008TIP3    H278516   3.216   2.041  15.602 -1.3752  2.7055 -0.9027
19009TIP3   OH278517   1.831   2.108   4.395  0.5147 -0.4778 -0.0364
19009TIP3    H178518   1.738   2.089   4.404  0.9644 -1.2682  3.7404
19009TIP3    H278519   1.838   2.203   4.403  0.0221 -0.3975 -0.5555
19010TIP3   OH278520   6.584   0.634  11.705  0.2872 -0.3128 -0.1189
19010TIP3    H178521   6.628   0.659  11.786  0.9878  1.5601 -1.0414
19010TIP3    H278522   6.503   0.685  11.705 -0.1151 -0.9424 -0.2006
19011TIP3   OH278523   1.053   5.176  12.941 -0.1071  0.3995 -0.4191
19011TIP3    H178524   1.061   5.159  12.847 -0.2031 -0.5158 -0.2683
19011TIP3    H278525   1.141   5.200  12.969  0.0091  0.2639 -0.6647
19012TIP3   OH278526   3.096   0.084  15.368 -0.1909 -0.0207  0.1573
19012TIP3    H178527   3.177   0.133  15.358 -1.0556  1.2636 -0.7236
19012TIP3    H278528   3.123  -0.007  15.379  1.5031  0.7329  2.7975
19013TIP3   OH278529   4.504   6.714   1.812  0.4101  0.5084 -0.4304
19013TIP3    H178530   4.470   6.788   1.762 -0.1171  0.6235  0.0882
19013TIP3    H278531   4.426   6.662   1.833  0.6892  0.1936 -0.1729
19014TIP3   OH278532   5.885   4.184   1.898 -0.0058  0.1722  0.1069
19014TIP3    H178533   5.873   4.255   1.835 -0.3909  0.4318  0.4675
19014TIP3    H278534   5.869   4.224   1.983 -0.0895 -0.3169  0.3253
19015TIP3   OH278535   4.657   1.065   4.479  0.0463  0.4266 -0.3717
19015TIP3    H178536   4.649   0.985   4.427  0.1908  0.4613 -0.4476
19015TIP3    H278537   4.582   1.063   4.537 -0.5373  0.7855 -1.1156
19016TIP3   OH278538   2.062   3.106   1.504  0.1795  0.2261 -0.2426
19016TIP3    H178539   2.082   3.139   1.592  1.2001 -0.9015 -0.0443
19016TIP3    H278540   2.010   3.176   1.464  1.5369  1.6876  0.4818
19017TIP3   OH278541   0.151   6.123   3.417 -0.1561  0.5829  0.3371
19017TIP3    H178542   0.181   6.090   3.333  1.4429 -0.2010  1.1973
19017TIP3    H278543   0.090   6.193   3.394  1.9189  1.8921 -1.5067
19018TIP3   OH278544   3.953   3.612  15.073  0.2019 -0.5224  0.3130
19018TIP3    H178545   3.944   3.557  15.151  1.0311  0.4060  1.0795
19018TIP3    H278546   3.909   3.563  15.003 -1.8846 -0.6401  1.6942
19019TIP3   OH278547   5.892   3.846   3.867  0.2254 -0.2234 -0.3388
19019TIP3    H178548   5.806   3.821   3.900 -0.2069  0.9632 -0.5586
19019TIP3    H278549   5.898   3.806   3.781  0.9705 -2.5356  0.7521
19020TIP3   OH278550   2.300   0.314   4.405  0.2335 -0.2611  0.0281
19020TIP3    H178551   2.251   0.322   4.487 -0.8089  0.7659 -0.6872
19020TIP3    H278552   2.250   0.365   4.341  3.5072  2.8405 -0.1874
19021TIP3   OH278553   6.302   6.486   2.107  0.0686  0.4634  0.2215
19021TIP3    H178554   6.387   6.446   2.122  0.1167  0.7506  0.7183
19021TIP3    H278555   6.316   6.579   2.120 -0.4469  0.4581  0.8936
19022TIP3   OH278556   1.692   5.230   0.049 -0.2729 -0.8382 -0.2090
19022TIP3    H178557   1.651   5.180   0.120 -1.0704  2.2541  1.6082
19022TIP3    H278558   1.623   5.237  -0.018 -0.6658 -0.8738  0.1849
19023TIP3   OH278559   0.158   1.716   4.212 -0.1292  0.5056 -0.2552
19023TIP3    H178560   0.098   1.762   4.272 -0.0634 -1.3460  1.2794
19023TIP3    H278561   0.245   1.746   4.239 -0.0435 -0.9686  1.1796
19024TIP3   OH278562   4.804   0.658  11.579  0.0876 -0.2270  0.3458
19024TIP3    H178563   4.734   0.689  11.637 -0.0171  0.2570 -0.0353
19024TIP3    H278564   4.784   0.697  11.494  0.1028 -1.1311 -0.0816
19025TIP3   OH278565   0.280   3.923  13.115 -0.1423 -0.1052 -0.1390
19025TIP3    H178566   0.261   3.830  13.126  0.1800 -0.2978 -1.1953
19025TIP3    H278567   0.239   3.965  13.191  0.4657 -1.1975  0.8103
19026TIP3   OH278568   6.633   6.045   4.985  0.5054 -0.6587  0.0783
19026TIP3    H178569   6.682   5.966   5.008 -0.9072 -2.0246 -1.4356
19026TIP3    H278570   6.586   6.068   5.065  3.2813  0.4842  1.4487
19027TIP3   OH278571   1.442   0.045   0.918 -0.3737 -0.6084 -0.2270
19027TIP3    H178572   1.369   0.001   0.963 -0.2368  0.3786  0.9675
19027TIP3    H278573   1.517   0.030   0.975  0.3035 -1.3541 -1.3032
19028TIP3   OH278574   5.624   3.820   3.922 -0.1445 -0.0789  0.2855
19028TIP3    H178575   5.602   3.809   3.830 -1.3180 -1.6184  0.7207
19028TIP3    H278576   5.561   3.883   3.956 -0.6678 -0.6486  0.3741
19029TIP3   OH278577   3.062   4.952  11.255  0.2034  0.3109  0.5494
19029TIP3    H178578   2.973   4.919  11.249  0.4810 -1.0012  3.1206
19029TIP3    H278579   3.058   5.022  11.320  1.0390  0.3180  0.6034
19030TIP3   OH278580   4.228   2.838  16.436 -0.1548  0.7137 -0.4159
19030TIP3    H178581   4.279   2.769  16.394 -1.8480  0.3025 -1.8547
19030TIP3    H278582   4.223   2.908  16.370 -1.2317  0.8475 -0.2038
19031TIP3   OH278583   4.162   5.066   2.516 -1.1163 -0.6463  0.0004
19031TIP3    H178584   4.186   5.030   2.602 -1.3751 -0.2232  0.2539
19031TIP3    H278585   4.135   5.156   2.535  1.4817  0.3619 -0.9049
19032TIP3   OH278586   6.755   0.443   7.014 -0.1255 -0.3851  0.0231
19032TIP3    H178587   6.792   0.357   7.032 -1.6684 -0.9483  0.5925
19032TIP3    H278588   6.663   0.426   6.992 -0.2659  1.0446 -0.5856
19033TIP3   OH278589   5.194   3.637  13.179 -0.3307  0.6495  0.0811
19033TIP3    H178590   5.281   3.598  13.188  0.9159  3.0272 -1.0877
19033TIP3    H278591   5.202   3.722  13.222 -1.8318  1.2137 -0.7270
19034TIP3   OH278592   4.482   6.709   0.577 -0.0569 -0.2860  0.0678
19034TIP3    H178593   4.415   6.718   0.645 -0.8044 -0.1467 -0.6832
19034TIP3    H278594   4.522   6.796   0.570  0.5793 -0.5102  0.9033
19035TIP3   OH278595   3.327   3.067   5.414 -0.5155 -0.1633  0.3880
19035TIP3    H178596   3.333   3.149   5.463  1.5036  0.2396 -0.4929
19035TIP3    H278597   3.401   3.015   5.445 -0.6708 -0.8832 -0.4476
19036TIP3   OH278598   4.563   6.063   2.875 -0.6008 -0.0649 -0.3423
19036TIP3    H178599   4.582   6.146   2.831 -2.0203 -0.3655 -1.5578
19036TIP3    H278600   4.536   6.089   2.963  1.0481  0.6256 -0.0350
19037TIP3   OH278601   4.579   3.438  15.134  0.9553 -0.2014  0.3446
19037TIP3    H178602   4.498   3.415  15.090  0.8430 -2.7130  1.8164
19037TIP3    H278603   4.563   3.526  15.169 -0.2212  0.3299 -1.4276
19038TIP3   OH278604   0.210   6.525   0.379  0.2438 -0.7392  0.6789
19038TIP3    H178605   0.197   6.443   0.331  1.1646 -0.0443 -0.8089
19038TIP3    H278606   0.173   6.509   0.466 -3.0090 -1.4573 -0.7920
19039TIP3   OH278607   6.607   2.160   2.996  0.2565 -0.5280 -0.1245
19039TIP3    H178608   6.547   2.090   2.969 -0.9355  0.2915  0.3363
19039TIP3    H278609   6.644   2.129   3.079  1.6284 -1.7038 -1.1561
19040TIP3   OH278610   6.734   2.916   2.709 -0.6607  0.7859 -0.0774
19040TIP3    H178611   6.746   2.947   2.619  1.0728  0.4141  0.0115
19040TIP3    H278612   6.694   2.991   2.755 -0.3795  1.4215 -0.8546
19041TIP3   OH278613   4.028   0.103  11.689 -1.1024 -0.0236 -0.0708
19041TIP3    H178614   4.034   0.170  11.757  0.2683  1.1272 -1.2924
19041TIP3    H278615   3.947   0.125  11.641 -0.8248  0.5760 -0.2680
19042TIP3   OH278616   5.171   1.530  16.813  0.6280 -0.5024 -0.3471
19042TIP3    H178617   5.154   1.622  16.837 -0.8133 -0.6103 -0.8971
19042TIP3    H278618   5.246   1.505  16.867  0.4354  0.7088  0.5173
19043TIP3   OH278619   2.412   0.178   1.536 -0.2893 -0.1198  0.9321
19043TIP3    H178620   2.483   0.212   1.481 -0.4666 -0.0832  0.7236
19043TIP3    H278621   2.343   0.154   1.474 -0.6730  0.3558  1.1687
19044TIP3   OH278622   3.377   4.045   2.902 -0.3805  0.1198  0.3324
19044TIP3    H178623   3.424   4.121   2.936 -0.0007  0.5391 -1.1174
19044TIP3    H278624   3.293   4.047   2.948 -0.2869  1.2800  0.4738
19045TIP3   OH278625   1.432   5.804  14.982 -0.0750 -0.0755 -0.0485
19045TIP3    H178626   1.404   5.756  14.904  0.5397 -2.3252  1.0734
19045TIP3    H278627   1.357   5.799  15.042  0.4567 -0.7667  0.5709
19046TIP3   OH278628   0.733   6.486   6.866 -0.4440  0.4960  0.0766
19046TIP3    H178629   0.658   6.539   6.895 -0.3165  1.0633 -0.6066
19046TIP3    H278630   0.781   6.466   6.946 -2.1666 -1.1947  0.7144
19047TIP3   OH278631   5.677   0.607  12.453  0.0155  0.5551  0.2355
19047TIP3    H178632   5.752   0.617  12.394  0.1820  0.2412  0.3947
19047TIP3    H278633   5.672   0.691  12.499 -0.5597  1.0609 -0.7446
19048TIP3   OH278634   1.104   3.409   2.503 -0.0545 -0.2081  0.4374
19048TIP3    H178635   1.182   3.451   2.540  0.0054 -0.7550  0.9327
19048TIP3    H278636   1.032   3.468   2.525  0.2983  0.6158 -0.5622
19049TIP3   OH278637   1.448   5.492  16.594  0.7484 -0.3402  0.1157
19049TIP3    H178638   1.409   5.523  16.512 -1.4295  0.1461  1.3017
19049TIP3    H278639   1.485   5.406  16.572 -1.0356 -0.8417 -1.0604
19050TIP3   OH278640   6.527   6.817   3.664  0.3030  0.6760 -0.3393
19050TIP3    H178641   6.556   6.836   3.575  0.6936  1.1904 -0.1068
19050TIP3    H278642   6.557   6.892   3.716  3.2694 -1.2450  0.8688
19051TIP3   OH278643   6.818   2.800  15.774  0.3204  0.6526 -0.1035
19051TIP3    H178644   6.887   2.802  15.839 -0.3214 -1.2249  0.6626
19051TIP3    H278645   6.737   2.809  15.824 -0.1301  0.0663 -0.7071
19052TIP3   OH278646   1.630   3.162  13.671 -0.3505  0.2809  0.0282
19052TIP3    H178647   1.658   3.139  13.582  2.1318  0.6828  0.6657
19052TIP3    H278648   1.711   3.164  13.722 -1.4291  2.5306  1.7608
19053TIP3   OH278649   2.965   3.004  17.164 -0.2605 -0.4342 -0.0060
19053TIP3    H178650   3.055   3.023  17.188 -0.5778 -0.6730  1.4363
19053TIP3    H278651   2.971   2.935  17.099  0.6118 -0.1747 -0.1932
19054TIP3   OH278652   4.045   5.799  13.971  0.3485  0.8393 -0.4228
19054TIP3    H178653   4.075   5.712  13.996 -0.7026  0.3006 -0.9656
19054TIP3    H278654   4.080   5.813  13.884  0.4328  0.9128 -0.3769
19055TIP3   OH278655   4.777   5.741  15.752  0.5709  0.0994  0.5507
19055TIP3    H178656   4.769   5.689  15.832  2.8257 -1.1676 -0.0023
19055TIP3    H278657   4.866   5.775  15.754  0.7341 -0.1372 -1.5134
19056TIP3   OH278658   6.423   5.529  12.518 -1.0848  0.0147 -0.2161
19056TIP3    H178659   6.459   5.544  12.605 -0.5653  0.2019 -0.4583
19056TIP3    H278660   6.500   5.514  12.463 -1.5207 -2.8050 -0.1304
19057TIP3   OH278661   1.641   0.838  13.162  0.0851  0.7457  0.4036
19057TIP3    H178662   1.658   0.781  13.237 -0.3349  1.8787  1.3643
19057TIP3    H278663   1.718   0.893  13.155  0.3043  0.3675 -0.2681
19058TIP3   OH278664   6.748   3.116  11.663  0.1890  0.0450  0.2683
19058TIP3    H178665   6.686   3.188  11.653  1.7639  1.5288  0.9575
19058TIP3    H278666   6.760   3.107  11.757  1.9133  0.5612  0.1115
19059TIP3   OH278667   3.033   4.736  13.590 -0.1960 -0.4377 -0.2878
19059TIP3    H178668   3.127   4.753  13.592 -0.4860  1.2687 -0.3244
19059TIP3    H278669   3.004   4.748  13.680 -0.9242  2.5514 -0.8486
19060TIP3   OH278670   5.830   0.869  16.248 -0.0197 -0.3038 -0.5010
19060TIP3    H178671   5.825   0.878  16.343 -0.0436  0.2856 -0.5558
19060TIP3    H278672   5.817   0.775  16.232  1.1525 -0.6007  0.1573
19061TIP3   OH278673   0.125   5.756   4.607 -0.5639  0.0347 -0.1050
19061TIP3    H178674   0.134   5.842   4.649  0.5208 -0.8346  1.4695
19061TIP3    H278675   0.174   5.696   4.663 -1.8374 -1.7393 -0.8416
19062TIP3   OH278676   0.616   0.617   0.159  0.4579  0.5030  0.8851
19062TIP3    H178677   0.521   0.617   0.160  0.4600 -0.0505  1.5139
19062TIP3    H278678   0.640   0.528   0.134  0.8082  0.7819  0.2080
19063TIP3   OH278679   6.364   1.150  15.096 -0.0669 -0.1278  0.0528
19063TIP3    H178680   6.456   1.175  15.088  0.4723 -1.0326  2.8677
19063TIP3    H278681   6.362   1.057  15.072 -0.3191 -0.0063 -0.4014
19064TIP3   OH278682   0.229   4.586   5.554  0.3007 -0.4334  0.0807
19064TIP3    H178683   0.306   4.613   5.604  0.5798 -2.3783  0.7461
19064TIP3    H278684   0.170   4.662   5.558  1.1837  0.2018  1.6092
19065TIP3   OH278685   5.969   1.347   3.306 -0.3508  0.1610  0.1183
19065TIP3    H178686   5.987   1.419   3.246 -0.0844  0.0319  0.0419
19065TIP3    H278687   5.874   1.348   3.319 -0.1724  1.6220  1.4694
19066TIP3   OH278688   0.999   0.103   6.028 -0.4948 -0.7014 -0.3217
19066TIP3    H178689   0.928   0.092   6.091 -1.3921 -0.4905 -1.2830
19066TIP3    H278690   1.079   0.090   6.079 -1.2345 -1.3671  0.6787
19067TIP3   OH278691   0.427   0.138   6.214 -0.2259  0.4525 -0.0058
19067TIP3    H178692   0.481   0.209   6.250  1.1453 -1.2770  1.4539
19067TIP3    H278693   0.416   0.077   6.287 -0.9855 -1.0633 -1.3573
19068TIP3   OH278694   4.253   1.948   0.712 -0.5630 -0.6597  0.2912
19068TIP3    H178695   4.273   1.941   0.618 -0.4266 -2.2832  0.4198
19068TIP3    H278696   4.275   1.861   0.747 -2.6516 -0.7525  1.4282
19069TIP3   OH278697   5.028   4.075   4.332  0.2984  0.3706  0.4517
19069TIP3    H178698   5.075   4.158   4.337 -1.8787  1.6707 -0.0853
19069TIP3    H278699   5.023   4.044   4.422  3.7925 -0.7453  0.3132
19070TIP3   OH278700   4.803   4.719   3.732  0.0690  0.2250  0.4896
19070TIP3    H178701   4.825   4.783   3.665 -2.1916  1.0109  0.4453
19070TIP3    H278702   4.774   4.642   3.682 -2.7716  1.2310  0.5197
19071TIP3   OH278703   1.690   4.490   3.359  0.3022  0.2633 -0.3216
19071TIP3    H178704   1.755   4.476   3.290  0.0194 -2.0235 -0.1529
19071TIP3    H278705   1.740   4.517   3.435  1.1121 -1.8381 -0.0917
19072TIP3   OH278706   2.408   2.344  14.062 -0.8158  0.0793 -0.1275
19072TIP3    H178707   2.370   2.386  13.984  0.5099 -1.1187 -1.4574
19072TIP3    H278708   2.392   2.251  14.050  2.2612 -0.4564 -0.6540
19073TIP3   OH278709   5.769   1.243   4.138 -0.1335  0.2205 -0.0306
19073TIP3    H178710   5.785   1.160   4.092 -0.0281 -0.4824  1.2754
19073TIP3    H278711   5.852   1.263   4.181 -0.1279  1.0626 -0.4235
19074TIP3   OH278712   2.003   5.724  13.956  0.3971 -0.4202 -0.1300
19074TIP3    H178713   2.072   5.734  13.890 -0.5180 -2.6607 -1.5095
19074TIP3    H278714   1.933   5.782  13.926  0.9179  0.3976  0.2148
19075TIP3   OH278715   6.646   5.082  15.122  0.2489 -0.1170 -1.0604
19075TIP3    H178716   6.642   5.168  15.081  1.2534  0.3835 -0.1685
19075TIP3    H278717   6.557   5.065  15.151  0.1044  0.8021 -0.9206
19076TIP3   OH278718   0.699   0.981   1.836  0.0916 -0.4904 -0.0279
19076TIP3    H178719   0.670   0.891   1.821 -2.1637  0.3006 -0.5699
19076TIP3    H278720   0.762   0.974   1.908 -0.8826 -2.3524  0.6654
19077TIP3   OH278721   2.729   4.641   0.142  0.5334 -0.0557 -0.0663
19077TIP3    H178722   2.769   4.565   0.100  0.0439  1.2151 -2.9597
19077TIP3    H278723   2.802   4.701   0.158  0.9273 -1.0940  2.2639
19078TIP3   OH278724   6.565   1.667  11.067 -0.4050  0.3561  0.1152
19078TIP3    H178725   6.528   1.755  11.058 -1.2159 -0.0387 -0.4394
19078TIP3    H278726   6.508   1.623  11.130 -0.7513 -0.1829 -0.5727
19079TIP3   OH278727   4.747   2.381   2.428  0.0444  0.2737  0.8723
19079TIP3    H178728   4.770   2.469   2.398 -0.8889  0.0587 -0.5431
19079TIP3    H278729   4.658   2.367   2.394  1.2654 -2.3164 -1.4164
19080TIP3   OH278730   2.168   4.036  14.160 -0.4352  0.3625  0.4444
19080TIP3    H178731   2.195   3.950  14.127 -1.0035  0.7042 -0.9561
19080TIP3    H278732   2.248   4.089  14.159 -0.1681 -0.0268  0.9223
19081TIP3   OH278733   6.785   6.156  15.370 -0.6787 -0.4903 -0.1503
19081TIP3    H178734   6.739   6.221  15.317  0.2568  1.1902  1.0540
19081TIP3    H278735   6.719   6.127  15.434 -0.9022 -0.2317 -0.2608
19082TIP3   OH278736   3.027   2.731   4.021  0.1026  0.0873  0.1855
19082TIP3    H178737   3.099   2.726   4.085 -0.4806 -1.5210  0.7494
19082TIP3    H278738   2.954   2.689   4.066 -0.5677 -0.2348 -1.2101
19083TIP3   OH278739   3.796   2.902   1.247  0.1097 -0.2341  0.4061
19083TIP3    H178740   3.769   2.951   1.169 -0.5587 -1.1331  0.0623
19083TIP3    H278741   3.858   2.837   1.215 -0.3004 -0.7239  0.5844
19084TIP3   OH278742   3.532   2.497  15.733  0.2674 -0.0781  0.0609
19084TIP3    H178743   3.598   2.559  15.703  0.5110  0.8504  2.4219
19084TIP3    H278744   3.582   2.428  15.776 -0.3194  1.3791  3.2018
19085TIP3   OH278745   3.466   3.030   1.202  0.0960  0.3356  0.3842
19085TIP3    H178746   3.534   3.027   1.135 -1.2755 -0.6236 -1.0080
19085TIP3    H278747   3.440   3.122   1.206 -0.8960  0.1707 -1.5596
19086TIP3   OH278748   6.447   3.431  12.575  0.3125  0.0099  0.0707
19086TIP3    H178749   6.430   3.390  12.490 -0.1805  0.1699  0.0843
19086TIP3    H278750   6.464   3.523  12.554 -2.6297  0.6727  0.3633
19087TIP3   OH278751   0.008   3.594   4.455 -0.0637  0.1801 -0.2160
19087TIP3    H178752  -0.002   3.533   4.382 -0.5407 -1.2617  1.0207
19087TIP3    H278753  -0.081   3.616   4.481  0.0845  0.0402  0.4391
19088TIP3   OH278754   2.203   3.801   1.243 -0.2245  0.4468 -0.1046
19088TIP3    H178755   2.225   3.879   1.294 -1.3668  1.4220 -1.0522
19088TIP3    H278756   2.236   3.820   1.155 -0.5222 -0.1401 -0.3445
19089TIP3   OH278757   0.244   5.496   3.513 -0.6854  0.3030 -0.3604
19089TIP3    H178758   0.174   5.543   3.558  1.0168  0.2856  2.4408
19089TIP3    H278759   0.240   5.407   3.548  1.2284  0.5183  0.5245
19090TIP3   OH278760   1.473   2.731   4.913  0.2383  0.4098 -0.8908
19090TIP3    H178761   1.494   2.662   4.849 -0.6582 -0.9470  0.2519
19090TIP3    H278762   1.384   2.757   4.892  0.3944  0.8786 -0.9894
19091TIP3   OH278763   1.130   4.338  11.769 -0.2850 -0.3501  0.7289
19091TIP3    H178764   1.190   4.265  11.756  0.2028  0.5366 -2.1736
19091TIP3    H278765   1.164   4.408  11.714 -1.8172  1.4686  2.0134
19092TIP3   OH278766   4.025   6.051   3.138  0.2633  0.3430  0.3627
19092TIP3    H178767   3.980   6.081   3.059  1.2322 -1.2087 -0.8065
19092TIP3    H278768   3.956   6.043   3.203 -0.7329  0.5368 -0.6488
19093TIP3   OH278769   3.068   4.356   3.366  0.1124 -0.1585  0.6007
19093TIP3    H178770   3.148   4.345   3.314 -0.6974  0.6073 -0.8270
19093TIP3    H278771   3.100   4.366   3.456  1.4863 -2.2950  0.3918
19094TIP3   OH278772   3.221   4.242  13.362  0.0349 -0.3391  0.0147
19094TIP3    H178773   3.270   4.160  13.377  0.6816 -0.2665 -1.6610
19094TIP3    H278774   3.137   4.214  13.328 -0.3929 -0.3679  1.0642
19095TIP3   OH278775   4.417   0.357   1.100  0.2928 -0.2199 -0.2716
19095TIP3    H178776   4.334   0.395   1.071  1.3093  1.9076 -0.5232
19095TIP3    H278777   4.432   0.395   1.187  0.6697 -1.1190  0.0592
19096TIP3   OH278778   1.640   0.207   2.845 -0.3449  0.8518 -0.0350
19096TIP3    H178779   1.589   0.132   2.876 -0.6947  1.0579 -0.1026
19096TIP3    H278780   1.597   0.282   2.886 -0.4685  1.0764 -0.5773
19097TIP3   OH278781   4.445   6.038   0.796 -0.1543 -0.0718  0.0693
19097TIP3    H178782   4.405   6.120   0.768 -0.9569 -0.3552  0.3610
19097TIP3    H278783   4.424   6.030   0.889 -0.1904 -0.6629  0.0159
19098TIP3   OH278784   1.154   6.303   0.429 -0.6852  0.5053  0.3270
19098TIP3    H178785   1.100   6.285   0.507 -2.3028  1.2477 -0.5908
19098TIP3    H278786   1.219   6.233   0.428 -0.7155  0.4131  2.2849
19099TIP3   OH278787   3.855   3.995   5.841  0.2329 -0.1401 -0.0847
19099TIP3    H178788   3.827   4.083   5.813  0.2369 -0.4750 -1.1732
19099TIP3    H278789   3.949   4.004   5.856  0.2781 -0.0134 -0.4352
19100TIP3   OH278790   4.144   2.052   1.112 -0.6031 -0.2217 -0.3743
19100TIP3    H178791   4.127   1.993   1.039 -1.8442 -0.2131 -0.1003
19100TIP3    H278792   4.086   2.127   1.097  0.2290  0.4705 -0.1852
19101TIP3   OH278793   2.751   1.083   6.198  0.4634 -0.1342 -0.2746
19101TIP3    H178794   2.801   1.102   6.277 -0.0574  0.8143 -0.1634
19101TIP3    H278795   2.806   1.022   6.148  1.2946  0.1510  0.2902
19102TIP3   OH278796   0.620   6.121  12.080  0.2977  0.2875  0.1477
19102TIP3    H178797   0.614   6.213  12.108  0.3903  0.0487  0.9598
19102TIP3    H278798   0.529   6.092  12.073  0.2658 -0.6483  3.5450
19103TIP3   OH278799   4.696   4.529  12.398  1.1039 -0.2948  0.1352
19103TIP3    H178800   4.715   4.449  12.348 -2.1588 -0.0637 -1.6044
19103TIP3    H278801   4.668   4.497  12.484  2.4997 -0.8979  0.3667
19104TIP3   OH278802   3.787   2.359  15.266 -0.5030  0.2093 -0.0940
19104TIP3    H178803   3.716   2.365  15.203  0.5757  1.1110 -1.2546
19104TIP3    H278804   3.857   2.414  15.229  1.2899 -1.7128  0.3453
19105TIP3   OH278805   1.497   4.660   5.193 -0.1994 -0.0755 -0.2791
19105TIP3    H178806   1.592   4.662   5.204 -0.2012  0.9683 -0.4380
19105TIP3    H278807   1.477   4.568   5.176  1.0492  0.0621 -2.6717
19106TIP3   OH278808   6.669   1.824  12.260  0.3522  0.2303  0.1255
19106TIP3    H178809   6.679   1.855  12.350  2.2454 -0.8870  0.3251
19106TIP3    H278810   6.589   1.771  12.262 -0.4480  1.4303  0.7862
19107TIP3   OH278811   6.184   4.903   4.497 -0.4182 -0.0843 -0.0225
19107TIP3    H178812   6.279   4.899   4.506 -0.3178 -0.1858 -1.0895
19107TIP3    H278813   6.152   4.830   4.551  0.0812  0.1244  0.5715
19108TIP3   OH278814   4.959   0.044  17.086  0.5952 -0.2008 -0.2987
19108TIP3    H178815   4.971   0.003  17.171 -3.0216  0.0975  0.4369
19108TIP3    H278816   5.014  -0.007  17.026  2.2472 -1.1428  1.9862
19109TIP3   OH278817   6.748   6.508  15.094 -0.3962 -0.2489  0.2124
19109TIP3    H178818   6.789   6.576  15.039  1.2800 -2.4898 -1.3840
19109TIP3    H278819   6.770   6.534  15.184  0.8778  0.9210 -0.4198
19110TIP3   OH278820   1.213   3.539   5.562  0.8817  1.1222  0.3197
19110TIP3    H178821   1.296   3.494   5.544 -0.4452 -1.1705 -0.2246
19110TIP3    H278822   1.171   3.547   5.476 -0.9285 -0.7461  0.9881
19111TIP3   OH278823   4.437   5.746  12.030 -0.3154  0.1240  0.0708
19111TIP3    H178824   4.420   5.660  12.070 -0.1107 -0.1494 -0.4277
19111TIP3    H278825   4.374   5.752  11.959  0.6859 -0.2643 -0.8533
19112TIP3   OH278826   2.025   0.259  13.909 -0.2068 -0.0500 -0.9550
19112TIP3    H178827   2.103   0.274  13.963 -0.7498 -1.1401  0.1777
19112TIP3    H278828   2.058   0.222  13.827  0.5664  0.7816 -1.0131
19113TIP3   OH278829   5.148   1.673   3.942  0.2533  0.3788 -0.3145
19113TIP3    H178830   5.194   1.746   3.984 -0.6251  1.0303 -0.4479
19113TIP3    H278831   5.055   1.692   3.957 -0.0971  0.8565 -2.8808
19114TIP3   OH278832   5.751   4.407   0.100 -0.4270  0.2781 -0.0189
19114TIP3    H178833   5.819   4.381   0.038  1.0604  1.0143  1.2466
19114TIP3    H278834   5.798   4.420   0.183 -2.2908 -0.2266  1.1433
19115TIP3   OH278835   5.222   3.485   6.374  0.2460  0.0578 -0.2813
19115TIP3    H178836   5.150   3.433   6.409  1.4707 -1.4060  0.0891
19115TIP3    H278837   5.180   3.542   6.309 -0.9888 -2.1173 -1.4631
19116TIP3   OH278838   1.580   4.984  12.575  0.4233 -0.6461 -0.3078
19116TIP3    H178839   1.530   5.064  12.591 -0.1919 -1.0621 -0.1443
19116TIP3    H278840   1.522   4.929  12.522 -0.1411 -2.0050  1.6838
19117TIP3   OH278841   5.857   5.799   0.526 -0.1948  0.0084  0.4609
19117TIP3    H178842   5.823   5.729   0.582 -1.4674  0.2426 -0.0021
19117TIP3    H278843   5.818   5.783   0.440  0.8316  0.3185 -0.0714
19118TIP3   OH278844   0.146   1.019   5.128 -0.0938  0.1010 -0.5190
19118TIP3    H178845   0.054   1.001   5.147  0.0688 -1.2958 -1.0348
19118TIP3    H278846   0.191   0.937   5.145  1.0731  0.7873 -0.2329
19119TIP3   OH278847   2.418   6.710  16.333  0.1282  0.4749 -0.3085
19119TIP3    H178848   2.339   6.658  16.316  0.6360 -0.1699 -0.7301
19119TIP3    H278849   2.434   6.697  16.426  0.3594 -0.2916 -0.4491
19120TIP3   OH278850   1.822   4.449  16.060  0.2803 -0.0883  0.2765
19120TIP3    H178851   1.827   4.537  16.097  0.3178  0.3087 -0.6331
19120TIP3    H278852   1.896   4.402  16.098  0.9589  0.6347 -0.1252
19121TIP3   OH278853   0.295   6.763  16.948  0.1259 -0.6178  0.1815
19121TIP3    H178854   0.238   6.768  17.024 -0.5713 -0.3148 -0.3532
19121TIP3    H278855   0.255   6.695  16.893  0.3617 -0.5006 -0.1363
19122TIP3   OH278856   1.593   5.430  11.199  0.7612  0.0367  0.3454
19122TIP3    H178857   1.651   5.458  11.128  0.3267 -0.8348 -0.3733
19122TIP3    H278858   1.513   5.402  11.155 -0.4578  1.8273  1.3861
19123TIP3   OH278859   6.126   3.289  15.480 -0.6477 -0.7838 -0.1903
19123TIP3    H178860   6.201   3.268  15.425 -1.6616  1.2119 -2.4590
19123TIP3    H278861   6.051   3.256  15.431 -1.4760 -0.2456  0.6921
19124TIP3   OH278862   5.835   1.140  16.429  0.0837  0.3997 -0.3233
19124TIP3    H178863   5.809   1.048  16.427  2.2767 -0.3167  1.9734
19124TIP3    H278864   5.754   1.186  16.453 -0.6290 -1.1038  0.2504
19125TIP3   OH278865   6.266   4.556  13.836  0.1449  0.0897  0.0130
19125TIP3    H178866   6.303   4.470  13.815 -0.3615  0.5237 -2.7515
19125TIP3    H278867   6.342   4.608  13.865  1.0209 -0.2775 -1.5947
19126TIP3   OH278868   3.924   3.988  15.486  0.3899 -0.4551 -0.8479
19126TIP3    H178869   3.952   3.942  15.565 -0.3527 -1.1008 -0.9535
19126TIP3    H278870   3.999   4.042  15.462 -0.2970  1.7637  1.7510
19127TIP3   OH278871   4.278   0.809   3.550 -0.1933  0.0655 -0.0572
19127TIP3    H178872   4.317   0.890   3.583  2.9971 -0.0804 -3.1956
19127TIP3    H278873   4.323   0.740   3.597  0.5515  0.0018 -0.8553
19128TIP3   OH278874   4.389   1.420   4.810  0.4761 -0.1082  0.4475
19128TIP3    H178875   4.354   1.365   4.740 -0.2622 -0.4381  1.0757
19128TIP3    H278876   4.371   1.510   4.782  0.5141 -0.2257  0.0442
19129TIP3   OH278877   6.400   5.307  13.830  0.0865 -0.2260 -0.3585
19129TIP3    H178878   6.306   5.322  13.842  0.0253 -0.7716 -0.1486
19129TIP3    H278879   6.413   5.214  13.850  0.1927 -0.9121 -3.3635
19130TIP3   OH278880   3.180   4.152   2.278  0.0867 -0.3308  0.0958
19130TIP3    H178881   3.100   4.100   2.284  0.7167 -1.3686 -0.3960
19130TIP3    H278882   3.249   4.094   2.309  0.5326  0.8540  1.3502
19131TIP3   OH278883   3.361   6.084   2.229  0.0612  0.1651  0.5740
19131TIP3    H178884   3.396   6.062   2.142 -0.9736 -1.1950  0.4767
19131TIP3    H278885   3.285   6.027   2.238 -0.4304  1.0383  1.9639
19132TIP3   OH278886   6.446   1.479   3.492 -0.2642 -0.0205 -0.4416
19132TIP3    H178887   6.440   1.473   3.587 -0.6440  1.1855 -0.3746
19132TIP3    H278888   6.361   1.516   3.466  0.4491  1.1961 -1.0879
19133TIP3   OH278889   5.534   0.006   1.737 -0.1750 -0.0070 -0.1584
19133TIP3    H178890   5.591  -0.016   1.810  2.2246  0.8432 -1.7089
19133TIP3    H278891   5.575   0.082   1.697 -2.0878  0.2509 -1.6878
19134TIP3   OH278892   2.916   4.186  12.334 -0.2329  0.4284 -0.6266
19134TIP3    H178893   2.977   4.219  12.401  2.4942  0.1452 -2.8699
19134TIP3    H278894   2.912   4.092  12.350 -1.1326  0.6287  0.3495
19135TIP3   OH278895   0.636   3.915  14.264 -0.1785 -0.4727  0.3730
19135TIP3    H178896   0.693   3.946  14.334  1.3328 -4.0821  0.8539
19135TIP3    H278897   0.696   3.881  14.198 -1.6984 -1.9024 -0.3158
19136TIP3   OH278898   3.311   4.426  13.047 -0.4621  0.0494 -0.1355
19136TIP3    H178899   3.317   4.521  13.042  0.9683 -0.0513 -0.4198
19136TIP3    H278900   3.358   4.403  13.127  2.4626 -0.6840 -1.9640
19137TIP3   OH278901   4.719   6.736  10.405  0.1612 -0.0235  0.2095
19137TIP3    H178902   4.745   6.729  10.498 -2.7479 -0.9975  0.9874
19137TIP3    H278903   4.643   6.679  10.397  0.2593  0.2006 -2.7852
19138TIP3   OH278904   0.921   0.308   3.062 -0.3635  0.0504 -0.6569
19138TIP3    H178905   1.003   0.302   3.111 -0.2721 -0.8363 -0.9097
19138TIP3    H278906   0.867   0.237   3.097 -2.1103  2.3279  1.4824
19139TIP3   OH278907   0.007   4.643  12.700  0.2559  0.4035  0.3604
19139TIP3    H178908   0.089   4.643  12.750  1.4306  2.1271 -1.4846
19139TIP3    H278909  -0.026   4.733  12.710 -0.9565 -0.0381  0.3507
19140TIP3   OH278910   4.833   5.636  16.726  0.5722  0.3599  0.0551
19140TIP3    H178911   4.920   5.669  16.746  0.7071  0.7461 -1.0981
19140TIP3    H278912   4.825   5.646  16.631 -0.0951 -1.2273 -0.0605
19141TIP3   OH278913   3.790   4.654  11.124 -0.0916 -0.1327 -0.0863
19141TIP3    H178914   3.746   4.579  11.085  0.1952 -1.1758  1.5576
19141TIP3    H278915   3.883   4.639  11.108 -0.1033  0.4011 -0.6672
19142TIP3   OH278916   0.234   3.317   4.896  0.3227 -0.0175  0.1377
19142TIP3    H178917   0.175   3.391   4.911  1.9402  1.2285  0.3738
19142TIP3    H278918   0.227   3.265   4.976  0.4784  0.7879  0.6847
19143TIP3   OH278919   4.745   5.786   3.259  0.2045  0.8458 -0.5799
19143TIP3    H178920   4.798   5.815   3.185 -0.7013 -1.8555 -2.3338
19143TIP3    H278921   4.796   5.717   3.300  0.1695  1.5203  0.6136
19144TIP3   OH278922   3.997   0.042  13.519 -0.4856 -0.8065 -0.3053
19144TIP3    H178923   4.087   0.070  13.532 -0.2033 -1.0719 -1.6186
19144TIP3    H278924   3.958   0.043  13.607  1.2422 -2.2954  0.4931
19145TIP3   OH278925   6.450   1.961  11.424 -0.2610 -0.1241 -0.1073
19145TIP3    H178926   6.470   1.867  11.423  1.3704  0.1950  1.2671
19145TIP3    H278927   6.499   1.995  11.498  2.4576  2.5250 -3.0111
19146TIP3   OH278928   1.181   1.261  13.398  0.4183 -0.0808 -0.0043
19146TIP3    H178929   1.254   1.280  13.340  0.9814  1.8245  1.2670
19146TIP3    H278930   1.222   1.225  13.477  0.0052  0.8296  0.6454
19147TIP3   OH278931   3.573   4.899  13.065 -0.5969 -0.6278  0.0812
19147TIP3    H178932   3.609   4.982  13.097  1.3501 -0.3813 -2.5448
19147TIP3    H278933   3.483   4.897  13.097 -0.0704  1.6223  1.7492
19148TIP3   OH278934   5.814   0.592  16.240 -0.0016 -0.7654  0.1095
19148TIP3    H178935   5.773   0.596  16.326  1.3889  0.4723  0.7313
19148TIP3    H278936   5.883   0.527  16.249  1.1752  0.5139  0.3874
19149TIP3   OH278937   5.007   3.487   0.522  0.4079 -0.6858 -0.1397
19149TIP3    H178938   4.986   3.433   0.446 -0.0270 -1.9383  0.8559
19149TIP3    H278939   5.098   3.512   0.508  0.3146 -0.8441 -1.1119
19150TIP3   OH278940   1.911   2.913   0.460  0.0583 -0.4958  0.4098
19150TIP3    H178941   1.978   2.952   0.404 -1.6123  0.6311 -0.8618
19150TIP3    H278942   1.874   2.841   0.407  1.2947 -2.1278  1.7080
19151TIP3   OH278943   0.460   5.429  12.450  0.2446  0.0197  0.1333
19151TIP3    H178944   0.403   5.485  12.398 -0.2751  0.4096  1.0987
19151TIP3    H278945   0.477   5.480  12.530  1.7398 -0.1963 -0.0266
19152TIP3   OH278946   1.578   6.165   3.628 -0.1899 -0.3366 -0.2166
19152TIP3    H178947   1.657   6.219   3.620 -0.9711  0.9578  0.7165
19152TIP3    H278948   1.611   6.079   3.654  1.1431 -0.6108 -2.6069
19153TIP3   OH278949   0.540   3.905  14.843 -0.0309  0.1102 -0.5419
19153TIP3    H178950   0.542   4.000  14.851  0.6536  0.1532 -1.1867
19153TIP3    H278951   0.450   3.881  14.863 -0.0472  0.8333  0.2990
19154TIP3   OH278952   3.324   0.398   6.173  0.1288  0.2026 -0.4877
19154TIP3    H178953   3.373   0.324   6.137 -0.7180 -0.9278  0.6850
19154TIP3    H278954   3.232   0.376   6.157 -0.2331 -0.0582  1.8672
19155TIP3   OH278955   5.775   6.569  15.961 -0.4785 -0.1853  0.2099
19155TIP3    H178956   5.758   6.613  16.044  0.0749 -0.5987  0.5466
19155TIP3    H278957   5.858   6.607  15.931 -0.8532  0.2117 -0.3217
19156TIP3   OH278958   6.443   5.193   1.299 -0.2611 -0.3378 -0.1475
19156TIP3    H178959   6.416   5.273   1.344  0.3997  0.4794 -1.1749
19156TIP3    H278960   6.524   5.167   1.341  0.2302  0.2946 -0.6855
19157TIP3   OH278961   3.858   6.622  15.151  0.4011  0.0689 -0.5546
19157TIP3    H178962   3.801   6.548  15.131  0.2965  0.1782 -0.6593
19157TIP3    H278963   3.891   6.603  15.239 -0.9863  0.7554  0.1355
19158TIP3   OH278964   4.468   0.804  11.846 -0.0774  0.5604 -0.1172
19158TIP3    H178965   4.525   0.879  11.864 -0.7209  1.0431 -0.0811
19158TIP3    H278966   4.418   0.830  11.769  0.3275 -0.1898 -0.6377
19159TIP3   OH278967   5.483   4.316   1.604 -0.8212  0.4608  0.2051
19159TIP3    H178968   5.511   4.394   1.557  0.8651 -0.5161 -0.4924
19159TIP3    H278969   5.563   4.283   1.645 -1.7904 -0.0966  1.7241
19160TIP3   OH278970   5.412   0.712  12.840  0.8124 -0.3176  0.5230
19160TIP3    H178971   5.430   0.730  12.932  0.5354 -0.4761  0.6088
19160TIP3    H278972   5.403   0.799  12.800 -3.6247 -0.2038  1.5475
19161TIP3   OH278973   5.781   6.135  11.206  0.2242  0.2575 -0.4330
19161TIP3    H178974   5.842   6.206  11.225  1.1300 -0.2764 -1.2899
19161TIP3    H278975   5.808   6.063  11.262  0.4286 -0.0053 -0.8681
19162TIP3   OH278976   0.886   2.257  11.335  0.4432 -0.0877  0.1701
19162TIP3    H178977   0.891   2.280  11.427 -0.8401  0.5192  0.0916
19162TIP3    H278978   0.861   2.164  11.334  1.4498 -0.3672  0.4353
19163TIP3   OH278979   4.176   5.134  12.851 -0.1333 -0.0099  0.1397
19163TIP3    H178980   4.187   5.039  12.845  0.6128  0.0481  0.5390
19163TIP3    H278981   4.145   5.160  12.764 -0.7850 -0.6787  0.1716
19164TIP3   OH278982   2.827   6.254  15.637  0.0063 -0.2091 -0.3989
19164TIP3    H178983   2.893   6.232  15.703  0.0907 -1.2765 -0.8284
19164TIP3    H278984   2.817   6.174  15.585 -1.5145 -0.0116 -0.4346
19165TIP3   OH278985   6.700   0.568   4.796  0.2411  0.4027  0.0757
19165TIP3    H178986   6.754   0.493   4.772 -1.2827 -0.3427 -1.0314
19165TIP3    H278987   6.617   0.554   4.751  0.0290  2.8941 -0.3562
19166TIP3   OH278988   6.458   0.852  16.458  0.2870 -0.3516  0.3437
19166TIP3    H178989   6.430   0.867  16.549  1.9212  1.1002  0.6337
19166TIP3    H278990   6.384   0.807  16.418 -1.7996  1.8699  1.5432
19167TIP3   OH278991   5.123   2.110   5.095  0.3977  0.1048  0.4263
19167TIP3    H178992   5.032   2.135   5.078  0.0313 -1.2315  0.4155
19167TIP3    H278993   5.142   2.146   5.182  0.3038  1.5562 -0.1348
19168TIP3   OH278994   3.111   3.853   5.891 -0.4245  0.2115 -0.2135
19168TIP3    H178995   3.202   3.842   5.917  0.5546 -0.6209 -3.6823
19168TIP3    H278996   3.097   3.948   5.893  1.3031  0.5466 -1.9502
19169TIP3   OH278997   5.525   0.690  15.875 -0.3518 -0.1741 -0.5427
19169TIP3    H178998   5.584   0.704  15.800 -0.9836  0.1412 -0.9837
19169TIP3    H278999   5.448   0.648  15.837  0.1399 -1.8224  0.2409
19170TIP3   OH279000   3.715   1.847   2.156 -0.1751  0.1882  0.1550
19170TIP3    H179001   3.662   1.791   2.101  0.6504 -0.8782  0.4197
19170TIP3    H279002   3.664   1.858   2.236 -0.2108 -0.4466  0.2226
19171TIP3   OH279003   1.853   2.751  13.270 -0.6025 -0.4886  0.1133
19171TIP3    H179004   1.818   2.838  13.289 -0.2763 -0.6802  1.7182
19171TIP3    H279005   1.927   2.766  13.211 -1.8788  0.1225 -1.3530
19172TIP3   OH279006   5.349   3.031  14.405 -0.0449 -0.3047  0.6951
19172TIP3    H179007   5.377   2.958  14.349  0.5781  0.7148 -0.3490
19172TIP3    H279008   5.419   3.041  14.469 -0.1454 -0.6410  0.8584
19173TIP3   OH279009   1.709   5.888  11.815 -0.1693  0.8967  0.2939
19173TIP3    H179010   1.632   5.864  11.763 -0.4005  0.4131  0.8580
19173TIP3    H279011   1.777   5.904  11.750 -0.0721 -1.0571 -0.1168
19174TIP3   OH279012   1.592   0.612  11.039 -0.3684 -0.3786  0.2928
19174TIP3    H179013   1.663   0.561  11.078 -0.3948 -0.4156  0.2926
19174TIP3    H279014   1.636   0.678  10.985 -0.2762  0.8206  1.7985
19175TIP3   OH279015   0.688   1.939  12.611 -0.0054  0.1899  0.6298
19175TIP3    H179016   0.659   1.909  12.525 -1.7022  0.5106  1.0678
19175TIP3    H279017   0.658   2.030  12.617 -1.5850 -0.3969  2.2778
19176TIP3   OH279018   2.946   6.680  12.940  0.0021  0.9452 -0.3767
19176TIP3    H179019   2.962   6.752  13.001 -1.6164  0.7041  0.3755
19176TIP3    H279020   2.954   6.601  12.995 -0.0629  0.6534 -0.7862
19177TIP3   OH279021   5.940   1.982  16.265  0.7452  0.3170 -0.4402
19177TIP3    H179022   5.864   2.028  16.300 -0.2174  0.1203 -2.2302
19177TIP3    H279023   5.938   1.896  16.307 -0.4994  0.0171 -1.0781
19178TIP3   OH279024   0.655   2.726  14.967 -0.3524 -0.4212  0.0400
19178TIP3    H179025   0.570   2.740  15.008 -0.9301  2.2770 -1.9196
19178TIP3    H279026   0.717   2.771  15.025 -0.8883  1.5527 -0.8900
19179TIP3   OH279027   1.698   0.462   1.869 -0.6100 -0.6913  0.7665
19179TIP3    H179028   1.708   0.367   1.882  1.1857 -0.3065  2.4083
19179TIP3    H279029   1.759   0.483   1.798 -2.0037 -0.9451 -0.5467
19180TIP3   OH279030   3.790   2.678  15.167  0.5014  0.1319  0.8210
19180TIP3    H179031   3.759   2.762  15.202 -0.5387 -1.5841  4.2513
19180TIP3    H279032   3.710   2.631  15.143  1.0276 -0.2726 -0.1819
19181TIP3   OH279033   5.351   2.742   4.998 -0.3388  0.6187  0.5655
19181TIP3    H179034   5.416   2.746   4.927 -0.8183 -0.9956  0.0064
19181TIP3    H279035   5.313   2.830   5.001 -0.0181  0.8222 -0.8957
19182TIP3   OH279036   0.712   4.674  13.324  0.3144  0.3544  0.5391
19182TIP3    H179037   0.622   4.705  13.325  0.1303  0.3783 -4.5672
19182TIP3    H279038   0.760   4.739  13.273  2.3325 -1.7598 -0.3720
19183TIP3   OH279039   0.797   1.659  12.400 -0.1304  0.0968  0.2045
19183TIP3    H179040   0.716   1.655  12.350 -0.0949  0.4768  0.1140
19183TIP3    H279041   0.820   1.752  12.401  0.4171 -0.0343  0.0447
19184TIP3   OH279042   3.603   3.298  17.070  0.4862 -0.2998  0.6242
19184TIP3    H179043   3.685   3.347  17.082  0.5506 -0.2916  0.1433
19184TIP3    H279044   3.597   3.285  16.976 -0.1906 -0.0916  0.6379
19185TIP3   OH279045   6.457   1.035  11.535  0.7082 -0.2832 -0.1890
19185TIP3    H179046   6.439   1.013  11.444 -0.3343  2.2451 -0.6358
19185TIP3    H279047   6.547   1.068  11.535  0.6582 -0.1448 -0.3486
19186TIP3   OH279048   1.756   5.547  11.739  0.9209  0.5198 -0.2951
19186TIP3    H179049   1.825   5.493  11.701  0.9367  0.1037  0.3216
19186TIP3    H279050   1.679   5.527  11.687  1.4010  1.4605 -1.3977
19187TIP3   OH279051   3.754   4.673   1.634 -0.2735 -0.1343 -0.2012
19187TIP3    H179052   3.671   4.634   1.608 -0.8012  0.0347  1.1683
19187TIP3    H279053   3.778   4.626   1.714  1.0573 -0.3172 -0.6924
19188TIP3   OH279054   4.391   3.774  14.544  0.8902 -0.3169 -0.1628
19188TIP3    H179055   4.331   3.839  14.508  0.3334 -0.6414  0.1655
19188TIP3    H279056   4.379   3.697  14.487  0.6929 -0.5189  0.1521
19189TIP3   OH279057   5.154   0.512   5.799 -0.3647  0.1119 -0.0860
19189TIP3    H179058   5.150   0.557   5.715 -0.1042 -0.0240 -0.1714
19189TIP3    H279059   5.176   0.421   5.778  2.2687  0.6291  0.2822
19190TIP3   OH279060   6.370   4.470  10.949 -0.2075  0.0403  0.0919
19190TIP3    H179061   6.283   4.473  10.989  0.2328 -0.6549  1.1122
19190TIP3    H279062   6.354   4.476  10.855 -1.2975  0.9060  0.3247
19191TIP3   OH279063   4.490   0.796   5.433 -0.7368  0.3173  0.4699
19191TIP3    H179064   4.485   0.761   5.344  1.0017 -1.2379  0.9469
19191TIP3    H279065   4.420   0.750   5.480  1.7178 -2.8497  1.1585
19192TIP3   OH279066   6.574   0.132  13.665 -0.0373 -0.4998 -0.5758
19192TIP3    H179067   6.587   0.128  13.760  0.1831  0.9989 -0.5345
19192TIP3    H279068   6.566   0.225  13.646  2.4975 -0.6057 -2.3791
19193TIP3   OH279069   0.152   6.160  16.822  0.3336  0.1339 -0.1724
19193TIP3    H179070   0.241   6.191  16.808  0.6661 -0.6761  0.1466
19193TIP3    H279071   0.162   6.076  16.867 -0.6259  0.7505  1.2177
19194TIP3   OH279072   0.433   0.835   4.531 -1.0783  0.6569 -0.4272
19194TIP3    H179073   0.477   0.918   4.515  1.2020 -0.5740 -0.6822
19194TIP3    H279074   0.415   0.799   4.444 -0.9140  0.2922 -0.3113
19195TIP3   OH279075   4.373   2.608   0.108  0.3813 -0.2518 -0.6071
19195TIP3    H179076   4.398   2.681   0.051  0.5584 -1.0629 -1.5869
19195TIP3    H279077   4.280   2.621   0.124  0.9009  1.4683  1.1181
19196TIP3   OH279078   0.722   0.432   5.293 -0.0097 -0.5031  0.2996
19196TIP3    H179079   0.668   0.378   5.350  0.4421  1.2964  2.4894
19196TIP3    H279080   0.776   0.369   5.244 -2.3873 -2.2021 -0.2532
19197TIP3   OH279081   0.482   0.681   4.932  0.3134  0.0032 -0.2412
19197TIP3    H179082   0.464   0.695   4.839 -0.0615  0.6686 -0.0670
19197TIP3    H279083   0.520   0.763   4.962  0.3762 -0.1924  0.2131
19198TIP3   OH279084   3.406   1.391  16.193 -0.0546 -0.2574 -0.4364
19198TIP3    H179085   3.361   1.377  16.110 -0.9881  1.1111 -0.1683
19198TIP3    H279086   3.339   1.429  16.250  0.7565 -0.5936  0.7482
19199TIP3   OH279087   3.284   1.033  11.970  0.0633  0.5939  0.3267
19199TIP3    H179088   3.351   1.006  12.033 -1.1462 -1.0197  0.9646
19199TIP3    H279089   3.238   0.952  11.947 -1.6405  1.6464 -0.1309
19200TIP3   OH279090   3.811   4.073   3.447 -0.3311 -0.2416 -0.2780
19200TIP3    H179091   3.758   4.135   3.498 -0.6595  0.5634 -1.5631
19200TIP3    H279092   3.747   4.025   3.395  0.1778  0.9393 -2.0617
19201TIP3   OH279093   0.787   2.899  15.165 -0.4013 -0.2687  0.0491
19201TIP3    H179094   0.745   2.886  15.250 -1.1807 -0.9423 -0.4309
19201TIP3    H279095   0.878   2.921  15.186 -1.3411  2.7524  1.1305
19202TIP3   OH279096   0.416   2.643   3.893 -0.0018 -0.3076  0.2237
19202TIP3    H179097   0.479   2.578   3.861 -1.5061 -0.8150 -1.7788
19202TIP3    H279098   0.462   2.726   3.885  0.3734 -0.6617 -1.3514
19203TIP3   OH279099   0.449   4.361   3.697  0.2611  0.1478  0.0470
19203TIP3    H179100   0.498   4.281   3.679  0.4573  0.1377  0.6381
19203TIP3    H279101   0.449   4.408   3.613  0.6929 -0.1673 -0.1284
19204TIP3   OH279102   3.165   0.477  12.483  0.0310  0.4433 -0.0892
19204TIP3    H179103   3.151   0.469  12.578 -1.1811  0.6554 -0.2376
19204TIP3    H279104   3.192   0.390  12.455  0.3708  0.3708  0.4414
19205TIP3   OH279105   1.304   2.288   4.741  0.1730  0.0704  0.1557
19205TIP3    H179106   1.278   2.320   4.827  0.0560 -3.0073  1.3120
19205TIP3    H279107   1.222   2.284   4.691 -0.1648 -0.6495  0.7623
19206TIP3   OH279108   3.099   1.328  11.283 -0.1111 -0.5860 -0.0827
19206TIP3    H179109   3.187   1.366  11.283 -0.2940 -0.1713 -0.8637
19206TIP3    H279110   3.114   1.234  11.275  0.2472 -0.4886 -0.5450
19207TIP3   OH279111   4.037   2.408  15.162 -0.2358 -0.4833  0.4115
19207TIP3    H179112   4.085   2.335  15.201 -0.5555 -0.6882  0.4228
19207TIP3    H279113   4.089   2.485  15.185  0.9273 -0.8521 -0.8967
19208TIP3   OH279114   3.134   1.077   5.224  0.1810 -0.4718  0.0227
19208TIP3    H179115   3.114   1.171   5.224 -0.9516 -0.7024  0.7601
19208TIP3    H279116   3.227   1.073   5.203  0.6973  0.9405  1.8399
19209TIP3   OH279117   3.117   6.392   1.705 -0.9378  0.2911  0.1120
19209TIP3    H179118   3.079   6.355   1.785  3.4617  0.8513  2.6269
19209TIP3    H279119   3.098   6.485   1.710 -1.3347  0.2058  0.1669
19210TIP3   OH279120   5.399   6.415   5.442  0.0433  0.0996  0.1526
19210TIP3    H179121   5.307   6.388   5.444  0.3903 -1.0530  1.9512
19210TIP3    H279122   5.438   6.372   5.518  1.9004  1.2175 -0.1415
19211TIP3   OH279123   2.641   1.199  14.775  0.4143  0.0502 -0.5554
19211TIP3    H179124   2.560   1.220  14.730  0.0369  0.5481  0.3354
19211TIP3    H279125   2.710   1.239  14.722  0.0534 -0.1404 -1.1646
19212TIP3   OH279126   3.105   4.275  12.506 -0.3085 -0.5908  0.1197
19212TIP3    H179127   3.129   4.183  12.517 -0.8711 -0.8987 -1.1376
19212TIP3    H279128   3.143   4.318  12.582 -0.6667 -1.9770  1.1124
19213TIP3   OH279129   0.393   1.597  11.131  0.1234 -0.2033  0.4946
19213TIP3    H179130   0.359   1.515  11.094  0.0680 -0.8251  1.9125
19213TIP3    H279131   0.486   1.578  11.148  1.3865  1.5580 -3.5919
19214TIP3   OH279132   0.988   4.255  15.805  0.0583  0.2339  0.0434
19214TIP3    H179133   1.049   4.283  15.738  0.2883  2.7265  1.2360
19214TIP3    H279134   0.921   4.324  15.807 -1.0635 -0.8517  0.9383
19215TIP3   OH279135   4.703   4.925  15.485  0.2541  0.1872  0.3046
19215TIP3    H179136   4.631   4.980  15.515  0.6246  0.4000  0.8127
19215TIP3    H279137   4.765   4.925  15.558  1.0743  0.5445 -0.3873
19216TIP3   OH279138   3.131   3.212   6.101  0.1775 -0.0944  0.3015
19216TIP3    H179139   3.167   3.296   6.130 -2.9796  1.1949  0.6241
19216TIP3    H279140   3.126   3.160   6.182  1.2376 -0.2802  0.2588
19217TIP3   OH279141   1.484   5.215  17.139  0.2739  0.1429  0.0862
19217TIP3    H179142   1.498   5.200  17.045  0.1793  1.7123 -0.1947
19217TIP3    H279143   1.394   5.186  17.154  0.5917 -0.9691 -0.1100
19218TIP3   OH279144   2.519   2.754   5.071 -0.2678 -0.5161  0.0524
19218TIP3    H179145   2.612   2.770   5.056 -0.0492 -1.1860  0.6643
19218TIP3    H279146   2.488   2.829   5.121 -0.7729  1.2591 -2.8069
19219TIP3   OH279147   0.418   5.551  14.607  0.1804 -0.1698 -0.4114
19219TIP3    H179148   0.429   5.505  14.524 -0.9807  1.0753 -1.2780
19219TIP3    H279149   0.334   5.520  14.641  0.6276 -0.6353  0.2753
19220TIP3   OH279150   6.318   2.818  16.533 -0.4970 -0.5466  0.1841
19220TIP3    H179151   6.271   2.871  16.469  0.0043  0.5215  0.6879
19220TIP3    H279152   6.294   2.856  16.618  0.5213 -0.5825  0.5020
19221TIP3   OH279153   1.337   0.075   2.614 -0.2817 -0.3254 -0.4103
19221TIP3    H179154   1.285   0.061   2.535 -0.4676 -1.5896 -0.0760
19221TIP3    H279155   1.276   0.115   2.676 -0.1366  0.6652 -0.9042
19222TIP3   OH279156   6.498   0.525   3.068  0.5425  0.0243 -0.2071
19222TIP3    H179157   6.488   0.595   3.004  1.1634 -1.6699 -2.2122
19222TIP3    H279158   6.409   0.496   3.087  0.3744  0.3661 -0.4864
19223TIP3   OH279159   1.441   4.973  14.097 -0.3833 -0.3861  0.4233
19223TIP3    H179160   1.403   4.892  14.130  0.6295 -0.0627  2.4739
19223TIP3    H279161   1.369   5.018  14.053 -1.4661 -1.4377  1.1038
19224TIP3   OH279162   5.182   3.951  15.183 -0.6874 -0.2431  0.1398
19224TIP3    H179163   5.253   3.985  15.237 -1.1129  0.4671  0.2678
19224TIP3    H279164   5.105   4.002  15.210 -1.7753 -2.6764  1.7534
19225TIP3   OH279165   5.108   0.088   2.945  0.3228  0.5220  0.1802
19225TIP3    H179166   5.046   0.061   3.012 -0.6278 -0.9342 -1.2484
19225TIP3    H279167   5.172   0.016   2.941  0.2027  0.4599 -0.6806
19226TIP3   OH279168   6.506   2.722   0.499 -0.6113 -0.2516  0.1487
19226TIP3    H179169   6.423   2.713   0.547  0.3236  1.1113  2.1187
19226TIP3    H279170   6.498   2.805   0.452 -0.0533  0.3165  1.0364
19227TIP3   OH279171   5.800   5.471  12.029 -0.1844 -0.0992 -0.1650
19227TIP3    H179172   5.709   5.454  12.005 -0.1896  0.5540 -0.6069
19227TIP3    H279173   5.829   5.390  12.072 -1.5402  0.3596  1.6635
19228TIP3   OH279174   4.113   2.337   3.958  0.1743  0.6004  0.1558
19228TIP3    H179175   4.096   2.424   3.922 -0.1331 -0.5516 -2.6128
19228TIP3    H279176   4.199   2.314   3.923 -0.0008 -0.4390  0.3981
19229TIP3   OH279177   2.437   2.003  12.447  0.1963 -0.3066 -0.3010
19229TIP3    H179178   2.419   1.946  12.373  1.2222 -2.4295  1.0340
19229TIP3    H279179   2.527   2.032  12.434 -0.1355  0.5911 -0.6772
19230TIP3   OH279180   3.787   3.815  14.409  0.4906 -0.1552 -0.2646
19230TIP3    H179181   3.814   3.895  14.453  1.2870  0.0029 -1.0304
19230TIP3    H279182   3.750   3.760  14.478 -1.8077  1.6095 -0.0178
19231TIP3   OH279183   1.402   3.669   5.727  0.5171 -0.4452 -0.2340
19231TIP3    H179184   1.352   3.597   5.688  0.4111 -0.0287 -0.8769
19231TIP3    H279185   1.367   3.748   5.686 -0.3663  0.1011  1.5448
19232TIP3   OH279186   1.031   6.398  16.663  0.2209 -0.2972  0.2801
19232TIP3    H179187   1.025   6.378  16.756 -0.0896  0.6733  0.4658
19232TIP3    H279188   0.972   6.472  16.650  1.3851  0.5292 -0.4067
19233TIP3   OH279189   6.645   4.217  13.322  0.0127 -0.3241 -0.2504
19233TIP3    H179190   6.655   4.122  13.315 -0.8095 -0.4969  0.8172
19233TIP3    H279191   6.728   4.247  13.360  1.0714 -0.3690 -2.4619
19234TIP3   OH279192   4.013   4.653  14.711  0.8580 -0.1226 -0.1608
19234TIP3    H179193   3.924   4.626  14.732  1.0075 -0.9450 -0.5845
19234TIP3    H279194   4.030   4.727  14.770 -0.6870  1.1202 -1.2264
19235TIP3   OH279195   5.272   5.876   5.856 -0.0602  0.1681  0.1598
19235TIP3    H179196   5.233   5.789   5.847 -0.4925  0.4014 -0.3061
19235TIP3    H279197   5.364   5.860   5.874  0.0236 -0.3798 -0.7274
19236TIP3   OH279198   4.305   6.497   5.676 -0.1169 -0.3963  0.3354
19236TIP3    H179199   4.243   6.527   5.742 -0.9378 -1.3377 -0.0059
19236TIP3    H279200   4.259   6.427   5.629  0.5599  0.0614 -1.0406
19237TIP3   OH279201   1.506   1.832  16.746  0.4696  0.0525  0.2007
19237TIP3    H179202   1.538   1.863  16.661  0.0112 -3.0713 -1.1723
19237TIP3    H279203   1.570   1.765  16.773 -1.6499 -2.0201  0.2617
19238TIP3   OH279204   2.934   4.392  15.080 -0.1605 -0.1087  0.1442
19238TIP3    H179205   2.894   4.472  15.116 -0.5869 -1.2469  2.2666
19238TIP3    H279206   2.860   4.337  15.055  0.1323 -0.1497 -0.6532
19239TIP3   OH279207   6.123   3.312   2.594 -0.1134  0.4919  0.2214
19239TIP3    H179208   6.138   3.375   2.664 -0.8506  0.6721  0.2214
19239TIP3    H279209   6.200   3.254   2.596  0.5408  1.3524  0.2521
19240TIP3   OH279210   1.666   3.349   2.030 -0.2609 -0.3393  0.4682
19240TIP3    H179211   1.634   3.259   2.018 -1.9272 -0.1716  3.2272
19240TIP3    H279212   1.642   3.393   1.948 -0.8455 -2.0055 -0.2912
19241TIP3   OH279213   0.079   4.589   0.129 -0.1597  0.1563 -0.5778
19241TIP3    H179214   0.132   4.519   0.167 -0.1016 -0.4648 -1.7851
19241TIP3    H279215   0.033   4.627   0.203 -1.6421 -2.3760 -0.1329
19242TIP3   OH279216   4.808   4.273  14.455 -0.2449 -0.2176  0.2810
19242TIP3    H179217   4.844   4.359  14.432 -0.9004 -0.1311 -0.4545
19242TIP3    H279218   4.762   4.287  14.538  0.0832  0.0238  0.4238
19243TIP3   OH279219   2.193   1.380  16.582 -0.5803 -0.2952 -0.1230
19243TIP3    H179220   2.205   1.312  16.649 -1.0068 -0.4386 -0.1914
19243TIP3    H279221   2.149   1.335  16.510 -1.1031  0.1147 -0.0614
19244TIP3   OH279222   0.813   6.545  13.082 -0.2918  0.8337  0.3022
19244TIP3    H179223   0.853   6.493  13.012 -2.6519 -0.4547 -0.1401
19244TIP3    H279224   0.842   6.634  13.065  1.5579  0.0889 -0.5825
19245TIP3   OH279225   3.826   4.146   2.337 -0.3862 -0.2747 -0.0784
19245TIP3    H179226   3.878   4.184   2.266  3.0673  2.1592  3.5870
19245TIP3    H279227   3.852   4.054   2.338 -2.0508 -0.8673 -3.1972
19246TIP3   OH279228   5.244   4.044   4.585 -0.0963 -0.2977  0.0732
19246TIP3    H179229   5.252   3.990   4.663  2.1135  0.1051  0.1508
19246TIP3    H279230   5.246   4.134   4.617  1.1088 -0.1249 -0.4548
19247TIP3   OH279231   1.043   1.680  15.553  0.2117  0.4246 -0.2371
19247TIP3    H179232   0.997   1.606  15.593  1.0422  0.3224  0.5396
19247TIP3    H279233   1.126   1.642  15.524  0.5365  1.0021 -0.0546
19248TIP3   OH279234   3.443   2.554   2.206  0.3618  0.0312  0.7124
19248TIP3    H179235   3.435   2.633   2.152  0.5835  0.5016  1.3671
19248TIP3    H279236   3.536   2.534   2.204  0.0213 -1.4664 -1.2298
19249TIP3   OH279237   1.705   5.168  11.263  0.6047 -0.4019 -0.3659
19249TIP3    H179238   1.643   5.153  11.193  1.6511  0.6412 -1.5330
19249TIP3    H279239   1.705   5.263  11.276  2.7344 -0.2732 -1.1275
19250TIP3   OH279240   1.905   5.983  13.707  0.8246  0.0635  0.3349
19250TIP3    H179241   1.856   5.969  13.788 -1.2653  1.2751 -0.6746
19250TIP3    H279242   1.931   6.075  13.711  0.7761  0.1072 -0.3253
19251TIP3   OH279243   1.812   0.824   6.654  0.7955  0.1295 -0.0749
19251TIP3    H179244   1.850   0.912   6.645 -0.3190  0.5493 -0.7148
19251TIP3    H279245   1.741   0.822   6.590 -0.1323 -0.7316  0.9606
19252TIP3   OH279246   0.027   0.499  15.021 -0.1553 -0.0323 -0.8229
19252TIP3    H179247   0.083   0.556  14.968  1.0871 -0.4327  0.0054
19252TIP3    H279248   0.033   0.413  14.978  0.0391 -0.1216 -0.6215
19253TIP3   OH279249   3.743   2.842  15.776  0.8669 -0.0269  0.6558
19253TIP3    H179250   3.811   2.832  15.710  1.3260 -0.6537  1.2149
19253TIP3    H279251   3.785   2.895  15.844 -0.3966  2.7935 -0.6682
19254TIP3   OH279252   1.360   0.334   1.896 -0.1332 -0.0981  0.0547
19254TIP3    H179253   1.299   0.354   1.967 -0.0146 -0.7939  0.3573
19254TIP3    H279254   1.372   0.239   1.901 -1.6407 -0.4190 -2.1316
19255TIP3   OH279255   4.924   2.339   2.679  0.3109  0.5086  0.1631
19255TIP3    H179256   4.843   2.356   2.631 -0.2221  1.5829  1.4152
19255TIP3    H279257   4.966   2.425   2.687  1.6149 -0.0503 -0.5300
19256TIP3   OH279258   5.011   5.282  15.308 -0.3167 -0.6574  0.4335
19256TIP3    H179259   5.033   5.191  15.287 -0.9746 -0.7347  0.0620
19256TIP3    H279260   4.936   5.302  15.252  0.1696  0.2912  0.1013
19257TIP3   OH279261   5.528   5.966  14.809  0.0999 -0.1236  0.7353
19257TIP3    H179262   5.540   5.897  14.744 -1.7922  0.3622 -0.1639
19257TIP3    H279263   5.606   5.962  14.864  0.7206 -1.9404 -0.2698
19258TIP3   OH279264   3.640   2.107   5.896  0.1059 -0.0890  0.0109
19258TIP3    H179265   3.646   2.203   5.889  0.7952 -0.1778 -0.6806
19258TIP3    H279266   3.611   2.079   5.810 -0.9505 -0.4397  0.4805
19259TIP3   OH279267   4.636   3.649   2.007 -0.2069  0.0991 -0.4055
19259TIP3    H179268   4.699   3.628   2.075  0.9686  0.5007 -1.3643
19259TIP3    H279269   4.678   3.717   1.955 -1.1876 -0.0427 -1.4090
19260TIP3   OH279270   3.448   1.728  16.369 -0.7492  0.2826 -0.1267
19260TIP3    H179271   3.396   1.683  16.435  1.3240 -0.7999  0.8464
19260TIP3    H279272   3.537   1.692  16.381 -0.1493  0.7308 -2.8802
19261TIP3   OH279273   4.905   5.893  12.451 -0.7053  0.4979 -0.3108
19261TIP3    H179274   4.987   5.893  12.402  0.2001  0.5133  1.1745
19261TIP3    H279275   4.850   5.957  12.406  0.3690  1.0444 -0.8607
19262TIP3   OH279276   5.552   4.726   0.858 -0.2941 -0.5800  0.6171
19262TIP3    H179277   5.532   4.698   0.948  1.4917  1.4307  1.6943
19262TIP3    H279278   5.647   4.721   0.852 -0.3896 -0.6143 -1.1551
19263TIP3   OH279279   5.710   1.215   3.058  0.3583 -0.2013  0.3185
19263TIP3    H179280   5.723   1.268   3.137 -2.5998  2.3785 -0.7993
19263TIP3    H279281   5.740   1.272   2.986 -1.8296 -0.4375 -0.8153
19264TIP3   OH279282   4.763   6.477  11.035  0.3590  0.2256  0.8789
19264TIP3    H179283   4.680   6.431  11.040 -0.1433  1.0589  0.3626
19264TIP3    H279284   4.748   6.559  11.083  1.1423  0.0092  1.5127
19265TIP3   OH279285   4.736   3.429   1.282 -0.0205  0.7102 -0.4581
19265TIP3    H179286   4.816   3.431   1.334 -0.4431 -1.9589  0.3490
19265TIP3    H279287   4.685   3.503   1.315  1.2663  1.2615  0.3694
19266TIP3   OH279288   1.720   1.566   1.155 -0.1824  0.6128  0.0682
19266TIP3    H179289   1.700   1.642   1.101 -1.3416  0.1775 -0.1182
19266TIP3    H279290   1.734   1.601   1.242  1.7118  1.3240 -0.5005
19267TIP3   OH279291   2.438   1.794  16.405  0.3281  0.2269 -0.5783
19267TIP3    H179292   2.392   1.746  16.336  0.4403 -0.1962 -0.3599
19267TIP3    H279293   2.530   1.787  16.383  0.3921 -0.2306 -0.1877
19268TIP3   OH279294   1.858   4.007   4.639 -0.0937  0.7058 -0.1325
19268TIP3    H179295   1.802   3.931   4.622 -0.2491  0.9375 -0.6670
19268TIP3    H279296   1.799   4.082   4.631 -0.0295  0.8618  0.7942
19269TIP3   OH279297   6.200   1.196   2.742 -0.3200 -0.0672  0.2614
19269TIP3    H179298   6.205   1.231   2.653  0.9142 -1.5806 -0.2786
19269TIP3    H279299   6.267   1.244   2.791 -1.8370  1.6694  0.7427
19270TIP3   OH279300   4.560   1.188  12.033  0.0140  0.1709  0.3137
19270TIP3    H179301   4.482   1.155  11.987 -0.0898  0.3954  0.3294
19270TIP3    H279302   4.619   1.216  11.963  0.0996 -0.0381  0.3010
19271TIP3   OH279303   4.521   3.963  15.424  0.5095  0.2281 -0.2635
19271TIP3    H179304   4.433   3.947  15.390  0.7659  0.6082 -1.1158
19271TIP3    H279305   4.509   4.028  15.493 -0.0157 -0.5526  0.3853
19272TIP3   OH279306   1.688   6.170  12.814 -0.1045 -0.2869  0.3314
19272TIP3    H179307   1.674   6.093  12.759  0.9858 -0.5405  0.3864
19272TIP3    H279308   1.692   6.135  12.904  2.8018 -0.5151  0.1575
19273TIP3   OH279309   5.172   2.828   0.984 -0.2838 -0.0048 -0.0604
19273TIP3    H179310   5.169   2.924   0.990  1.9918  0.1101 -0.3256
19273TIP3    H279311   5.125   2.808   0.903 -0.1421  0.9432 -0.3865
19274TIP3   OH279312   4.963   4.883   4.489 -0.0984  0.2044 -0.7734
19274TIP3    H179313   4.963   4.933   4.570 -1.7717 -0.0976 -0.5752
19274TIP3    H279314   4.958   4.949   4.420 -1.5129  0.3654 -0.5343
19275TIP3   OH279315   2.937   1.165   0.878  0.0782  0.4202 -0.2011
19275TIP3    H179316   2.893   1.080   0.870  0.6879  0.1682 -0.8232
19275TIP3    H279317   2.869   1.228   0.855  0.5025 -0.0494 -2.8251
19276TIP3   OH279318   4.997   5.252   0.025 -0.8132 -0.1935  0.9009
19276TIP3    H179319   4.966   5.336  -0.007  2.4780  0.1268 -1.6337
19276TIP3    H279320   4.935   5.188  -0.010 -1.2602  0.8412 -0.2015
19277TIP3   OH279321   1.653   5.437  12.013 -0.2732 -0.1218 -0.2609
19277TIP3    H179322   1.693   5.508  11.963 -1.2186  0.9663  0.4891
19277TIP3    H279323   1.680   5.453  12.103 -0.9297 -0.4012 -0.0079
19278TIP3   OH279324   2.900   5.515  16.062  0.6190  0.2188  0.1506
19278TIP3    H179325   2.979   5.479  16.022  0.4453  0.2766 -0.2496
19278TIP3    H279326   2.885   5.598  16.016  0.1149  0.0260 -0.0363
19279TIP3   OH279327   2.182   5.301   1.949 -0.3179  0.0061  0.2498
19279TIP3    H179328   2.088   5.292   1.961 -0.3360 -0.0469  0.0701
19279TIP3    H279329   2.204   5.235   1.883 -0.4284  1.1650 -0.9751
19280TIP3   OH279330   0.467   3.108  12.745  0.7071 -0.1801  0.4047
19280TIP3    H179331   0.405   3.130  12.814  1.2381  0.6524  0.6243
19280TIP3    H279332   0.552   3.135  12.779  0.8833  0.9750 -0.8897
19281TIP3   OH279333   5.571   3.206  14.935 -0.6923 -1.0271 -0.5268
19281TIP3    H179334   5.488   3.199  14.886 -0.5167  0.1743 -1.0214
19281TIP3    H279335   5.574   3.297  14.963 -0.1142 -1.3753  0.5438
19282TIP3   OH279336   5.128   3.132  13.928 -0.8011  0.1420 -0.3755
19282TIP3    H179337   5.138   3.137  14.023 -0.4404 -0.2119 -0.3935
19282TIP3    H279338   5.184   3.202  13.894 -0.7599  0.1275 -0.3375
19283TIP3   OH279339   5.226   0.423  16.934 -0.0091  0.6452  0.1094
19283TIP3    H179340   5.217   0.392  16.844 -0.6697 -0.4856  0.5479
19283TIP3    H279341   5.304   0.379  16.967 -1.1471 -0.8847  0.8457
19284TIP3   OH279342   4.820   3.326   5.866  0.2652  0.4753  0.2071
19284TIP3    H179343   4.776   3.383   5.929  1.1584 -1.2185  2.4302
19284TIP3    H279344   4.888   3.282   5.916  1.5421 -0.3231 -2.1496
19285TIP3   OH279345   4.876   5.117  11.569 -0.4634 -0.3068  0.6998
19285TIP3    H179346   4.943   5.100  11.635  1.2949  0.7207 -0.7765
19285TIP3    H279347   4.863   5.034  11.525  0.7037 -0.2508  0.2310
19286TIP3   OH279348   6.502   1.244   1.120 -0.3033 -0.4171 -0.5858
19286TIP3    H179349   6.485   1.335   1.097  0.4363 -0.1698 -0.1360
19286TIP3    H279350   6.415   1.207   1.136 -0.8393 -0.5136 -3.4619
19287TIP3   OH279351   0.113   3.091  14.580  0.3415 -0.0110 -0.2482
19287TIP3    H179352   0.202   3.117  14.603  0.0952 -0.0435  0.7571
19287TIP3    H279353   0.057   3.159  14.618 -0.0411  0.2495 -1.2575
19288TIP3   OH279354   5.717   0.608  16.487 -0.6578 -0.2098  0.3873
19288TIP3    H179355   5.687   0.697  16.507 -1.1414 -0.0780 -0.8830
19288TIP3    H279356   5.779   0.587  16.557 -0.1700  1.3194  0.4214
19289TIP3   OH279357   6.678   3.225   0.865 -0.2485 -0.5612 -0.9662
19289TIP3    H179358   6.668   3.156   0.931 -1.2135  0.8990  0.4538
19289TIP3    H279359   6.764   3.210   0.827  0.2320 -1.5633  0.4793
19290TIP3   OH279360   0.966   1.830  13.270  0.3018  0.5050 -0.5262
19290TIP3    H179361   1.015   1.749  13.287  0.9173  0.4449 -2.3997
19290TIP3    H279362   1.006   1.895  13.328 -0.6714 -0.6797  1.5155
19291TIP3   OH279363   5.369   0.587   4.114 -0.2902 -0.3783 -0.3267
19291TIP3    H179364   5.335   0.498   4.124  0.9321 -0.7486  0.8425
19291TIP3    H279365   5.330   0.636   4.186  1.4351 -0.7684  0.9288
19292TIP3   OH279366   0.675   5.570   5.032 -0.0737 -0.0256  0.2579
19292TIP3    H179367   0.618   5.570   5.110  0.1148 -1.4720  0.4070
19292TIP3    H279368   0.714   5.483   5.031  1.6303  0.7133 -0.2358
19293TIP3   OH279369   0.009   5.783  16.272  0.5295 -0.4905 -0.2377
19293TIP3    H179370  -0.032   5.867  16.254 -0.3545 -0.5109  1.5996
19293TIP3    H279371  -0.012   5.765  16.364  2.3392 -1.7973 -0.0563
19294TIP3   OH279372   2.559   1.693   3.086 -0.2951 -0.5271 -0.1522
19294TIP3    H179373   2.652   1.690   3.112 -0.0343 -0.1736 -1.0391
19294TIP3    H279374   2.561   1.689   2.991 -1.3411 -4.1518 -0.1027
19295TIP3   OH279375   0.214   0.610   2.680  0.7748  0.6720  0.5037
19295TIP3    H179376   0.255   0.693   2.654  0.4480  0.4715 -0.6800
19295TIP3    H279377   0.211   0.559   2.599 -0.5071  0.1331  0.8901
19296TIP3   OH279378   5.157   5.464  15.973 -0.7287  0.4241  0.4661
19296TIP3    H179379   5.189   5.378  16.001 -0.2799  0.3873 -0.1431
19296TIP3    H279380   5.185   5.524  16.042  1.1198  0.4695 -0.3042
19297TIP3   OH279381   4.601   2.122   1.247 -0.0393 -0.4904  0.4086
19297TIP3    H179382   4.636   2.052   1.302  2.2805 -0.5265 -1.0123
19297TIP3    H279383   4.545   2.076   1.183 -1.9798 -0.5410  2.0987
19298TIP3   OH279384   1.656   2.398  16.998  0.2875  0.1748  0.0789
19298TIP3    H179385   1.601   2.473  17.024 -0.6760 -0.0851 -1.1659
19298TIP3    H279386   1.647   2.336  17.071 -1.3451  0.0031 -0.2378
19299TIP3   OH279387   6.811   3.194   5.003 -0.2808 -0.4382  0.7285
19299TIP3    H179388   6.747   3.239   4.947  1.9664  2.3302  0.3416
19299TIP3    H279389   6.823   3.109   4.960 -0.8146  0.5044 -1.3680
19300TIP3   OH279390   0.829   5.190  12.574  0.5067 -0.7387 -0.7485
19300TIP3    H179391   0.824   5.144  12.490  2.5921  2.2226 -2.6052
19300TIP3    H279392   0.923   5.193  12.594 -0.0298 -2.2927  2.2583
19301TIP3   OH279393   2.300   5.506   3.186  0.0211  0.4795 -0.3094
19301TIP3    H179394   2.339   5.577   3.237  0.1232  0.9840 -1.0860
19301TIP3    H279395   2.240   5.550   3.126 -1.8233 -0.2954  0.9319
19302TIP3   OH279396   4.922   4.439   1.834 -0.4233  0.3048 -0.7341
19302TIP3    H179397   5.011   4.473   1.819 -0.1540  0.1148  0.4564
19302TIP3    H279398   4.872   4.515   1.860 -0.5226  0.3348 -1.0063
19303TIP3   OH279399   1.926   5.545  17.157 -0.5003  0.4030 -0.2015
19303TIP3    H179400   1.995   5.601  17.192  0.0839 -1.3244  1.5025
19303TIP3    H279401   1.898   5.492  17.232 -3.2959  0.6672 -1.0009
19304TIP3   OH279402   6.509   3.909  13.735 -0.0844 -0.0597  0.0488
19304TIP3    H179403   6.420   3.905  13.769 -0.2418  0.7838 -0.2739
19304TIP3    H279404   6.539   3.997  13.756  0.8702 -0.5148  0.6498
19305TIP3   OH279405   3.544   6.313   3.230 -0.7268 -0.2250  0.3044
19305TIP3    H179406   3.554   6.236   3.287  1.0956 -0.4059 -0.2321
19305TIP3    H279407   3.513   6.277   3.147 -1.0463 -0.2334  0.4255
19306TIP3   OH279408   3.153   2.917  13.477 -0.0584  0.1403 -0.0750
19306TIP3    H179409   3.169   2.892  13.568  2.7234 -0.7178 -0.7538
19306TIP3    H279410   3.167   3.011  13.475 -1.5163  0.3999  0.6239
19307TIP3   OH279411   6.363   2.035   1.867  0.2826  0.2337  0.8940
19307TIP3    H179412   6.398   1.945   1.866  0.4176  0.2911  0.6597
19307TIP3    H279413   6.406   2.079   1.795  0.0648  0.4349  0.8858
19308TIP3   OH279414   1.907   0.188   5.650  0.5409  0.3500 -0.0220
19308TIP3    H179415   1.885   0.206   5.742  0.7395  3.1621 -0.4619
19308TIP3    H279416   1.868   0.102   5.633  0.2467 -0.1034  2.6005
19309TIP3   OH279417   0.205   4.982   5.803  0.0052 -0.4171 -0.6142
19309TIP3    H179418   0.237   4.907   5.852  0.5801  0.5748  0.5538
19309TIP3    H279419   0.110   4.970   5.800 -0.1205 -0.0695  1.4692
19310TIP3   OH279420   0.179   3.473   2.057  0.0041  0.6028 -0.0233
19310TIP3    H179421   0.268   3.490   2.089 -0.0957  0.5790  0.2669
19310TIP3    H279422   0.156   3.388   2.095  1.0981 -0.9716 -2.7079
19311TIP3   OH279423   5.174   2.892   0.500 -0.0852 -0.4902  0.2215
19311TIP3    H179424   5.204   2.843   0.577  1.2549  1.0719  0.7135
19311TIP3    H279425   5.187   2.832   0.427  1.8116 -0.7789  0.7799
19312TIP3   OH279426   0.141   3.007  14.322  0.2975  0.4158 -0.0530
19312TIP3    H179427   0.158   3.048  14.407 -2.5106  0.0512  0.7618
19312TIP3    H279428   0.066   3.057  14.287  0.6622 -0.2180 -1.7550
19313TIP3   OH279429   4.251   5.295   5.395  0.1675 -0.0032  0.1824
19313TIP3    H179430   4.291   5.380   5.379  0.1219  0.1722  0.9672
19313TIP3    H279431   4.251   5.287   5.491 -0.6181 -0.5075  0.1375
19314TIP3   OH279432   5.638   1.486  15.707  0.3880 -0.1304  0.1805
19314TIP3    H179433   5.721   1.528  15.683  1.8738 -1.1518  3.3426
19314TIP3    H279434   5.641   1.479  15.802 -1.9312 -3.0938  0.1046
19315TIP3   OH279435   2.306   5.115   3.870  0.3070  0.4963 -0.3928
19315TIP3    H179436   2.351   5.044   3.823 -0.6160  0.1131 -0.7070
19315TIP3    H279437   2.224   5.128   3.822 -0.9085 -0.2766  1.4115
19316TIP3   OH279438   6.026   0.650   3.426 -0.2462  0.3386 -0.1828
19316TIP3    H179439   5.940   0.678   3.393 -0.6985 -2.0289 -1.1057
19316TIP3    H279440   6.007   0.575   3.482  0.8978  2.0663  2.5868
19317TIP3   OH279441   2.653   6.241  10.862  0.1561 -0.0790  0.0828
19317TIP3    H179442   2.643   6.181  10.788  2.2626  0.0776 -0.3572
19317TIP3    H279443   2.575   6.225  10.916 -0.6292 -1.3093 -1.3615
19318TIP3   OH279444   6.007   2.624   1.923  0.0755  0.3236 -0.6298
19318TIP3    H179445   5.991   2.702   1.976  0.3286 -0.9730  1.3744
19318TIP3    H279446   6.067   2.654   1.854  0.9270  1.6647  0.6746
19319TIP3   OH279447   4.893   2.914   3.400 -0.0177  0.1566 -0.1490
19319TIP3    H179448   4.871   2.869   3.318 -1.0667 -0.6180  0.5375
19319TIP3    H279449   4.936   2.995   3.372  2.2420 -1.4056 -1.4234
19320TIP3   OH279450   0.487   4.531  14.773  0.0160 -0.1751 -0.3186
19320TIP3    H179451   0.496   4.623  14.798 -0.3499 -0.2554  0.1391
19320TIP3    H279452   0.576   4.497  14.772  0.0938  0.0002  0.2489
19321TIP3   OH279453   2.889   6.391   3.517  0.0000 -0.9467  0.4008
19321TIP3    H179454   2.814   6.427   3.469 -1.4379 -1.8113  1.9193
19321TIP3    H279455   2.885   6.434   3.602  0.0224 -2.4679  1.1912
19322TIP3   OH279456   3.149   0.295   3.087 -0.1230  0.0103 -0.0866
19322TIP3    H179457   3.053   0.289   3.089 -0.1727  0.5106 -0.7743
19322TIP3    H279458   3.176   0.232   3.021 -0.0698  0.8394 -0.8660
19323TIP3   OH279459   2.325   2.618   4.758  0.7765 -0.2340 -0.1035
19323TIP3    H179460   2.297   2.701   4.717  0.9788 -0.0840  0.0609
19323TIP3    H279461   2.420   2.625   4.763  0.9977 -1.3911 -2.0704
19324TIP3   OH279462   5.716   0.618   2.626 -0.5073 -0.0333  0.5025
19324TIP3    H179463   5.788   0.630   2.688 -0.4474  0.6211  0.3110
19324TIP3    H279464   5.711   0.701   2.578 -0.1764 -0.7398 -0.7722
19325TIP3   OH279465   5.870   4.147   3.227 -0.5457  0.5606  0.1398
19325TIP3    H179466   5.786   4.136   3.183  0.1401  0.8002 -1.2669
19325TIP3    H279467   5.931   4.171   3.157  0.6933  0.4044  1.1394
19326TIP3   OH279468   6.686   5.099   0.282 -0.1030 -0.2381  0.7052
19326TIP3    H179469   6.695   5.055   0.367  0.6106  0.1821  0.8552
19326TIP3    H279470   6.748   5.172   0.287  0.7804 -0.8802 -0.6078
19327TIP3   OH279471   1.606   5.302  13.657 -0.2546 -0.0518 -0.6797
19327TIP3    H179472   1.558   5.219  13.656  1.3931 -1.0634  1.0614
19327TIP3    H279473   1.621   5.321  13.565 -1.7618 -1.0328 -1.1528
19328TIP3   OH279474   0.910   1.080   0.588  0.0875 -0.7295 -0.0745
19328TIP3    H179475   0.815   1.068   0.582  0.0436 -0.7537  0.6342
19328TIP3    H279476   0.945   1.028   0.516 -0.4357 -0.7113 -0.3481
19329TIP3   OH279477   5.040   3.344  11.423  0.0122 -0.2952  0.3554
19329TIP3    H179478   5.046   3.402  11.499 -0.8755 -0.0378  0.2374
19329TIP3    H279479   5.093   3.268  11.447  0.3268  0.0995  0.9376
19330TIP3   OH279480   0.606   1.177  11.804  0.2286 -1.0770  0.2688
19330TIP3    H179481   0.516   1.162  11.775  0.0077  0.6054  0.0144
19330TIP3    H279482   0.616   1.272  11.799  1.4191 -1.0993  2.1006
19331TIP3   OH279483   1.008   4.176  16.386  0.9461  0.2988  0.1751
19331TIP3    H179484   1.061   4.156  16.462 -1.3107  0.4115  1.8322
19331TIP3    H279485   0.924   4.133  16.403  0.1492  0.9514 -1.8989
19332TIP3   OH279486   4.024   3.282  13.842  0.5181 -0.3423 -0.1559
19332TIP3    H179487   3.975   3.363  13.856 -0.1838 -0.8394  0.3257
19332TIP3    H279488   4.116   3.308  13.849  0.2967  0.3966  0.0709
19333TIP3   OH279489   5.743   3.261  16.087  0.1508 -0.7098 -0.0627
19333TIP3    H179490   5.723   3.353  16.069 -0.8236 -0.6396  1.2943
19333TIP3    H279491   5.827   3.246  16.045  0.5208  0.9320  0.0700
19334TIP3   OH279492   3.121   3.078   4.133 -0.1765 -0.5776 -0.0914
19334TIP3    H179493   3.128   3.002   4.075 -0.8546 -0.8710  0.2073
19334TIP3    H279494   3.207   3.084   4.175 -0.2325 -1.3847  0.1413
19335TIP3   OH279495   2.808   4.877   2.086 -0.4724  0.9412  0.8719
19335TIP3    H179496   2.728   4.864   2.035 -0.0404 -0.4594  0.5427
19335TIP3    H279497   2.878   4.862   2.023  0.0751 -1.1764  1.9671
19336TIP3   OH279498   3.550   5.842   3.562 -0.7054  0.0304 -0.0150
19336TIP3    H179499   3.487   5.846   3.634 -0.1382  0.4120  0.4653
19336TIP3    H279500   3.557   5.748   3.542 -0.1159 -0.1769  1.1046
19337TIP3   OH279501   4.703   0.156   3.044 -0.2055 -0.5799  0.3581
19337TIP3    H179502   4.660   0.102   2.978 -0.3837 -0.4846  0.3942
19337TIP3    H279503   4.631   0.185   3.101 -0.5133  1.8173 -1.1669
19338TIP3   OH279504   5.583   2.933   4.411  0.3729 -0.1251  0.0126
19338TIP3    H179505   5.517   2.866   4.427 -0.8137  1.4652  2.1215
19338TIP3    H279506   5.639   2.897   4.342 -2.6532 -1.5470 -1.7719
19339TIP3   OH279507   6.123   6.197   3.226  0.3255  0.2818  0.2074
19339TIP3    H179508   6.095   6.289   3.222  0.9521  0.5519  1.6861
19339TIP3    H279509   6.219   6.201   3.222  0.3878 -0.2523  0.9894
19340TIP3   OH279510   6.346   4.845  13.969  0.1332  0.2112  0.3656
19340TIP3    H179511   6.426   4.837  13.918 -0.6299 -0.7674 -0.7162
19340TIP3    H279512   6.315   4.934  13.953 -0.2085 -0.1619 -1.0483
19341TIP3   OH279513   6.727   5.972  14.357 -0.2746  0.1682 -0.4260
19341TIP3    H179514   6.743   5.932  14.272  0.9376 -0.5793  0.1292
19341TIP3    H279515   6.647   6.023  14.346  0.1721  0.5027 -2.1552
19342TIP3   OH279516   3.549   5.252  12.139 -0.1730 -0.1295 -0.1211
19342TIP3    H179517   3.631   5.296  12.115 -0.2970  0.7553  1.0839
19342TIP3    H279518   3.480   5.312  12.110 -0.3980 -0.8031 -0.9917
19343TIP3   OH279519   0.091   4.191   0.267  0.1811 -0.3060 -0.3183
19343TIP3    H179520  -0.000   4.207   0.242 -0.5578  0.1644  2.5683
19343TIP3    H279521   0.125   4.135   0.197 -2.5138 -1.0291 -1.1115
19344TIP3   OH279522   5.036   5.203   3.153 -0.0364 -0.4358 -0.0488
19344TIP3    H179523   5.042   5.136   3.085 -0.0019  0.0346 -0.5131
19344TIP3    H279524   5.086   5.167   3.226 -0.9492 -1.4028  0.1180
19345TIP3   OH279525   2.430   1.693  12.473  0.0849  0.0496  0.6420
19345TIP3    H179526   2.447   1.786  12.460 -0.6360  0.1927  0.7267
19345TIP3    H279527   2.422   1.657  12.384 -0.1464  0.1625  0.6170
19346TIP3   OH279528   1.233   0.265  11.295 -0.5218 -0.7955 -0.0991
19346TIP3    H179529   1.235   0.228  11.384 -1.4169 -1.0306 -0.1726
19346TIP3    H279530   1.207   0.356  11.308 -0.4028 -0.7618 -0.0982
19347TIP3   OH279531   0.863   3.877   1.357  0.2756 -0.2793 -0.4673
19347TIP3    H179532   0.907   3.864   1.441  0.9725  2.1636 -0.4097
19347TIP3    H279533   0.791   3.935   1.376 -1.3060 -1.9815 -1.0938
19348TIP3   OH279534   1.100   5.056   1.994 -0.0860  0.2270 -0.1521
19348TIP3    H179535   1.177   5.113   1.996  0.7440 -0.9408  1.2692
19348TIP3    H279536   1.048   5.089   1.920  0.1909  3.0898  0.8685
19349TIP3   OH279537   4.252   3.525   1.175  0.0357  0.6243 -0.3313
19349TIP3    H179538   4.225   3.493   1.260 -0.8098  3.4812  0.5453
19349TIP3    H279539   4.348   3.526   1.179  0.0039  0.4172  0.4693
19350TIP3   OH279540   0.826   1.854   3.037  0.5717  0.0656 -0.0208
19350TIP3    H179541   0.763   1.786   3.012  1.3376 -0.7829  0.3176
19350TIP3    H279542   0.780   1.936   3.020 -0.4555 -0.5337 -0.2276
19351TIP3   OH279543   3.556   0.349   6.621 -0.2387  0.6371  0.2326
19351TIP3    H179544   3.554   0.442   6.645  1.8855  0.9327 -0.6033
19351TIP3    H279545   3.567   0.349   6.526 -2.1861 -0.4987 -0.0116
19352TIP3   OH279546   4.005   6.529   4.149 -0.0749  0.2673  0.4874
19352TIP3    H179547   3.937   6.488   4.095  1.7343 -1.1007 -0.8359
19352TIP3    H279548   4.078   6.545   4.088  1.0319  1.1294  1.9912
19353TIP3   OH279549   3.931   4.999  13.624 -0.2270  0.0652  0.5258
19353TIP3    H179550   3.954   4.980  13.715 -0.8678 -1.2647  0.4152
19353TIP3    H279551   3.926   4.914  13.582  1.7942  0.7364 -1.2080
19354TIP3   OH279552   5.712   2.882  13.824 -0.0075 -0.6727 -0.1159
19354TIP3    H179553   5.726   2.900  13.731  0.1145 -0.8322 -0.1269
19354TIP3    H279554   5.771   2.943  13.869  0.4850 -1.1205 -0.1556
19355TIP3   OH279555   2.028   1.941   6.583 -1.1162 -0.6137 -0.1297
19355TIP3    H179556   2.034   1.880   6.509 -0.4029 -1.7568  0.8512
19355TIP3    H279557   2.009   1.885   6.658  1.2482  0.1633  1.0786
19356TIP3   OH279558   1.176   0.485  12.935  0.0052 -0.0468 -0.0293
19356TIP3    H179559   1.222   0.425  12.993  0.1174 -1.6376 -1.7152
19356TIP3    H279560   1.083   0.467  12.951  0.0438 -1.8478 -1.6830
19357TIP3   OH279561   2.158   2.744   5.376  0.3081  0.1202 -0.0218
19357TIP3    H179562   2.105   2.672   5.343 -0.7054  0.1899  1.4430
19357TIP3    H279563   2.097   2.817   5.387  1.2619  1.1192 -1.1795
19358TIP3   OH279564   5.289   4.834   2.773 -0.2442  0.4523  0.0798
19358TIP3    H179565   5.318   4.779   2.700 -1.1417  1.9988 -1.4421
19358TIP3    H279566   5.360   4.897   2.786 -0.7728  1.1617 -0.4706
19359TIP3   OH279567   2.299   2.087  14.346  0.0995  0.3455 -0.2878
19359TIP3    H179568   2.272   2.177  14.364  0.3450  1.0299 -3.0260
19359TIP3    H279569   2.386   2.095  14.307  0.3377 -1.1265 -0.1108
19360TIP3   OH279570   2.471   4.409   2.029 -0.6064  0.1432  0.2642
19360TIP3    H179571   2.498   4.370   2.112  1.3527 -1.0113 -0.8662
19360TIP3    H279572   2.550   4.454   1.997 -1.1453  0.0372 -1.2626
19361TIP3   OH279573   4.274   0.043  15.134  0.2309 -0.3342 -0.1382
19361TIP3    H179574   4.241   0.075  15.218  0.9204  1.8090 -0.6421
19361TIP3    H279575   4.211  -0.023  15.107 -1.3640  0.7391  0.8888
19362TIP3   OH279576   2.327   4.601  12.697  0.0831  0.2788  0.0274
19362TIP3    H179577   2.237   4.632  12.690 -0.1846 -0.3295  0.7155
19362TIP3    H279578   2.372   4.641  12.623 -1.0063 -0.2772 -0.9564
19363TIP3   OH279579   6.570   4.178  13.693 -0.7754  0.3976  0.1144
19363TIP3    H179580   6.474   4.188  13.693 -0.6913  1.3400 -0.8796
19363TIP3    H279581   6.601   4.251  13.639  0.2973 -1.8393 -2.4239
19364TIP3   OH279582   5.788   0.699  14.872 -0.4669 -0.0898 -0.2150
19364TIP3    H179583   5.740   0.711  14.790 -0.3183 -1.2503 -0.4814
19364TIP3    H279584   5.725   0.721  14.940 -1.3880 -1.5547 -0.5686
19365TIP3   OH279585   0.864   5.126  12.297  0.2555  0.8772  0.3163
19365TIP3    H179586   0.956   5.118  12.272  0.2321  1.7997 -0.0988
19365TIP3    H279587   0.831   5.196  12.241 -0.9567 -0.1409 -0.2480
19366TIP3   OH279588   1.554   2.542  15.657 -0.6731  0.0525 -0.2209
19366TIP3    H179589   1.542   2.487  15.580  0.0143  0.0309 -0.3174
19366TIP3    H279590   1.477   2.526  15.711 -0.1702 -1.4918  0.0499
19367TIP3   OH279591   1.122   3.617   3.285 -0.6443 -0.2545 -0.6277
19367TIP3    H179592   1.084   3.697   3.320 -0.2124  1.0330 -2.9507
19367TIP3    H279593   1.068   3.547   3.319 -0.1642  0.8752  2.6513
19368TIP3   OH279594   2.415   3.623  13.463  0.3812 -0.0877  0.2248
19368TIP3    H179595   2.343   3.614  13.525  0.0545 -0.5097 -0.2126
19368TIP3    H279596   2.434   3.717  13.462  0.7053 -0.1316  1.3186
19369TIP3   OH279597   3.776   0.645   0.336  0.1591 -0.1084  0.6200
19369TIP3    H179598   3.841   0.574   0.328  1.3826  1.0418  0.0637
19369TIP3    H279599   3.735   0.649   0.249 -1.0539 -1.1831  1.1254
19370TIP3   OH279600   3.984   2.402   4.643 -0.3721 -0.2128  0.2594
19370TIP3    H179601   3.953   2.327   4.593  0.6692 -0.3600 -0.1819
19370TIP3    H279602   4.078   2.406   4.625 -0.6123  1.9498 -0.7629
19371TIP3   OH279603   3.043   2.893  15.250  0.1525 -0.0479  0.3660
19371TIP3    H179604   3.061   2.807  15.288 -0.3053  0.9898  3.0101
19371TIP3    H279605   3.054   2.955  15.322 -0.0175  2.0867 -1.3678
19372TIP3   OH279606   3.506   3.320  12.211 -0.0662  0.0240 -0.6120
19372TIP3    H179607   3.584   3.316  12.155 -1.1129  0.4749 -2.1530
19372TIP3    H279608   3.495   3.414  12.228  1.3194 -0.2287  1.9591
19373TIP3   OH279609   1.090   6.373   3.073 -0.6961 -0.1094 -0.5996
19373TIP3    H179610   1.173   6.342   3.037 -0.4277  0.2615 -0.3043
19373TIP3    H279611   1.026   6.306   3.048  0.1844 -1.7992  1.4816
19374TIP3   OH279612   2.443   1.346   5.003 -0.9329 -0.5957  0.0973
19374TIP3    H179613   2.463   1.356   4.910 -1.7090 -0.2502 -0.0297
19374TIP3    H279614   2.529   1.336   5.044 -0.6686 -2.4108 -0.8517
19375TIP3   OH279615   4.708   2.281  12.735  0.4181 -0.7178  0.4594
19375TIP3    H179616   4.657   2.362  12.731  1.2797 -0.2453 -2.2128
19375TIP3    H279617   4.793   2.308  12.771  0.8261 -0.3473 -0.7614
19376TIP3   OH279618   1.998   4.245  12.656 -0.5472  0.0716 -0.0767
19376TIP3    H179619   2.045   4.308  12.711 -0.3951 -0.6758  0.6624
19376TIP3    H279620   2.012   4.276  12.567 -0.3764  1.0177  0.2705
19377TIP3   OH279621   4.802   1.002  17.015 -0.2401  0.0552 -0.1361
19377TIP3    H179622   4.791   1.081  16.962 -1.3607  0.5390  0.7865
19377TIP3    H279623   4.772   1.028  17.102 -0.3441 -1.3156  0.2407
19378TIP3   OH279624   6.739   2.416  14.557  0.5963 -0.1974  0.5480
19378TIP3    H179625   6.718   2.401  14.464  0.9976  0.3306  0.3716
19378TIP3    H279626   6.833   2.435  14.557  0.8326 -1.3227  1.1910
19379TIP3   OH279627   6.158   0.420   0.887 -0.1353 -0.4397 -0.6676
19379TIP3    H179628   6.199   0.354   0.943  0.2160 -0.4976 -0.9892
19379TIP3    H279629   6.203   0.410   0.803  0.1659  0.4471 -0.6162
19380TIP3   OH279630   5.404   6.342   3.383  0.2045 -0.5245  0.3824
19380TIP3    H179631   5.407   6.375   3.472  1.2291  0.8827 -0.1509
19380TIP3    H279632   5.496   6.335   3.357 -0.0267 -2.4437 -0.0307
19381TIP3   OH279633   0.342   2.447   4.220  0.5396 -0.1575 -0.1511
19381TIP3    H179634   0.285   2.523   4.229  2.1918  1.2144 -0.8808
19381TIP3    H279635   0.315   2.406   4.138 -1.5145 -1.3879  1.1150
19382TIP3   OH279636   4.557   3.682   4.546 -0.2991  0.3273 -0.3347
19382TIP3    H179637   4.563   3.692   4.451 -0.7357 -1.1611 -0.5381
19382TIP3    H279638   4.464   3.673   4.564 -0.1113 -1.1404  0.0159
19383TIP3   OH279639   4.101   0.990  11.356 -0.0970  0.0412 -0.5923
19383TIP3    H179640   4.032   1.046  11.320  0.0821 -0.1766 -1.2628
19383TIP3    H279641   4.170   0.991  11.291  0.6313  0.4283  0.1744
19384TIP3   OH279642   4.819   4.504   0.281  0.1711  0.3337  0.3343
19384TIP3    H179643   4.768   4.485   0.360  0.7226  1.8129  1.0657
19384TIP3    H279644   4.879   4.574   0.308 -1.0480  2.3235 -1.9565
19385TIP3   OH279645   4.082   4.627   2.087 -0.4431 -0.3214 -0.3968
19385TIP3    H179646   4.125   4.633   2.002  0.4187 -0.4677  0.0189
19385TIP3    H279647   4.139   4.676   2.146 -1.0701 -0.1657  0.0855
19386TIP3   OH279648   1.040   2.526   3.982  0.2490  0.1110 -0.2164
19386TIP3    H179649   0.962   2.529   3.926 -1.6205  1.4381  2.3763
19386TIP3    H279650   1.028   2.448   4.036  0.8477  0.1819  0.0212
19387TIP3   OH279651   5.388   1.003   0.684  0.0670  0.0529  0.0996
19387TIP3    H179652   5.421   1.019   0.772  0.6617 -1.9181  0.2527
19387TIP3    H279653   5.293   0.999   0.695  0.1833 -1.1325  0.8463
19388TIP3   OH279654   0.403   2.500   5.840 -0.1033 -0.0728 -0.6169
19388TIP3    H179655   0.311   2.524   5.853  0.6410  2.4291  0.4750
19388TIP3    H279656   0.409   2.408   5.867 -2.3556 -0.3749 -1.1198
19389TIP3   OH279657   4.454   0.420  10.997  0.2675  0.0623 -0.3940
19389TIP3    H179658   4.498   0.482  10.939  0.0545 -0.5662 -1.2265
19389TIP3    H279659   4.524   0.386  11.053  0.6062  0.0541 -0.8259
19390TIP3   OH279660   6.053   2.405   4.051  0.3458  0.1337 -0.1958
19390TIP3    H179661   6.147   2.396   4.034  0.2126 -0.3870 -0.6644
19390TIP3    H279662   6.047   2.421   4.145  0.9933  1.5599 -0.3861
19391TIP3   OH279663   2.758   3.699  12.527  0.1223  0.7548  0.0359
19391TIP3    H179664   2.706   3.620  12.540  0.4409  0.6538  0.7151
19391TIP3    H279665   2.696   3.771  12.539 -0.2398  0.6106 -0.9117
19392TIP3   OH279666   3.478   5.026  14.850 -0.2378 -0.2767 -0.1906
19392TIP3    H179667   3.446   5.045  14.762 -0.6346  0.3133  0.0716
19392TIP3    H279668   3.565   4.988  14.837  0.4937  1.5047 -0.7789
19393TIP3   OH279669   6.053   2.360   3.066  0.1163  0.5163  0.0026
19393TIP3    H179670   5.961   2.365   3.042  0.4048  0.7610 -1.0962
19393TIP3    H279671   6.058   2.397   3.154 -0.9391 -0.1757  0.3531
19394TIP3   OH279672   0.544   1.199  17.268  0.3218 -0.3723 -0.3149
19394TIP3    H179673   0.509   1.147  17.195 -1.8842  1.2354 -0.4638
19394TIP3    H279674   0.624   1.238  17.234  0.6239 -1.6227 -1.0504
19395TIP3   OH279675   2.058   6.469   5.629  0.3067  0.2816  0.4516
19395TIP3    H179676   2.120   6.410   5.586 -1.1350  0.1147 -1.4490
19395TIP3    H279677   2.005   6.412   5.685 -0.1770 -0.0485 -0.3303
19396TIP3   OH279678   2.705   4.348   1.340 -0.2581  0.0952  0.3022
19396TIP3    H179679   2.614   4.319   1.340  0.7941 -3.5204  0.6609
19396TIP3    H279680   2.725   4.365   1.432  0.5429 -3.2991  0.8533
19397TIP3   OH279681   2.860   5.053  15.017 -0.0238 -0.0706 -0.1171
19397TIP3    H179682   2.767   5.032  15.002  0.4489 -0.9495 -2.0140
19397TIP3    H279683   2.906   4.970  15.002  1.0944  0.4314  0.5192
19398TIP3   OH279684   6.344   3.655   2.743  0.3059  0.0877  0.1572
19398TIP3    H179685   6.423   3.661   2.690  1.2579 -2.1986  1.2575
19398TIP3    H279686   6.316   3.564   2.735 -0.2031 -0.0156  2.6032
19399TIP3   OH279687   3.671   6.386   1.017  0.1436 -0.6603  0.3349
19399TIP3    H179688   3.627   6.341   1.088  0.6308 -1.8803 -0.1069
19399TIP3    H279689   3.656   6.330   0.940 -0.3736  0.6277 -0.5211
19400TIP3   OH279690   0.445   0.929  14.070 -0.5862  0.1700 -0.0443
19400TIP3    H179691   0.429   0.998  14.006 -1.3658 -0.3802 -0.4429
19400TIP3    H279692   0.434   0.847  14.021  1.5246 -0.2478  0.1167
19401TIP3   OH279693   1.438   3.893   0.461  0.2120  0.0391 -0.4101
19401TIP3    H179694   1.419   3.878   0.554 -0.4073  1.2044 -0.3372
19401TIP3    H279695   1.503   3.826   0.439 -0.5641 -1.0528  0.5376
19402TIP3   OH279696   3.423   0.779   1.265 -0.3746 -0.1655  0.4621
19402TIP3    H179697   3.430   0.852   1.326  1.0339 -2.0910  2.6887
19402TIP3    H279698   3.329   0.762   1.259 -0.7103  1.7107  0.0044
19403TIP3   OH279699   0.185   3.969   4.276  0.9298 -0.3272 -0.3692
19403TIP3    H179700   0.095   3.937   4.279  0.9968 -0.3807  0.9790
19403TIP3    H279701   0.179   4.053   4.232  0.0657  0.2090  0.7702
19404TIP3   OH279702   2.723   5.854  12.903 -0.5416  0.2083 -0.2928
19404TIP3    H179703   2.769   5.902  12.834 -2.1118 -0.5016 -1.8925
19404TIP3    H279704   2.631   5.880  12.892 -1.0499 -1.2715  0.3983
19405TIP3   OH279705   5.555   4.297   4.560 -0.2423 -0.1778 -0.1883
19405TIP3    H179706   5.594   4.376   4.595  0.4347 -0.7157  0.2716
19405TIP3    H279707   5.487   4.328   4.500 -0.5944  0.7361  0.6893
19406TIP3   OH279708   6.762   1.483  11.012  0.0619  0.4703 -0.3352
19406TIP3    H179709   6.772   1.489  10.917 -0.4132  0.6633 -0.3725
19406TIP3    H279710   6.685   1.537  11.031 -0.3734 -0.2869  0.0546
19407TIP3   OH279711   2.728   0.949   0.216 -0.1178 -0.1407 -0.1178
19407TIP3    H179712   2.653   0.969   0.160 -1.5382 -1.6172  1.2130
19407TIP3    H279713   2.742   0.855   0.205 -1.2727 -0.7372  2.9200
19408TIP3   OH279714   0.669   5.143   3.874  0.0935  0.2954  0.4485
19408TIP3    H179715   0.759   5.140   3.906  0.0131  1.0024  0.7499
19408TIP3    H279716   0.618   5.170   3.950 -0.1307  1.7868 -0.2194
19409TIP3   OH279717   4.348   1.011   5.119 -0.1445 -0.2615  0.4464
19409TIP3    H179718   4.279   1.022   5.054 -0.2332 -1.7678  0.2830
19409TIP3    H279719   4.309   1.044   5.200 -1.4925 -2.2172  0.6177
19410TIP3   OH279720   4.326   6.660  13.409 -0.4504  0.4238  0.1451
19410TIP3    H179721   4.315   6.739  13.357 -0.0749  1.8477  2.1367
19410TIP3    H279722   4.380   6.688  13.483  0.7248 -1.9904  0.2576
19411TIP3   OH279723   2.297   4.012  15.826 -0.9288 -0.5944  0.3256
19411TIP3    H179724   2.237   4.059  15.883 -0.6723 -1.7405  1.5600
19411TIP3    H279725   2.241   3.973  15.759 -1.4012 -0.4733  0.6463
19412TIP3   OH279726   4.847   2.347  15.027  0.4640  0.3779 -0.2853
19412TIP3    H179727   4.854   2.432  15.071 -1.4962  0.8008 -0.7603
19412TIP3    H279728   4.775   2.358  14.965  0.3033 -1.5872 -0.4686
19413TIP3   OH279729   3.351   3.442   4.372  0.4945 -0.6847 -0.2265
19413TIP3    H179730   3.380   3.351   4.370 -2.1370 -1.6132  1.3539
19413TIP3    H279731   3.408   3.485   4.435  1.0287 -1.5143 -0.1386
19414TIP3   OH279732   6.382   5.150  14.249 -0.0957 -0.0734 -0.3768
19414TIP3    H179733   6.337   5.151  14.334 -0.1132  0.8825 -0.3856
19414TIP3    H279734   6.395   5.243  14.229  0.3706 -0.3129 -1.1761
19415TIP3   OH279735   5.539   4.071   3.483  0.1846 -0.4805  0.0725
19415TIP3    H179736   5.473   4.104   3.544 -0.8575 -1.2311 -0.6404
19415TIP3    H279737   5.546   4.139   3.416 -1.2552 -1.2298 -0.8692
19416TIP3   OH279738   6.102   5.691  14.928  0.4255  0.1336 -0.0807
19416TIP3    H179739   6.074   5.630  14.860 -1.0611  1.3981 -0.6320
19416TIP3    H279740   6.190   5.716  14.903  0.8040 -1.2651 -0.2083
19417TIP3   OH279741   6.322   3.025  17.290  0.3711 -0.0885  0.2383
19417TIP3    H179742   6.344   2.957  17.227  0.3558  2.4728 -2.6340
19417TIP3    H279743   6.404   3.043  17.336  0.7281 -0.9543 -0.0577
19418TIP3   OH279744   0.563   5.099   1.385  0.2106  0.5400  0.0665
19418TIP3    H179745   0.513   5.023   1.357  0.5552 -0.7035  2.6217
19418TIP3    H279746   0.567   5.156   1.308 -0.2686 -1.9059 -1.8258
19419TIP3   OH279747   3.082   3.189  13.184  0.3173  0.1078  0.4722
19419TIP3    H179748   3.006   3.139  13.153  1.4469 -1.0022 -0.5491
19419TIP3    H279749   3.059   3.214  13.273 -0.0369 -2.8154  1.2546
19420TIP3   OH279750   3.509   5.456   4.907 -0.3087 -0.9091  0.2788
19420TIP3    H179751   3.568   5.381   4.899 -1.6328 -1.9078 -0.2354
19420TIP3    H279752   3.422   5.419   4.899 -0.9668  0.7633 -0.5127
19421TIP3   OH279753   1.901   0.333  15.347  0.2472  0.2542 -0.3827
19421TIP3    H179754   1.858   0.280  15.280 -0.1794  0.5372 -0.3368
19421TIP3    H279755   1.911   0.419  15.307  0.8664  0.1613 -0.4297
19422TIP3   OH279756   5.859   6.032   0.195  0.4109 -0.8669 -0.2833
19422TIP3    H179757   5.915   6.084   0.253 -0.5940 -0.6793  0.5407
19422TIP3    H279758   5.823   5.963   0.251  1.2545 -2.0981 -1.2355
19423TIP3   OH279759   5.547   1.945   3.160 -0.1240 -0.3534 -0.1132
19423TIP3    H179760   5.554   1.857   3.196 -0.0673 -0.4250 -0.2985
19423TIP3    H279761   5.592   2.001   3.223 -0.5885 -0.3889  0.2550
19424TIP3   OH279762   2.958   5.612   2.608  0.2583 -0.1047  0.4120
19424TIP3    H179763   2.862   5.613   2.613  0.1629 -0.7956 -0.9705
19424TIP3    H279764   2.979   5.524   2.576  1.2819  0.5650 -0.7862
19425TIP3   OH279765   3.685   3.948   3.209 -0.6749 -0.1843 -0.5484
19425TIP3    H179766   3.677   4.035   3.169 -1.6076 -0.5633 -1.2151
19425TIP3    H279767   3.696   3.889   3.135  1.1978 -0.5098 -0.0245
19426TIP3   OH279768   0.857   5.089  11.463  0.1815  0.0269  0.5357
19426TIP3    H179769   0.765   5.094  11.435  0.0043 -0.9619  0.9027
19426TIP3    H279770   0.876   4.995  11.464  1.3939  0.2629 -0.1568
19427TIP3   OH279771   2.357   5.701  14.206  0.2636 -0.1712  0.4820
19427TIP3    H179772   2.362   5.657  14.121 -2.7593 -1.3210  0.8194
19427TIP3    H279773   2.267   5.733  14.210  0.2167 -0.6106  3.4934
19428TIP3   OH279774   2.750   4.219  15.074 -0.4618  0.6461  0.2633
19428TIP3    H179775   2.694   4.193  15.147  0.0684  0.5592  0.6417
19428TIP3    H279776   2.802   4.141  15.055  0.8050  1.2662  1.1064
19429TIP3   OH279777   3.687   4.200   5.518  0.4275  0.1651 -0.2576
19429TIP3    H179778   3.595   4.175   5.525 -0.0153  1.5095 -1.0361
19429TIP3    H279779   3.727   4.129   5.468  0.0658 -0.9988  1.0792
19430TIP3   OH279780   3.021   3.562   0.207  0.0063 -0.2463 -0.1436
19430TIP3    H179781   3.116   3.561   0.203  0.0323 -1.0511  0.4322
19430TIP3    H279782   2.992   3.579   0.118  0.6793 -1.2869 -0.5624
19431TIP3   OH279783   0.284   5.962  12.526 -0.0451 -0.0577  0.3707
19431TIP3    H179784   0.278   5.992  12.616  0.5303  0.8262  0.1223
19431TIP3    H279785   0.365   5.911  12.523  0.3024  0.4972  0.1959
19432TIP3   OH279786   5.395   4.465   0.911  0.0941 -0.3030  0.0072
19432TIP3    H179787   5.322   4.524   0.931  0.4515  0.3360 -0.5689
19432TIP3    H279788   5.382   4.391   0.970  0.4242  0.9710  1.7174
19433TIP3   OH279789   5.830   6.683  11.118  0.0409  0.0368 -0.3696
19433TIP3    H179790   5.771   6.611  11.097 -1.6477  0.5488  2.4206
19433TIP3    H279791   5.831   6.737  11.039 -1.5242 -1.1306 -1.2027
19434TIP3   OH279792   5.486   5.277   0.638  0.5003 -0.0563  0.5509
19434TIP3    H179793   5.420   5.347   0.640 -0.9417 -1.3177 -1.1246
19434TIP3    H279794   5.442   5.201   0.677  0.8097 -1.0147 -0.9232
19435TIP3   OH279795   0.767   0.350   1.534  0.2099  0.0172  0.1427
19435TIP3    H179796   0.759   0.393   1.449  0.7276 -1.2596 -0.5716
19435TIP3    H279797   0.748   0.258   1.516  2.1441 -0.5856  1.0554
19436TIP3   OH279798   5.583   1.833  15.772  0.6118 -0.2190 -0.8099
19436TIP3    H179799   5.611   1.767  15.836 -0.5345 -0.6775 -0.7771
19436TIP3    H279800   5.489   1.819  15.762  0.4064  1.2324 -1.0135
19437TIP3   OH279801   2.808   6.799  14.605  0.2350 -0.1565 -0.0489
19437TIP3    H179802   2.721   6.778  14.640  0.3415 -0.4907  0.0149
19437TIP3    H279803   2.868   6.773  14.674  0.3753  0.2945  0.0012
19438TIP3   OH279804   1.918   1.502  15.040 -0.2418  0.2722  0.1822
19438TIP3    H179805   1.838   1.539  15.003 -0.8093  0.2279  1.3719
19438TIP3    H279806   1.944   1.564  15.108 -0.6387 -0.9862  1.4963
19439TIP3   OH279807   3.270   5.418  13.492 -0.3198  0.3661  0.3170
19439TIP3    H179808   3.286   5.478  13.419 -0.0494 -1.7638 -1.4121
19439TIP3    H279809   3.339   5.353  13.485 -2.2548 -1.7458  0.4442
19440TIP3   OH279810   4.196   3.790   0.838 -0.0240  0.4847 -0.1390
19440TIP3    H179811   4.210   3.876   0.878 -0.9072 -0.0095  1.2623
19440TIP3    H279812   4.281   3.768   0.800  0.7186  1.1725  1.0754
19441TIP3   OH279813   0.978   4.387   4.989 -0.4502 -0.0809 -0.1440
19441TIP3    H179814   1.059   4.438   4.982  0.0960 -0.8592  0.3894
19441TIP3    H279815   0.984   4.325   4.915 -0.5592 -0.1266 -0.1137
19442TIP3   OH279816   2.533   4.670   4.422 -0.2407  0.0058  0.2419
19442TIP3    H179817   2.543   4.762   4.448 -0.8156 -0.3251  1.7076
19442TIP3    H279818   2.557   4.620   4.500 -1.1529 -1.0505 -0.1274
19443TIP3   OH279819   3.364   0.015   1.422 -0.0253 -0.1145  0.5023
19443TIP3    H179820   3.432   0.014   1.354  0.3271 -0.0153  0.8498
19443TIP3    H279821   3.323   0.101   1.413  0.0936 -0.0584  0.4860
19444TIP3   OH279822   6.760   3.024   2.452 -0.2847 -0.2136  0.0849
19444TIP3    H179823   6.672   3.040   2.419 -0.0869  0.1957 -0.2509
19444TIP3    H279824   6.794   3.111   2.472 -0.4157 -0.4559  1.4122
19445TIP3   OH279825   2.261   6.479   2.009 -0.0747 -0.3053  0.1167
19445TIP3    H179826   2.354   6.498   2.003  0.4445 -2.5163  0.6537
19445TIP3    H279827   2.224   6.511   1.927  0.6708  2.9855  0.9730
19446TIP3   OH279828   3.991   5.832   2.380  0.4048 -0.4573 -0.4865
19446TIP3    H179829   3.907   5.870   2.357  0.1545 -0.1695  0.8111
19446TIP3    H279830   3.971   5.768   2.448  1.0938 -1.2338 -1.0142
19447TIP3   OH279831   3.010   6.596  12.523 -0.2218 -0.0887  0.1738
19447TIP3    H179832   3.044   6.592  12.434 -1.3892  1.5441 -0.3771
19447TIP3    H279833   3.082   6.633  12.575  0.5398 -1.2641 -0.0315
19448TIP3   OH279834   1.546   2.576   0.605 -0.3913  0.2834 -0.1915
19448TIP3    H179835   1.474   2.640   0.597 -0.1166  0.4877 -1.0680
19448TIP3    H279836   1.515   2.513   0.670 -1.8397 -0.2624 -1.3888
19449TIP3   OH279837   3.012   5.298   4.954  0.0884 -0.4476 -0.0930
19449TIP3    H179838   2.932   5.268   4.997 -0.4413 -1.4018 -1.7011
19449TIP3    H279839   2.997   5.391   4.938 -0.7264 -0.6287 -0.4182
19450TIP3   OH279840   2.083   5.094   0.281  0.3648  0.0409 -0.4709
19450TIP3    H179841   2.009   5.128   0.230  0.7580 -0.2368 -1.2239
19450TIP3    H279842   2.120   5.025   0.227 -0.3055 -1.4881  0.9733
19451TIP3   OH279843   1.215   0.064   6.185 -0.1969  0.2867 -0.0017
19451TIP3    H179844   1.212   0.082   6.279  0.8802 -2.0749  0.5245
19451TIP3    H279845   1.286   0.001   6.175  0.2716  1.1461 -2.5306
19452TIP3   OH279846   0.498   3.387   3.989  0.1006  0.4133 -0.5554
19452TIP3    H179847   0.479   3.453   3.922 -0.6414 -1.0240 -1.7846
19452TIP3    H279848   0.516   3.307   3.940  1.0040 -0.3099  0.9173
19453TIP3   OH279849   5.374   6.804  15.382 -0.3181  0.3949  0.4718
19453TIP3    H179850   5.429   6.729  15.404 -0.0217  0.4902  0.0598
19453TIP3    H279851   5.383   6.862  15.458 -3.0794 -1.3799  2.2430
19454TIP3   OH279852   3.381   6.528   2.558 -0.3178  0.5955 -0.3843
19454TIP3    H179853   3.349   6.612   2.524 -1.2055 -0.0119 -1.0598
19454TIP3    H279854   3.402   6.477   2.480  0.9679  0.4735  0.0387
19455TIP3   OH279855   3.854   4.738  13.582  0.0933  0.0195  0.0002
19455TIP3    H179856   3.784   4.704  13.528 -0.0219 -0.4767  0.4564
19455TIP3    H279857   3.930   4.683  13.561 -0.0948 -0.5436  0.7397
19456TIP3   OH279858   6.713   4.824  17.224 -0.0066  0.5991  0.0721
19456TIP3    H179859   6.803   4.792  17.212  0.0962  0.4712  1.1828
19456TIP3    H279860   6.666   4.789  17.148  0.1679 -1.9790  1.0915
19457TIP3   OH279861   0.355   2.713  17.129 -0.5785 -0.2275  0.3988
19457TIP3    H179862   0.414   2.649  17.170 -0.5125 -1.4397 -1.5392
19457TIP3    H279863   0.369   2.793  17.179  1.9243 -0.7829  0.6654
19458TIP3   OH279864   0.207   2.443  14.882  0.0941  0.5156  0.0198
19458TIP3    H179865   0.254   2.370  14.923 -1.6290 -0.8250 -0.3208
19458TIP3    H279866   0.160   2.485  14.954  0.6568  0.9700  0.1277
19459TIP3   OH279867   5.283   3.189  15.139 -0.2863  0.4794  0.2987
19459TIP3    H179868   5.263   3.275  15.175  1.3408  0.4814  1.2611
19459TIP3    H279869   5.307   3.206  15.048 -0.4031  0.9838  0.3629
19460TIP3   OH279870   1.771   0.161   5.875  0.2285  0.2821  0.0314
19460TIP3    H179871   1.718   0.090   5.913 -1.6978  0.4042 -2.3495
19460TIP3    H279872   1.754   0.236   5.932  1.3020 -0.8018  1.8347
19461TIP3   OH279873   6.731   2.513  12.681  0.9980 -0.1560 -0.0646
19461TIP3    H179874   6.757   2.528  12.590  2.5066 -2.5335 -0.0657
19461TIP3    H279875   6.814   2.499  12.727  0.3279  2.0966  1.9235
19462TIP3   OH279876   1.708   3.175  14.803 -0.2135  0.1825 -0.8037
19462TIP3    H179877   1.712   3.114  14.877 -1.3282  0.4425 -0.5053
19462TIP3    H279878   1.734   3.123  14.727 -0.6011 -0.5260 -0.4649
19463TIP3   OH279879   6.322   6.184   2.047  0.5340  0.4366  0.1677
19463TIP3    H179880   6.242   6.225   2.015 -0.1288  0.0299  1.2799
19463TIP3    H279881   6.390   6.213   1.986 -0.7989 -0.8030 -1.9664
19464TIP3   OH279882   3.070   0.280   0.320  0.1100 -0.0338  0.4784
19464TIP3    H179883   3.018   0.237   0.252 -1.9547  0.1987  1.8514
19464TIP3    H279884   3.040   0.371   0.320  0.1126 -0.0164  1.6559
19465TIP3   OH279885   4.495   3.768  15.721 -0.0451  0.0636  0.6680
19465TIP3    H179886   4.515   3.719  15.641  1.0799 -0.5591  1.3108
19465TIP3    H279887   4.504   3.703  15.791  0.3247  0.9173  1.4221
19466TIP3   OH279888   0.887   5.346   4.466 -0.0299  0.7452  0.0857
19466TIP3    H179889   0.823   5.374   4.402 -0.8878  0.6072  0.8746
19466TIP3    H279890   0.915   5.427   4.509  1.6849  1.0315 -1.4749
19467TIP3   OH279891   3.858   1.248  15.692  0.2404 -0.3610  0.1639
19467TIP3    H179892   3.873   1.153  15.699 -1.3602 -0.8543 -2.4645
19467TIP3    H279893   3.923   1.278  15.629 -3.0886 -0.8450 -3.7337
19468TIP3   OH279894   0.516   2.962   1.823 -0.0183 -0.4521  0.1852
19468TIP3    H179895   0.438   2.998   1.780  1.0400  0.4243 -1.0348
19468TIP3    H279896   0.493   2.871   1.841 -0.7486 -0.6559 -1.6356
19469TIP3   OH279897   6.103   2.506  11.867  0.1131  0.1440 -0.2190
19469TIP3    H179898   6.058   2.569  11.812  0.5495  0.0224 -0.7294
19469TIP3    H279899   6.174   2.555  11.908  0.1724  0.0884 -0.2546
19470TIP3   OH279900   5.110   6.784   3.871 -0.2599 -0.0966  0.0092
19470TIP3    H179901   5.053   6.707   3.873  0.1452 -0.3828  0.6618
19470TIP3    H279902   5.100   6.823   3.958  1.4713 -0.8381  0.5582
19471TIP3   OH279903   0.471   1.127   2.247  0.2040  0.8896 -0.0976
19471TIP3    H179904   0.506   1.122   2.336  0.2597  1.9141 -0.0521
19471TIP3    H279905   0.510   1.053   2.201  0.3285  0.4683  0.6751
19472TIP3   OH279906   4.758   4.466  13.696  0.0766 -0.4504 -0.5193
19472TIP3    H179907   4.800   4.510  13.621  0.5910  0.9015  0.5360
19472TIP3    H279908   4.686   4.416  13.658  0.6174 -0.1434 -1.9707
19473TIP3   OH279909   0.582   2.355   0.656  0.1916 -0.2753 -0.4808
19473TIP3    H179910   0.627   2.295   0.596  1.0474 -0.3923  0.2525
19473TIP3    H279911   0.535   2.297   0.716  2.0102 -0.3011  0.9952
19474TIP3   OH279912   6.484   4.202  10.169  0.9083 -0.0233  0.0706
19474TIP3    H179913   6.505   4.133  10.232  2.0884 -0.5755 -0.9019
19474TIP3    H279914   6.452   4.275  10.223  1.4236 -0.6605  1.2630
19475TIP3   OH279915   2.643   4.796  13.952 -0.1888 -0.3163 -0.0681
19475TIP3    H179916   2.569   4.823  13.898 -0.5459 -1.5828 -0.2196
19475TIP3    H279917   2.618   4.710  13.986  1.2118 -0.7562 -0.1247
19476TIP3   OH279918   2.629   4.236  12.323  0.5670 -0.0902  0.2414
19476TIP3    H179919   2.717   4.209  12.347  0.6656  1.3221  1.4974
19476TIP3    H279920   2.639   4.326  12.290 -0.3080 -0.1707 -0.2666
19477TIP3   OH279921   0.275   5.772  15.461 -0.6141  0.2364 -0.3137
19477TIP3    H179922   0.302   5.744  15.548  0.9143  2.4664 -0.0253
19477TIP3    H279923   0.258   5.866  15.470 -1.6161  0.2627 -2.1516
19478TIP3   OH279924   5.688   6.529  12.190 -0.0613  0.2674 -0.2079
19478TIP3    H179925   5.683   6.525  12.286 -1.0238  1.2936 -0.2044
19478TIP3    H279926   5.772   6.571  12.173  0.7668 -1.1958  0.1442
19479TIP3   OH279927   0.491   0.248  14.273  0.3720  0.7982  0.6861
19479TIP3    H179928   0.572   0.199  14.259 -0.0001  0.2621  0.4030
19479TIP3    H279929   0.429   0.211  14.211 -0.1670  1.0417  1.0718
19480TIP3   OH279930   2.739   6.474   1.680 -0.0718  0.0858 -0.3591
19480TIP3    H179931   2.727   6.538   1.609  0.2569 -0.7983 -1.2151
19480TIP3    H279932   2.814   6.508   1.730  0.1520  0.3401 -0.8594
19481TIP3   OH279933   4.843   5.181  13.256 -0.4985  0.0098 -0.6672
19481TIP3    H179934   4.780   5.253  13.262 -0.9134 -0.5295  2.3255
19481TIP3    H279935   4.796   5.112  13.209 -1.5419  0.2600 -0.0147
19482TIP3   OH279936   3.236   5.900   5.832 -0.0424 -0.1160 -0.0435
19482TIP3    H179937   3.192   5.817   5.854 -1.5306  0.5995 -0.2550
19482TIP3    H279938   3.329   5.879   5.837 -0.3865 -2.1164 -1.2269
19483TIP3   OH279939   5.137   6.704   1.304  1.1275  0.0986 -0.1030
19483TIP3    H179940   5.182   6.643   1.363  0.7060  1.4423  1.6363
19483TIP3    H279941   5.164   6.791   1.334  1.8881  0.8069 -2.6813
19484TIP3   OH279942   4.300   1.434  14.514  0.1232  0.2436  0.1245
19484TIP3    H179943   4.297   1.349  14.469 -2.0972 -0.7186  1.9304
19484TIP3    H279944   4.374   1.427  14.574  0.6388  0.0107 -0.5352
19485TIP3   OH279945   0.481   1.343  11.238  0.4762 -0.2159  0.6240
19485TIP3    H179946   0.394   1.335  11.279  0.3246  0.8997  0.5282
19485TIP3    H279947   0.476   1.288  11.160 -0.8169  1.3841 -0.4594
19486TIP3   OH279948   5.863   5.896  11.328  0.0692  0.4176 -0.1297
19486TIP3    H179949   5.786   5.845  11.353  0.5814 -0.2621  0.0859
19486TIP3    H279950   5.906   5.842  11.261  0.3805  0.7757 -0.2192
19487TIP3   OH279951   6.501   4.052  10.399  0.1688  0.1813 -0.2104
19487TIP3    H179952   6.439   4.111  10.441 -1.0131 -0.7869 -0.5587
19487TIP3    H279953   6.490   3.969  10.445  1.2536  0.0235 -0.2343
19488TIP3   OH279954   2.208   6.348  14.547 -0.3849  0.3089 -0.0534
19488TIP3    H179955   2.218   6.272  14.604 -0.3079  0.4876  0.1728
19488TIP3    H279956   2.287   6.347  14.492  0.6798  1.4354  1.3984
19489TIP3   OH279957   2.046   5.829   5.639  0.0737 -0.4457  0.0477
19489TIP3    H179958   2.074   5.916   5.612 -1.3516  0.1642  0.5215
19489TIP3    H279959   1.951   5.836   5.652 -0.0037 -1.9615  0.4707
19490TIP3   OH279960   4.350   3.519   3.394 -0.0844  0.7247  0.2885
19490TIP3    H179961   4.291   3.547   3.324 -4.5975 -0.0048  3.5383
19490TIP3    H279962   4.369   3.599   3.442 -0.6068  0.5743  0.7551
19491TIP3   OH279963   0.599   3.294   2.096  0.1202  0.2281 -0.1776
19491TIP3    H179964   0.511   3.259   2.082 -1.2238  3.0578  0.8127
19491TIP3    H279965   0.635   3.304   2.008 -1.4642  1.2511 -0.7295
19492TIP3   OH279966   5.107   1.743   1.723  0.0615  0.7301 -0.2290
19492TIP3    H179967   5.027   1.794   1.718  0.4256  1.5514  1.8490
19492TIP3    H279968   5.175   1.800   1.687 -0.3956 -0.2613 -2.7244
19493TIP3   OH279969   1.662   4.778   0.553 -0.1408 -0.0432 -0.9001
19493TIP3    H179970   1.574   4.802   0.582  0.2985  1.2039 -0.5683
19493TIP3    H279971   1.702   4.737   0.630  0.0332  0.6297 -0.6301
19494TIP3   OH279972   1.414   4.726   4.858 -0.0719  0.0793  0.0641
19494TIP3    H179973   1.456   4.796   4.808 -0.8366  1.8425  1.8525
19494TIP3    H279974   1.483   4.662   4.872  0.6315  0.4342 -1.6003
19495TIP3   OH279975   4.628   1.848   0.778 -0.2990  0.3187 -0.9436
19495TIP3    H179976   4.607   1.941   0.790  0.1583  0.3085 -0.0386
19495TIP3    H279977   4.559   1.801   0.825 -0.2403  0.2077 -0.9674
19496TIP3   OH279978   6.695   2.947  13.990 -0.2192 -0.0818  0.2088
19496TIP3    H179979   6.607   2.915  14.007  0.3818 -1.1587  1.3712
19496TIP3    H279980   6.697   2.962  13.895 -2.0786  1.3445  0.3864
19497TIP3   OH279981   4.166   4.741  16.719  0.1199 -0.4789 -0.4886
19497TIP3    H179982   4.169   4.802  16.793  2.3979 -0.1833 -0.7920
19497TIP3    H279983   4.105   4.782  16.657 -0.6693 -0.0024  0.5808
19498TIP3   OH279984   2.867   6.165  11.521 -0.0243 -0.1329  0.5011
19498TIP3    H179985   2.804   6.148  11.592  1.4901  1.2009  2.2188
19498TIP3    H279986   2.875   6.260  11.518  1.1350 -0.2536 -0.3953
19499TIP3   OH279987   2.479   2.664   1.282  0.6329 -0.1351  0.5032
19499TIP3    H179988   2.418   2.674   1.355  0.0691 -1.0176  0.1564
19499TIP3    H279989   2.447   2.588   1.234  0.9780  0.4628 -0.6916
19500TIP3   OH279990   1.462   5.242  12.605 -0.0569  1.0334 -0.2743
19500TIP3    H179991   1.485   5.327  12.566  0.5337 -0.3473 -3.0597
19500TIP3    H279992   1.366   5.241  12.605 -0.0688  1.1340 -1.5733
19501TIP3   OH279993   6.506   2.607  11.758  0.2298  0.2395 -0.2638
19501TIP3    H179994   6.456   2.653  11.826 -1.1665 -0.8982 -0.5136
19501TIP3    H279995   6.466   2.635  11.676  1.1212  0.6517 -0.5646
19502TIP3   OH279996   5.289   0.301   2.253 -0.0111  0.5115 -0.0701
19502TIP3    H179997   5.381   0.294   2.279  0.0326  1.6527  0.1080
19502TIP3    H279998   5.258   0.211   2.252  1.0780  0.1259 -0.0043
19503TIP3   OH279999   2.575   2.462  13.864 -0.5756 -0.5097 -0.5036
19503TIP3    H180000   2.601   2.369  13.867  1.7858  0.1500  1.0446
19503TIP3    H280001   2.652   2.509  13.897 -1.6147  2.0426 -1.6267
19504TIP3   OH280002   6.720   6.440   3.108  0.2311  0.1926 -0.2647
19504TIP3    H180003   6.668   6.444   3.027  0.0462  0.2613 -0.1424
19504TIP3    H280004   6.766   6.524   3.111 -1.2760  1.0128  0.7147
19505TIP3   OH280005   5.977   2.285   4.528  0.3363 -0.2227  0.3552
19505TIP3    H180006   6.029   2.349   4.577  0.9189 -0.8132  0.5115
19505TIP3    H280007   5.901   2.268   4.584  1.2470 -1.2678  1.2911
19506TIP3   OH280008   5.399   1.160   2.297  0.0197 -0.4786  0.3612
19506TIP3    H180009   5.445   1.113   2.227  1.0074  2.3716 -1.0233
19506TIP3    H280010   5.469   1.195   2.352 -0.6708 -0.1765  1.0524
19507TIP3   OH280011   0.021   4.175  15.946 -0.4476 -0.2808  0.3876
19507TIP3    H180012   0.095   4.148  15.999 -0.0136  0.5462  0.1990
19507TIP3    H280013  -0.013   4.253  15.989  1.4159  1.8769 -1.8685
19508TIP3   OH280014   6.185   2.210  10.678  0.2664 -0.2736  0.0290
19508TIP3    H180015   6.116   2.235  10.739 -1.2457  0.4469 -1.9327
19508TIP3    H280016   6.234   2.142  10.724 -1.7513 -0.8210  1.4308
19509TIP3   OH280017   1.224   4.222   2.079 -0.2939  0.1000  0.2662
19509TIP3    H180018   1.133   4.193   2.090  0.0174 -2.0305 -2.0494
19509TIP3    H280019   1.218   4.301   2.025 -0.8234  0.4382  0.8206
19510TIP3   OH280020   2.147   5.903  14.324  0.5375 -0.3129 -0.6388
19510TIP3    H180021   2.239   5.928  14.333  0.2614  0.5193 -0.0712
19510TIP3    H280022   2.102   5.985  14.305 -0.5781 -0.1291  2.5235
19511TIP3   OH280023   2.900   0.640  12.741 -0.1547 -0.0663  0.4972
19511TIP3    H180024   2.818   0.592  12.731  0.0873 -0.5763  0.8843
19511TIP3    H280025   2.890   0.718  12.687  0.0749 -1.3918 -1.5040
19512TIP3   OH280026   0.386   0.455  12.090 -0.5916  0.3221 -0.4351
19512TIP3    H180027   0.353   0.396  12.157 -2.0959  1.5846 -0.0448
19512TIP3    H280028   0.378   0.405  12.008 -1.7431 -0.0763 -0.0912
19513TIP3   OH280029   4.969   1.339  14.203  0.2814 -0.5790  0.0303
19513TIP3    H180030   4.887   1.383  14.184 -0.1808 -1.8613 -0.9570
19513TIP3    H280031   5.002   1.383  14.282 -0.8062  0.6462 -0.1901
19514TIP3   OH280032   3.582   2.625   4.842  0.3022  0.3470  0.0702
19514TIP3    H180033   3.511   2.594   4.898  0.1148 -0.8606 -0.8108
19514TIP3    H280034   3.620   2.698   4.889 -0.8314  0.3095  1.0642
19515TIP3   OH280035   5.997   6.266   5.609  0.0780  0.4671  0.6173
19515TIP3    H180036   6.049   6.224   5.540 -1.2205  0.0519 -0.1229
19515TIP3    H280037   6.043   6.348   5.627  0.4280  0.5877 -0.7568
19516TIP3   OH280038   2.098   1.808  12.339  0.0072 -0.0732  0.7229
19516TIP3    H180039   2.126   1.773  12.255  0.4533 -0.0882  0.8739
19516TIP3    H280040   2.149   1.888  12.350  0.9202 -0.7498  1.5704
19517TIP3   OH280041   1.769   2.908   1.542  0.4656 -0.4284  0.2031
19517TIP3    H180042   1.747   3.000   1.527  0.1202 -0.7821 -1.6686
19517TIP3    H280043   1.863   2.909   1.562  0.1074  0.4794  1.8636
19518TIP3   OH280044   4.119   2.353  11.262 -0.3168 -0.0177  0.2829
19518TIP3    H180045   4.060   2.278  11.254 -0.6295  0.4409 -1.7846
19518TIP3    H280046   4.066   2.428  11.236  1.1184  0.4236 -1.4006
19519TIP3   OH280047   6.400   0.709   4.881  0.5396  0.6498  0.5825
19519TIP3    H180048   6.449   0.648   4.825 -0.8108  0.0824  0.0004
19519TIP3    H280049   6.352   0.652   4.941  0.1726  1.1889  0.7997
19520TIP3   OH280050   6.330   1.464  11.820 -0.4985 -0.4854  0.2202
19520TIP3    H180051   6.354   1.419  11.901 -1.1319 -0.5453  0.3813
19520TIP3    H280052   6.308   1.393  11.760 -1.2033 -0.4097  0.3802
19521TIP3   OH280053   3.097   1.811   4.165  0.4473 -0.4943 -0.0205
19521TIP3    H180054   3.061   1.879   4.222  1.1457  0.8633 -1.1575
19521TIP3    H280055   3.151   1.859   4.102  1.3880 -2.1629 -0.5138
19522TIP3   OH280056   6.016   3.765  12.203 -0.0343  0.0504  0.3989
19522TIP3    H180057   5.959   3.793  12.274 -1.0834  0.5561 -0.6298
19522TIP3    H280058   6.093   3.730  12.247 -0.6185  0.4603  1.7821
19523TIP3   OH280059   4.271   3.133   1.728 -0.7720  0.1341 -0.2896
19523TIP3    H180060   4.207   3.107   1.794 -0.1134  0.2744  0.4192
19523TIP3    H280061   4.247   3.084   1.650  0.6528 -2.8716  1.0990
19524TIP3   OH280062   0.231   5.621  17.061 -0.3130  0.8838 -0.7841
19524TIP3    H180063   0.240   5.544  17.117  2.7058  1.7183 -0.0234
19524TIP3    H280064   0.190   5.588  16.981 -0.1004 -1.2890 -0.0234
19525TIP3   OH280065   0.410   6.461   1.084  0.8100 -0.6541  0.3137
19525TIP3    H180066   0.364   6.507   1.014  0.1156  1.0598  1.8298
19525TIP3    H280067   0.429   6.375   1.049 -0.9682 -0.3808 -1.3881
19526TIP3   OH280068   4.341   4.064   5.308  0.5177  0.5766  0.5933
19526TIP3    H180069   4.368   3.979   5.341  0.1406  0.1986 -0.0697
19526TIP3    H280070   4.256   4.049   5.267  0.5834  1.2095  0.2080
19527TIP3   OH280071   1.764   6.797  14.530  0.1444  0.0291  0.1693
19527TIP3    H180072   1.768   6.703  14.548  1.5446  0.3306  1.4522
19527TIP3    H280073   1.852   6.820  14.501  0.0295  1.1120  0.6681
19528TIP3   OH280074   0.617   5.852   3.959 -0.0341 -0.0138 -0.0950
19528TIP3    H180075   0.661   5.776   3.997  0.1432  0.2054  0.1479
19528TIP3    H280076   0.592   5.825   3.871 -0.4559 -0.5288  0.1879
19529TIP3   OH280077   6.302   1.373  13.096  0.0034 -0.2754  0.1623
19529TIP3    H180078   6.341   1.442  13.149  0.0154 -1.2881  1.4922
19529TIP3    H280079   6.257   1.420  13.025  0.7039  1.0466  0.5740
19530TIP3   OH280080   0.722   3.476  13.391  0.2901 -0.4339  0.2484
19530TIP3    H180081   0.755   3.534  13.323  0.3651  0.1768  0.7934
19530TIP3    H280082   0.780   3.401  13.389  0.2813 -0.4288 -0.3684
19531TIP3   OH280083   0.718   0.546   1.711 -0.6816  0.1737 -0.0478
19531TIP3    H180084   0.804   0.586   1.697 -0.6791  0.4935  0.8678
19531TIP3    H280085   0.721   0.463   1.663 -0.0795  0.4693 -0.5209
19532TIP3   OH280086   2.716   4.920  15.952 -0.7292  0.4128  0.3327
19532TIP3    H180087   2.682   4.907  15.864  0.3517 -0.9219  0.0887
19532TIP3    H280088   2.700   5.013  15.971  0.0177  0.9861 -1.6933
19533TIP3   OH280089   6.442   0.535   1.250 -0.0637  0.7699 -0.3221
19533TIP3    H180090   6.396   0.451   1.251 -0.4975  0.9540 -2.1160
19533TIP3    H280091   6.473   0.544   1.160  2.3754  1.2765  0.5387
19534TIP3   OH280092   6.005   5.485   1.187  0.0404 -0.1382 -0.3120
19534TIP3    H180093   6.008   5.423   1.260 -0.3521 -1.0810 -1.0831
19534TIP3    H280094   5.990   5.430   1.110  0.2778  0.8638 -1.0814
19535TIP3   OH280095   5.079   3.957   2.399  0.1439  0.2553 -0.3374
19535TIP3    H180096   5.109   3.929   2.486  0.2089  1.6065  0.0954
19535TIP3    H280097   5.077   3.877   2.347  3.4361 -0.0482 -0.0934
19536TIP3   OH280098   4.363   1.209   4.157 -0.0194 -0.3698  0.1838
19536TIP3    H180099   4.428   1.189   4.089 -1.6436  1.7101 -2.0832
19536TIP3    H280100   4.395   1.289   4.198 -0.9681  0.5505 -0.8066
19537TIP3   OH280101   2.559   0.456   1.461 -0.4683  0.0470  0.2781
19537TIP3    H180102   2.544   0.467   1.555 -0.2165  0.0247  0.3207
19537TIP3    H280103   2.635   0.512   1.442  0.5900 -1.3276  0.4269
19538TIP3   OH280104   4.739   1.238   3.670 -0.1375 -0.2315  0.2235
19538TIP3    H180105   4.673   1.233   3.739  0.0495 -0.3662  0.3898
19538TIP3    H280106   4.821   1.256   3.715  0.0911 -0.9208  0.0953
19539TIP3   OH280107   1.090   4.355   1.328  0.8098 -0.4693  0.1375
19539TIP3    H180108   1.023   4.307   1.279  1.2170 -0.1197 -0.7878
19539TIP3    H280109   1.160   4.369   1.264  0.6624  1.4079  0.3689
19540TIP3   OH280110   1.997   0.246   1.578  0.5371  0.0690 -0.5094
19540TIP3    H180111   1.945   0.200   1.513  0.6435 -1.0744  0.2023
19540TIP3    H280112   2.086   0.245   1.542  0.6832 -0.9740 -0.1430
19541TIP3   OH280113   3.706   4.551   3.728  0.4333 -0.3626 -0.4421
19541TIP3    H180114   3.636   4.535   3.665 -0.1261  1.8984 -0.4393
19541TIP3    H280115   3.757   4.623   3.690  0.9646  0.0264  0.9640
19542TIP3   OH280116   0.883   0.974   4.236  0.3562  0.1689 -0.3787
19542TIP3    H180117   0.933   0.892   4.234 -0.9076 -0.6390  0.4644
19542TIP3    H280118   0.792   0.946   4.241 -0.0550  1.6393  0.5509
19543TIP3   OH280119   4.653   5.770  11.876 -0.1052  0.0187 -0.2859
19543TIP3    H180120   4.637   5.741  11.965  1.2446  1.8695  0.5921
19543TIP3    H280121   4.726   5.717  11.845 -0.4259 -0.4647 -0.2172
19544TIP3   OH280122   4.849   3.258  13.920  0.0832  0.5477  0.0709
19544TIP3    H180123   4.916   3.191  13.908 -0.3046  0.4867 -1.8438
19544TIP3    H280124   4.830   3.256  14.014  0.1579 -1.9654  0.0706
19545TIP3   OH280125   3.604   1.858   1.245  0.1806 -0.4300  0.0987
19545TIP3    H180126   3.626   1.927   1.308 -0.3740  0.1028 -0.2784
19545TIP3    H280127   3.520   1.886   1.207 -1.0516 -2.2966  1.3650
19546TIP3   OH280128   3.135   0.783   5.029 -0.2097 -0.0381  0.1174
19546TIP3    H180129   3.123   0.739   4.945  1.3095 -1.8926  0.8194
19546TIP3    H280130   3.089   0.728   5.092 -1.1311  1.2101  0.5536
19547TIP3   OH280131   2.518   5.206  15.074 -0.0453  0.1064 -0.4569
19547TIP3    H180132   2.434   5.216  15.118 -0.0736 -0.5797 -0.3572
19547TIP3    H280133   2.551   5.122  15.105  0.3480  0.0451 -1.0546
19548TIP3   OH280134   4.185   1.594  17.101  0.2224  0.0919 -0.4266
19548TIP3    H180135   4.200   1.500  17.095  1.8071  0.3278 -0.3593
19548TIP3    H280136   4.231   1.620  17.181 -0.3942  0.8950 -0.3288
19549TIP3   OH280137   3.660   4.711   2.219  0.0542 -0.0141 -0.1498
19549TIP3    H180138   3.679   4.723   2.312  0.6673 -0.4653 -0.2222
19549TIP3    H280139   3.744   4.693   2.178 -0.1305  0.7393 -0.8881
19550TIP3   OH280140   0.533   0.493  15.668 -0.1598  0.3062  0.2715
19550TIP3    H180141   0.563   0.466  15.755  1.0688 -1.0767 -0.5694
19550TIP3    H280142   0.612   0.525  15.624 -1.0246  2.3102  0.1322
19551TIP3   OH280143   3.725   1.531   3.469  0.1282 -0.3862  0.2580
19551TIP3    H180144   3.673   1.497   3.542  0.5022 -0.1837  0.6269
19551TIP3    H280145   3.792   1.585   3.511  1.7144 -2.0204 -0.0715
19552TIP3   OH280146   1.495   0.645   6.836 -0.1378 -0.1200 -0.1525
19552TIP3    H180147   1.571   0.696   6.805 -1.6314  1.5326 -1.2021
19552TIP3    H280148   1.506   0.560   6.795  1.1278  0.1186 -0.3527
19553TIP3   OH280149   3.443   4.813  16.925 -0.3131  0.2176 -0.0842
19553TIP3    H180150   3.352   4.841  16.932  0.3892  2.5205  0.3635
19553TIP3    H280151   3.463   4.820  16.832  0.0024  1.7838  0.0827
19554TIP3   OH280152   1.127   0.201   4.989  0.1139  0.2623  0.0841
19554TIP3    H180153   1.204   0.171   5.038  0.0847 -0.0551 -0.0634
19554TIP3    H280154   1.084   0.120   4.961 -0.7458  0.4328  0.9031
19555TIP3   OH280155   3.308   3.092   1.430  0.3978 -0.0567  0.2962
19555TIP3    H180156   3.359   3.034   1.374  1.5710  2.3774 -1.2288
19555TIP3    H280157   3.259   3.147   1.369 -1.1883  0.1539  1.7280
19556TIP3   OH280158   1.889   2.549   3.151 -0.0551  0.0108 -0.3763
19556TIP3    H180159   1.884   2.630   3.203 -3.0204  0.8756 -1.8819
19556TIP3    H280160   1.821   2.493   3.189  1.7751 -1.6937  0.4513
19557TIP3   OH280161   0.260   6.550  13.863 -1.1411 -0.1222  0.3856
19557TIP3    H180162   0.239   6.638  13.831  1.8441  0.5620  0.0990
19557TIP3    H280163   0.193   6.494  13.825 -2.9608  1.9867  0.3677
19558TIP3   OH280164   4.437   2.691  13.641  0.6792  0.2337 -0.1252
19558TIP3    H180165   4.352   2.733  13.653 -0.4386 -1.7861 -0.6391
19558TIP3    H280166   4.419   2.617  13.583  2.8598 -0.0270 -0.5170
19559TIP3   OH280167   3.132   4.860  14.971  0.1606  0.2831 -0.0336
19559TIP3    H180168   3.185   4.790  15.008 -0.7035  0.4798  1.6328
19559TIP3    H280169   3.046   4.822  14.960  0.7539 -0.2338 -3.3601
19560TIP3   OH280170   2.767   6.610  15.487 -0.2451 -0.1154 -0.1891
19560TIP3    H180171   2.723   6.593  15.403  1.0585  3.3921 -1.6535
19560TIP3    H280172   2.856   6.578  15.473  0.4288  1.9794 -0.7293
19561TIP3   OH280173   5.207   1.599   2.429 -0.0798 -0.2617 -0.5733
19561TIP3    H180174   5.124   1.577   2.470 -0.9359  2.5360 -0.7438
19561TIP3    H280175   5.240   1.673   2.479  1.8489 -0.6972 -1.1399
19562TIP3   OH280176   2.386   6.516  15.840  0.4056  0.0440  0.0741
19562TIP3    H180177   2.323   6.581  15.809 -0.6385 -1.1690 -0.3927
19562TIP3    H280178   2.450   6.508  15.770 -1.4127 -1.9848 -1.4379
19563TIP3   OH280179   2.111   4.745   3.903 -0.1346  0.0881  0.0383
19563TIP3    H180180   2.131   4.680   3.835  1.5514  1.8620 -1.2064
19563TIP3    H280181   2.065   4.815   3.858 -1.2102  0.1749  1.2208
19564TIP3   OH280182   1.867   2.183   0.972  0.2523 -0.3825  0.8813
19564TIP3    H180183   1.931   2.232   1.024  0.2043  0.0015  0.5739
19564TIP3    H280184   1.920   2.136   0.908  0.3029 -0.7815  1.2073
19565TIP3   OH280185   5.368   4.230   6.174  0.4788  0.1080 -0.1582
19565TIP3    H180186   5.312   4.162   6.135  0.4958  0.3603 -0.6134
19565TIP3    H280187   5.310   4.306   6.184 -0.2909 -0.7663  2.8014
19566TIP3   OH280188   0.661   4.600   3.713 -0.0289 -0.2507  0.1645
19566TIP3    H180189   0.751   4.588   3.745 -0.1338  0.9849  0.9306
19566TIP3    H280190   0.613   4.524   3.747  0.3734 -0.1075  1.0436
19567TIP3   OH280191   0.488   3.187  17.027 -0.3244 -0.3385  0.2994
19567TIP3    H180192   0.574   3.228  17.037 -0.8450  0.6569  0.7887
19567TIP3    H280193   0.505   3.106  16.979  0.7750  0.2538 -0.3180
19568TIP3   OH280194   5.168   5.037   1.867 -0.2476 -0.3405  0.2192
19568TIP3    H180195   5.177   4.982   1.789 -1.1396  0.2499 -0.3112
19568TIP3    H280196   5.084   5.012   1.904  0.0693 -0.4530  0.8678
19569TIP3   OH280197   3.876   0.896  13.540  0.3514 -0.4272  0.1285
19569TIP3    H180198   3.934   0.821  13.556  1.5761  0.6941  1.1092
19569TIP3    H280199   3.840   0.917  13.626 -0.5803 -0.3555 -0.2746
19570TIP3   OH280200   3.678   0.842   3.918 -0.0367 -0.5770  0.3691
19570TIP3    H180201   3.684   0.931   3.881 -1.4845 -1.8591 -3.0896
19570TIP3    H280202   3.609   0.849   3.984 -0.6351  0.7366 -0.3547
19571TIP3   OH280203   1.902   5.587   2.522 -0.0689 -0.1804  0.4028
19571TIP3    H180204   1.828   5.640   2.492 -1.3630 -1.6143  0.9827
19571TIP3    H280205   1.933   5.631   2.601  1.5591  2.0388 -1.4205
19572TIP3   OH280206   2.811   0.937   0.495 -0.0747  0.0768  0.7449
19572TIP3    H180207   2.906   0.926   0.495 -0.3070 -2.3623  0.1523
19572TIP3    H280208   2.791   0.972   0.408  0.2679  0.3434  0.7755
19573TIP3   OH280209   5.628   3.531  14.511 -0.0404  0.0075  0.3281
19573TIP3    H180210   5.577   3.547  14.432  2.0678  2.2221 -0.6813
19573TIP3    H280211   5.621   3.613  14.560 -0.0605 -0.8030  1.6918
19574TIP3   OH280212   3.986   1.176   5.314  0.3124  0.3724  0.1177
19574TIP3    H180213   3.992   1.271   5.300 -0.4502  0.1852 -1.6632
19574TIP3    H280214   4.001   1.138   5.227  2.0277 -1.2128  1.0606
19575TIP3   OH280215   1.105   0.884  15.546  0.1758 -0.4231  0.1114
19575TIP3    H180216   1.179   0.902  15.488  0.7558 -1.1161  0.6202
19575TIP3    H280217   1.146   0.861  15.630 -0.6467  2.7886  1.4810
19576TIP3   OH280218   1.274   6.300  13.502  0.3783  0.5718 -0.1301
19576TIP3    H180219   1.231   6.300  13.417  0.2885  1.6946 -0.0869
19576TIP3    H280220   1.212   6.344  13.561  2.0210  3.1872 -0.2986
19577TIP3   OH280221   6.191   5.561   3.954  0.0653  0.0517  0.8771
19577TIP3    H180222   6.123   5.577   3.888  3.9358  1.0242 -3.1623
19577TIP3    H280223   6.191   5.467   3.967 -2.0190  0.0404  0.9362
19578TIP3   OH280224   0.523   6.234   1.466 -0.3606  0.0002  0.1070
19578TIP3    H180225   0.594   6.176   1.494 -0.0719 -0.9712 -2.4611
19578TIP3    H280226   0.568   6.315   1.441 -0.1545 -0.5318 -1.2924
19579TIP3   OH280227   3.217   6.658   5.242  0.1816 -0.0495 -0.1313
19579TIP3    H180228   3.261   6.697   5.166  0.5093 -2.1385 -1.0611
19579TIP3    H280229   3.124   6.677   5.229  0.1779 -0.8367 -1.3521
19580TIP3   OH280230   1.569   1.671  15.371 -0.3541  0.3590  0.5056
19580TIP3    H180231   1.655   1.699  15.401 -0.1711  0.9584 -0.5486
19580TIP3    H280232   1.530   1.750  15.333 -1.4560  0.1472  1.1677
19581TIP3   OH280233   4.514   2.148   5.838 -0.2532 -0.5495  0.6525
19581TIP3    H180234   4.517   2.087   5.764  0.1455  0.1469  0.0845
19581TIP3    H280235   4.485   2.095   5.912 -1.4776 -1.0732 -0.1823
19582TIP3   OH280236   2.542   4.668  11.460  0.1700 -0.1303  0.8559
19582TIP3    H180237   2.508   4.621  11.384  0.2305  2.3365 -0.7644
19582TIP3    H280238   2.514   4.617  11.535  1.3854 -3.4410 -0.8675
19583TIP3   OH280239   5.223   6.548   1.520  0.9205  0.0447 -0.2389
19583TIP3    H180240   5.316   6.530   1.513  1.1598  1.1108  0.0522
19583TIP3    H280241   5.218   6.638   1.553 -0.1873  0.7148 -2.0833
19584TIP3   OH280242   1.880   0.901   2.021 -0.0100 -0.0463  0.2693
19584TIP3    H180243   1.960   0.865   2.060 -0.5328 -3.0469 -1.2392
19584TIP3    H280244   1.810   0.865   2.075 -0.5169 -0.9432 -0.9582
19585TIP3   OH280245   5.089   3.162   1.755 -0.2441  0.1546  0.0506
19585TIP3    H180246   5.038   3.243   1.754 -0.5457 -0.0223 -3.3859
19585TIP3    H280247   5.175   3.186   1.720  0.1779 -0.7018  0.4598
19586TIP3   OH280248   5.693   6.271  15.875 -0.5545  0.0192 -0.0215
19586TIP3    H180249   5.630   6.311  15.935 -0.6583  0.1403 -0.2131
19586TIP3    H280250   5.774   6.267  15.926 -1.0185 -1.2657  0.6573
19587TIP3   OH280251   1.221   0.189   4.689  0.2615 -0.5683 -0.3284
19587TIP3    H180252   1.191   0.249   4.756  1.5565  1.1430 -1.2338
19587TIP3    H280253   1.234   0.106   4.735  0.3183  0.3546  1.3615
19588TIP3   OH280254   3.523   0.619  13.792 -0.1906 -0.0695 -0.1186
19588TIP3    H180255   3.478   0.679  13.732  2.0550  0.9246 -0.8800
19588TIP3    H280256   3.583   0.570  13.736 -0.7903 -1.8599  0.7703
19589TIP3   OH280257   0.360   5.167  15.887 -0.5123  0.0936  0.0276
19589TIP3    H180258   0.278   5.118  15.875 -1.1835  1.2268 -0.1121
19589TIP3    H280259   0.423   5.101  15.917 -1.5113 -0.7691  0.2770
19590TIP3   OH280260   5.035   6.582  15.825 -0.3229 -0.0357  0.0842
19590TIP3    H180261   4.954   6.551  15.786  0.4594 -0.9843 -0.8285
19590TIP3    H280262   5.051   6.522  15.898 -1.7611  1.7097  1.8680
19591TIP3   OH280263   2.091   1.047  16.948 -0.3264  0.7906  0.0369
19591TIP3    H180264   2.118   1.059  16.857  0.4419 -0.1545  0.1298
19591TIP3    H280265   2.052   0.959  16.950  1.1962  0.1240  0.9611
19592TIP3   OH280266   5.989   1.072  13.367  0.3278 -0.4606 -0.0920
19592TIP3    H180267   5.940   1.135  13.420  1.5513 -0.1057  0.6523
19592TIP3    H280268   6.045   1.126  13.312 -1.5477 -0.7943 -2.4231
19593TIP3   OH280269   1.155   5.239   3.070 -0.1460  0.5837 -0.6061
19593TIP3    H180270   1.204   5.175   3.121  0.0504 -0.8673 -2.5310
19593TIP3    H280271   1.221   5.283   3.016 -0.3425  2.0814  0.3642
19594TIP3   OH280272   2.166   5.361   2.478 -0.0812 -0.0067  0.0809
19594TIP3    H180273   2.182   5.379   2.385  1.7088 -4.4499 -0.6581
19594TIP3    H280274   2.229   5.417   2.524  2.4446 -1.2270 -1.7234
19595TIP3   OH280275   1.024   4.413   0.274 -0.0901  0.2560  0.4587
19595TIP3    H180276   1.046   4.421   0.181  0.5938 -0.1147  0.5895
19595TIP3    H280277   1.052   4.496   0.313  0.3430  0.1019  0.4774
19596TIP3   OH280278   4.656   6.246   2.430  0.4375  0.5038 -0.0172
19596TIP3    H180279   4.731   6.302   2.446  1.1697 -0.3838 -0.3277
19596TIP3    H280280   4.680   6.161   2.466 -0.6228  0.3469  0.3526
19597TIP3   OH280281   6.356   2.276  14.479 -0.1823 -0.4636 -0.1395
19597TIP3    H180282   6.376   2.194  14.434 -1.7782 -1.2840  0.5944
19597TIP3    H280283   6.379   2.345  14.417 -0.5262 -1.5167 -1.4435
19598TIP3   OH280284   6.808   5.602  14.273 -0.2327 -0.4513  0.2010
19598TIP3    H180285   6.798   5.622  14.366  0.6030  0.6142  0.0703
19598TIP3    H280286   6.890   5.646  14.248 -0.0211 -1.4193 -0.8376
19599TIP3   OH280287   1.869   3.981   3.360  0.1218 -0.6717 -0.4146
19599TIP3    H180288   1.813   3.908   3.387 -0.9013 -0.2085 -1.2796
19599TIP3    H280289   1.824   4.059   3.390  1.0188 -0.3585  0.1521
19600TIP3   OH280290   5.371   5.038   2.541 -0.3999  0.6024 -0.4121
19600TIP3    H180291   5.281   5.034   2.571  0.1652 -1.0705  1.1077
19600TIP3    H280292   5.418   5.085   2.610  1.2131 -4.6122  2.3029
19601TIP3   OH280293   2.236   1.445  15.690  0.6763  0.1297  0.5155
19601TIP3    H180294   2.278   1.451  15.776  1.4154 -0.8130  0.2205
19601TIP3    H280295   2.306   1.419  15.630 -0.2307 -1.0113 -0.0597
19602TIP3   OH280296   1.969   0.106  16.263 -0.5823  0.1004 -0.0060
19602TIP3    H180297   1.976   0.170  16.192 -0.9800  1.8089  1.4600
19602TIP3    H280298   2.051   0.114  16.311 -0.6717 -0.4334  0.2352
19603TIP3   OH280299   1.183   3.416   4.291 -1.4501  0.6415 -0.2127
19603TIP3    H180300   1.192   3.495   4.238 -0.3379  1.1334  0.6740
19603TIP3    H280301   1.105   3.372   4.256 -0.0396  0.2854 -3.1020
19604TIP3   OH280302   3.221   0.804  15.282  0.7825  0.1978  0.4866
19604TIP3    H180303   3.138   0.839  15.250  1.2741  0.0420 -0.9631
19604TIP3    H280304   3.224   0.715  15.247  0.6627 -0.4940  2.1642
19605TIP3   OH280305   3.446   5.163   3.583 -1.0751  0.1291  0.0419
19605TIP3    H180306   3.401   5.155   3.499 -1.2078  3.3068 -0.2331
19605TIP3    H280307   3.517   5.225   3.567  1.0366 -1.8532  1.4525
19606TIP3   OH280308   2.977   2.973   4.818 -0.3897  0.1770 -0.1195
19606TIP3    H180309   2.984   3.067   4.799  0.0842 -0.3895 -3.0226
19606TIP3    H280310   2.926   2.938   4.745 -1.8480 -1.6274  1.6960
19607TIP3   OH280311   3.131   5.968  14.813  0.6021  0.1412  0.3536
19607TIP3    H180312   3.091   6.021  14.744 -0.3191 -0.1229  0.6828
19607TIP3    H280313   3.061   5.909  14.841  1.5230 -1.0670  0.1756
19608TIP3   OH280314   0.282   0.073   1.658  0.2825  0.4836  0.3372
19608TIP3    H180315   0.341   0.140   1.625  0.8336  1.3838  3.0663
19608TIP3    H280316   0.229   0.118   1.724 -1.4451 -1.0389  0.0405
19609TIP3   OH280317   1.879   3.559  11.746 -0.5650  0.0901  0.6850
19609TIP3    H180318   1.851   3.490  11.807  0.0299  0.3619  1.2776
19609TIP3    H280319   1.807   3.567  11.684 -1.0304 -0.4393  1.1490
19610TIP3   OH280320   2.076   5.488  13.610 -0.4322 -0.1939  0.0843
19610TIP3    H180321   2.052   5.408  13.563  2.9859 -0.3610 -1.5371
19610TIP3    H280322   2.039   5.559  13.557  1.7230 -0.4789 -1.8940
19611TIP3   OH280323   0.047   3.185  15.898 -0.0556  0.6586 -0.0878
19611TIP3    H180324   0.113   3.188  15.829 -1.4969 -0.8329 -1.6003
19611TIP3    H280325   0.078   3.118  15.958 -0.4633 -0.4452 -1.0966
19612TIP3   OH280326   2.925   5.465  11.740  0.3466 -0.0166  0.4061
19612TIP3    H180327   2.967   5.442  11.823 -0.0535 -2.2535  0.0239
19612TIP3    H280328   2.930   5.560  11.736  1.2413  0.0518  2.5396
19613TIP3   OH280329   2.635   5.631   3.496 -0.2184  0.0862 -0.3478
19613TIP3    H180330   2.636   5.535   3.491 -1.2727 -0.0136  0.8709
19613TIP3    H280331   2.726   5.655   3.510 -0.0853 -0.8398  0.5119
19614TIP3   OH280332   5.970   1.581   0.265  0.0800  0.3655  0.2830
19614TIP3    H180333   5.918   1.598   0.345  1.0470 -1.8931  1.4336
19614TIP3    H280334   5.949   1.655   0.208 -1.6166  1.3987  2.1321
19615TIP3   OH280335   2.432   3.292   3.762 -0.0872 -0.1903  0.0105
19615TIP3    H180336   2.522   3.307   3.792 -1.1924  2.7202  2.1067
19615TIP3    H280337   2.410   3.369   3.711 -0.9117 -1.6026 -1.8322
19616TIP3   OH280338   0.375   5.835   1.856 -0.5091  0.1614 -0.3781
19616TIP3    H180339   0.285   5.803   1.856 -0.3656 -0.2665 -1.1097
19616TIP3    H280340   0.426   5.763   1.819 -0.0429  0.8496 -1.0869
19617TIP3   OH280341   5.559   2.537  13.267  0.0669 -0.1529 -0.2670
19617TIP3    H180342   5.587   2.527  13.357  0.7397 -4.3269 -0.8555
19617TIP3    H280343   5.475   2.492  13.262  0.8919 -1.5634 -2.1012
19618TIP3   OH280344   1.527   6.074   4.881  0.3743 -0.1037  0.1436
19618TIP3    H180345   1.478   5.994   4.898  0.5980  0.1050  1.8819
19618TIP3    H280346   1.618   6.051   4.902  0.8808 -0.2094 -2.1045
19619TIP3   OH280347   0.202   0.792   2.057 -0.6375 -0.0908 -0.1251
19619TIP3    H180348   0.255   0.856   2.009 -1.3186  0.8763  0.3948
19619TIP3    H280349   0.240   0.790   2.145 -1.6919  0.8974  0.3660
19620TIP3   OH280350   6.654   1.526  11.715  0.3176  0.7510  0.4337
19620TIP3    H180351   6.678   1.599  11.658 -0.6923  0.1813 -0.7487
19620TIP3    H280352   6.689   1.449  11.672 -2.2711  0.0717 -0.5754
19621TIP3   OH280353   4.337   0.286   6.169 -0.1398  0.2187  0.1518
19621TIP3    H180354   4.303   0.197   6.177  1.8841 -0.4557  2.0760
19621TIP3    H280355   4.421   0.283   6.216  0.8635  2.6573 -1.3951
19622TIP3   OH280356   1.734   2.907   4.311  0.0119 -0.3844  0.1493
19622TIP3    H180357   1.756   2.973   4.377 -1.4142 -0.5806  0.8268
19622TIP3    H280358   1.782   2.829   4.339  1.8563  0.3741 -0.7588
19623TIP3   OH280359   0.969   2.269   3.057 -0.2674  0.3125  0.0510
19623TIP3    H180360   1.049   2.271   3.111 -0.0175  2.8791 -0.3441
19623TIP3    H280361   0.914   2.202   3.098  0.4169  1.3642  2.7808
19624TIP3   OH280362   1.725   0.181  15.935  0.3272 -0.0211  0.1096
19624TIP3    H180363   1.707   0.273  15.914 -0.2900 -0.0440  0.5134
19624TIP3    H280364   1.818   0.170  15.918  0.4728  0.7733  0.3784
19625TIP3   OH280365   3.453   0.519   3.130  0.1525  0.2746 -0.6725
19625TIP3    H180366   3.414   0.605   3.114 -0.2031  0.4115  0.8243
19625TIP3    H280367   3.524   0.536   3.192  1.0012 -0.3232 -1.4674
19626TIP3   OH280368   4.366   6.566   4.267  0.4121 -0.1293 -0.1419
19626TIP3    H180369   4.409   6.523   4.341 -1.1999 -0.7610  0.4302
19626TIP3    H280370   4.273   6.559   4.285 -0.0031 -0.1440 -2.1664
19627TIP3   OH280371   0.400   2.983   5.071 -0.1911  0.2205 -0.2977
19627TIP3    H180372   0.414   3.028   5.155  1.3211 -1.3240  0.3046
19627TIP3    H280373   0.342   2.910   5.094 -1.8112  1.2277 -1.0854
19628TIP3   OH280374   3.582   5.440  13.654 -0.5305  0.1670 -0.1563
19628TIP3    H180375   3.537   5.400  13.579 -0.4309  0.0887 -0.1744
19628TIP3    H280376   3.618   5.366  13.702  2.0567  0.3660 -1.7054
19629TIP3   OH280377   4.329   4.783   0.113  0.3560  0.1902 -0.1392
19629TIP3    H180378   4.312   4.698   0.072  0.3813 -0.0560  0.3452
19629TIP3    H280379   4.423   4.796   0.103  0.1564  0.7481 -1.3161
19630TIP3   OH280380   0.484   6.001   6.036 -0.3014 -0.4668 -0.4659
19630TIP3    H180381   0.521   5.923   6.079 -1.9263 -0.8730  0.2154
19630TIP3    H280382   0.439   5.967   5.959  1.3163  0.1081 -1.6809
19631TIP3   OH280383   4.393   0.199  12.513 -0.3212 -0.5161  0.0161
19631TIP3    H180384   4.432   0.168  12.595 -1.4036 -0.0858  0.7012
19631TIP3    H280385   4.307   0.233  12.539 -0.1360  0.8215 -1.1003
19632TIP3   OH280386   2.516   6.060   4.910  0.0674  0.2839 -0.0603
19632TIP3    H180387   2.527   6.004   4.833 -2.1743  2.0133 -1.7240
19632TIP3    H280388   2.594   6.043   4.963  2.3273 -0.0552 -3.2993
19633TIP3   OH280389   5.399   6.539  11.919 -0.8637 -0.4634 -0.5567
19633TIP3    H180390   5.472   6.528  11.858 -0.1969 -0.8826  0.3062
19633TIP3    H280391   5.407   6.466  11.980 -2.9452 -1.4288 -1.3770
19634TIP3   OH280392   0.946   4.616   3.448  0.7610 -0.3261  0.2691
19634TIP3    H180393   1.006   4.542   3.457  1.8617  0.5848  0.5267
19634TIP3    H280394   0.995   4.690   3.483  0.1415  0.7694 -1.1735
19635TIP3   OH280395   3.675   1.640   3.228  0.2712  0.3805 -0.1752
19635TIP3    H180396   3.671   1.728   3.266 -0.4220  1.0282 -1.6705
19635TIP3    H280397   3.682   1.581   3.303  0.5700  1.7046  0.8542
19636TIP3   OH280398   1.869   3.741  17.195  0.0941 -0.2235 -0.2187
19636TIP3    H180399   1.775   3.724  17.186 -0.1167  0.3173  0.9623
19636TIP3    H280400   1.910   3.678  17.136 -0.9775 -1.0112 -0.1314
19637TIP3   OH280401   3.833   1.647  12.694  0.0086  0.1857  0.3686
19637TIP3    H180402   3.789   1.564  12.675  0.7862 -0.2903  0.6445
19637TIP3    H280403   3.884   1.630  12.773  1.0538  0.5982 -0.1986
19638TIP3   OH280404   0.305   3.042  11.453  0.0386 -0.1536  0.0421
19638TIP3    H180405   0.295   3.012  11.362  1.1487  0.3812 -0.2630
19638TIP3    H280406   0.230   3.100  11.467 -0.2689 -0.4218 -0.4527
19639TIP3   OH280407   5.838   3.587  10.278 -0.4640  0.0419  0.8123
19639TIP3    H180408   5.758   3.628  10.244  1.6941  1.7474 -2.5425
19639TIP3    H280409   5.892   3.661  10.306  1.5863 -0.7561 -0.9225
19640TIP3   OH280410   5.247   5.104   0.727 -0.6358  0.0355 -0.4249
19640TIP3    H180411   5.235   5.009   0.727 -1.7742  0.1370 -2.7062
19640TIP3    H280412   5.193   5.135   0.800 -1.5662 -0.9458 -0.6846
19641TIP3   OH280413   3.360   2.705   1.840 -0.5035  0.4070  0.3744
19641TIP3    H180414   3.452   2.683   1.855 -1.0903 -1.9516  0.6978
19641TIP3    H280415   3.360   2.753   1.757  1.0685  0.8544  0.6177
19642TIP3   OH280416   4.568   3.278  15.526  0.0386 -0.0061  0.5178
19642TIP3    H180417   4.545   3.344  15.591 -1.4147 -1.2353  1.2909
19642TIP3    H280418   4.594   3.201  15.577  0.0555 -0.5920 -0.3505
19643TIP3   OH280419   3.655   5.578  14.819  0.0116 -0.3489 -0.0106
19643TIP3    H180420   3.610   5.517  14.760 -1.6023  0.2364  0.5967
19643TIP3    H280421   3.670   5.656  14.765 -3.0438  0.8601  0.7956
19644TIP3   OH280422   4.299   0.455  11.213  0.5624 -0.6500 -0.1041
19644TIP3    H180423   4.329   0.546  11.221  0.8721 -0.8020  0.4634
19644TIP3    H280424   4.316   0.432  11.121  0.5328 -0.1529 -0.2335
19645TIP3   OH280425   2.443   5.572  14.436  0.4841 -0.3266  0.2959
19645TIP3    H180426   2.428   5.620  14.355 -1.3654  0.9947  1.3629
19645TIP3    H280427   2.532   5.536  14.427  1.0329  1.3800 -1.5022
19646TIP3   OH280428   1.342   2.232   0.258 -0.1849 -0.2563 -0.2597
19646TIP3    H180429   1.392   2.314   0.270 -0.7920  0.1772 -0.6859
19646TIP3    H280430   1.262   2.246   0.308 -0.3164 -0.5693 -0.3876
19647TIP3   OH280431   3.895   2.588   2.402  0.0382 -0.3197 -0.3096
19647TIP3    H180432   3.949   2.570   2.479 -1.4431 -2.1037  0.3488
19647TIP3    H280433   3.859   2.675   2.416  1.5091  0.2536 -0.0314
19648TIP3   OH280434   6.771   2.451  11.847 -0.6253 -0.2788 -0.5241
19648TIP3    H180435   6.865   2.441  11.832 -0.0863  0.3406  2.1687
19648TIP3    H280436   6.759   2.545  11.863 -2.0155 -0.0611 -2.5794
19649TIP3   OH280437   1.998   3.018  12.148 -0.6022  0.6829  0.1549
19649TIP3    H180438   1.967   2.984  12.232  1.5508  0.9891  1.1052
19649TIP3    H280439   1.986   2.945  12.087 -0.2807 -0.2606  1.1943
19650TIP3   OH280440   0.318   3.387   1.235  0.5195 -0.5018 -0.1005
19650TIP3    H180441   0.227   3.414   1.246  0.8730  0.2214  1.1126
19650TIP3    H280442   0.337   3.333   1.312  0.4816 -2.4006 -1.4099
19651TIP3   OH280443   6.359   3.852  14.353 -0.7046 -0.7211  0.6611
19651TIP3    H180444   6.367   3.844  14.258  1.2657  1.6849  0.5749
19651TIP3    H280445   6.336   3.764  14.383 -0.6036 -1.6707 -1.9732
19652TIP3   OH280446   2.091   0.040   3.516  0.4173  0.2105 -0.7931
19652TIP3    H180447   2.040   0.093   3.454 -2.0023 -0.7693  0.2787
19652TIP3    H280448   2.100   0.096   3.593 -1.8289 -0.7117  0.2024
19653TIP3   OH280449   0.896   6.674   6.470  0.0239  0.2929 -0.4337
19653TIP3    H180450   0.805   6.698   6.486  0.2360 -0.1042  1.4129
19653TIP3    H280451   0.941   6.758   6.459 -0.2045  0.5662  0.6831
19654TIP3   OH280452   4.834   5.808  13.123 -0.0744 -0.2610 -0.1767
19654TIP3    H180453   4.817   5.757  13.044 -0.9132 -0.5953  0.2081
19654TIP3    H280454   4.902   5.759  13.169 -0.0494 -0.4137 -0.3777
19655TIP3   OH280455   4.685   5.343   3.769  0.2352  0.3445  0.6005
19655TIP3    H180456   4.704   5.264   3.718 -0.7810  0.0082  0.7318
19655TIP3    H280457   4.618   5.315   3.832 -0.0684  1.2854  0.7010
19656TIP3   OH280458   4.705   2.793  14.108 -1.0576 -0.0186 -0.3602
19656TIP3    H180459   4.770   2.850  14.150 -0.7257  1.6620 -3.0743
19656TIP3    H280460   4.659   2.752  14.181  1.6030  0.4016  1.6306
19657TIP3   OH280461   6.634   3.131  16.077 -0.0930  0.1502  0.2303
19657TIP3    H180462   6.704   3.151  16.015  0.2446  1.1879  0.9419
19657TIP3    H280463   6.619   3.213  16.124 -0.2554 -0.6729  1.6255
19658TIP3   OH280464   2.823   5.473  15.673  0.4367  0.1492 -0.6289
19658TIP3    H180465   2.900   5.416  15.666 -0.4967 -1.1110 -0.6890
19658TIP3    H280466   2.808   5.503  15.583 -0.2609 -1.1090 -0.9488
19659TIP3   OH280467   1.903   5.707   3.497  0.8378 -0.3107 -0.0106
19659TIP3    H180468   1.949   5.726   3.415  1.0094 -0.8026 -0.0300
19659TIP3    H280469   1.834   5.773   3.502  1.1544  0.0450 -0.2926
19660TIP3   OH280470   6.675   0.709   1.661 -0.0732  0.0069 -0.4634
19660TIP3    H180471   6.665   0.626   1.614 -0.4390  0.1671 -0.6632
19660TIP3    H280472   6.725   0.764   1.601 -0.2527  0.0992 -0.5261
19661TIP3   OH280473   5.889   1.351  14.863 -0.3474 -0.0328  0.2764
19661TIP3    H180474   5.955   1.289  14.894  0.3077  0.1532 -0.7295
19661TIP3    H280475   5.905   1.358  14.769  0.7713  3.0388  0.6223
19662TIP3   OH280476   6.524   2.061  16.991 -0.2549 -0.2404 -0.3707
19662TIP3    H180477   6.461   2.133  16.986  0.4740  0.3398 -1.5027
19662TIP3    H280478   6.562   2.068  17.078 -1.1501 -0.0778  0.0171
19663TIP3   OH280479   5.205   6.268   0.959 -0.5533 -0.3432  0.4544
19663TIP3    H180480   5.195   6.337   0.893  1.1138  0.8469  1.4092
19663TIP3    H280481   5.211   6.187   0.908 -1.7620  0.2866 -0.7167
19664TIP3   OH280482   2.638   5.048  10.570  0.2338  0.4780 -0.1969
19664TIP3    H180483   2.596   5.126  10.607 -0.9726  0.1703 -0.8831
19664TIP3    H280484   2.731   5.059  10.589 -0.0286  1.6935  0.4155
19665TIP3   OH280485   0.982   2.673   4.634 -0.3655 -0.2868  0.2158
19665TIP3    H180486   1.011   2.587   4.663  3.0211  1.0289  0.9536
19665TIP3    H280487   1.043   2.697   4.563 -0.0806  2.2084  1.2290
19666TIP3   OH280488   3.205   2.833   4.946 -0.0659  0.0457 -0.4078
19666TIP3    H180489   3.138   2.876   4.892 -0.2382 -0.8303 -0.8982
19666TIP3    H280490   3.173   2.842   5.035 -1.8386 -2.0581 -0.7872
19667TIP3   OH280491   6.531   5.850   1.482 -0.3076 -0.1307  0.6006
19667TIP3    H180492   6.552   5.838   1.389 -0.4116  0.4403  0.5068
19667TIP3    H280493   6.441   5.816   1.491  0.5679 -2.4867  0.9843
19668TIP3   OH280494   5.585   4.929   2.736 -0.6292  0.4617  0.1313
19668TIP3    H180495   5.660   4.989   2.736  0.6361 -1.0862 -0.2987
19668TIP3    H280496   5.624   4.842   2.726 -2.4104 -0.4705  1.0013
19669TIP3   OH280497   2.589   0.235   2.424 -0.4624 -0.0564 -0.3871
19669TIP3    H180498   2.669   0.209   2.379  1.3541 -1.7448  3.5796
19669TIP3    H280499   2.525   0.167   2.402 -0.1897  0.1638 -1.8821
19670TIP3   OH280500   4.169   2.197   6.423 -0.2126 -0.3340 -0.0158
19670TIP3    H180501   4.195   2.198   6.331  0.3250  0.9454  0.1457
19670TIP3    H280502   4.228   2.259   6.466 -1.0617 -0.2315  1.0305
19671TIP3   OH280503   5.080   6.494   5.104  0.0996 -0.4928 -0.0352
19671TIP3    H180504   5.085   6.551   5.027  1.2314 -0.8662 -0.2426
19671TIP3    H280505   5.001   6.442   5.091  0.5839 -0.9353 -1.2117
19672TIP3   OH280506   1.916   5.814   3.908 -0.6550  0.4147  0.1626
19672TIP3    H180507   1.944   5.852   3.991 -0.6189 -0.1672  0.4175
19672TIP3    H280508   1.998   5.798   3.860 -0.7273  1.8092 -0.4619
19673TIP3   OH280509   1.420   5.566   2.529 -0.3253 -0.0996 -0.3747
19673TIP3    H180510   1.473   5.521   2.594 -2.0989  0.1639  1.2977
19673TIP3    H280511   1.333   5.527   2.537 -0.6467  0.1003 -2.4324
19674TIP3   OH280512   4.434   4.129  10.163  0.1723  0.5358  0.1187
19674TIP3    H180513   4.363   4.133  10.099  0.3957  2.2392 -0.0413
19674TIP3    H280514   4.424   4.043  10.205 -0.7586 -0.0531 -1.2858
19675TIP3   OH280515   3.051   4.578   0.213 -0.3212  0.0548 -0.5194
19675TIP3    H180516   3.143   4.604   0.204 -0.6905  1.3227 -0.6617
19675TIP3    H280517   3.031   4.532   0.131  0.9270 -2.6038  0.5747
19676TIP3   OH280518   3.158   3.199   2.451 -0.7001 -0.0101  0.3403
19676TIP3    H180519   3.107   3.213   2.371  0.9039 -0.6958 -0.8522
19676TIP3    H280520   3.200   3.284   2.467  0.2253 -0.3004 -0.4782
19677TIP3   OH280521   4.465   4.583   3.200  0.3655  0.1877 -0.2888
19677TIP3    H180522   4.503   4.511   3.150 -0.8114  0.0208 -0.9554
19677TIP3    H280523   4.529   4.654   3.190 -0.4477  0.5983 -3.1810
19678TIP3   OH280524   2.716   3.433   3.700  0.6882  0.5814 -0.0059
19678TIP3    H180525   2.776   3.465   3.633 -0.4432 -0.8397 -1.7290
19678TIP3    H280526   2.663   3.509   3.723 -0.4366  0.5507 -2.4008
19679TIP3   OH280527   0.363   0.978   0.937 -0.0028  0.2705  0.2647
19679TIP3    H180528   0.275   0.987   0.973 -0.2916 -2.1362  0.2336
19679TIP3    H280529   0.374   1.057   0.883 -1.7620  1.0623  0.9994
19680TIP3   OH280530   3.589   4.485  12.274 -0.1522 -0.1433  0.1717
19680TIP3    H180531   3.665   4.541  12.255  0.1816  0.3894  2.8782
19680TIP3    H280532   3.626   4.397  12.281  0.4169  0.2430  2.4198
19681TIP3   OH280533   3.730   4.316   0.049 -0.1135 -0.6154 -0.0092
19681TIP3    H180534   3.769   4.266  -0.023  1.7594  0.0791  0.4947
19681TIP3    H280535   3.720   4.251   0.120 -1.8465 -1.2690 -0.8132
19682TIP3   OH280536   1.174   2.515   6.397  0.1238 -0.2015 -0.1847
19682TIP3    H180537   1.255   2.558   6.424 -0.5822  1.2419 -0.2869
19682TIP3    H280538   1.105   2.564   6.441 -0.6206 -2.4235  1.1696
19683TIP3   OH280539   4.606   3.887  14.292 -0.1427  0.2702  0.0436
19683TIP3    H180540   4.655   3.899  14.211  0.0079 -0.5989 -0.0058
19683TIP3    H280541   4.672   3.890  14.361  0.0018 -0.9179 -0.0239
19684TIP3   OH280542   4.436   2.262   3.401 -0.5814 -0.0595  0.1020
19684TIP3    H180543   4.492   2.276   3.477  2.5808  0.6142 -2.2792
19684TIP3    H280544   4.387   2.344   3.392  1.5301  1.1745 -0.5531
19685TIP3   OH280545   0.762   0.651  17.106  0.6477  0.0148 -0.1084
19685TIP3    H180546   0.852   0.674  17.132 -0.1004  2.5431  0.3915
19685TIP3    H280547   0.748   0.700  17.025 -0.6798  0.5901  0.4629
19686TIP3   OH280548   5.138   2.700  11.186  0.1773 -0.4412 -0.2669
19686TIP3    H180549   5.199   2.763  11.146  0.1349  1.3434  2.3150
19686TIP3    H280550   5.195   2.633  11.225  0.4738  0.5646  1.0712
19687TIP3   OH280551   3.058   6.657   1.673 -0.4316 -0.2029 -0.0349
19687TIP3    H180552   3.002   6.700   1.608  0.5306 -0.2810 -0.9232
19687TIP3    H280553   3.141   6.703   1.668  0.4711 -1.8677 -0.6841
19688TIP3   OH280554   6.619   4.740   2.093  0.2930  0.0041  0.2175
19688TIP3    H180555   6.607   4.645   2.095 -1.3623  0.1368 -1.8632
19688TIP3    H280556   6.663   4.756   2.010 -0.8123  1.1766 -0.1559
19689TIP3   OH280557   2.101   4.326  12.905 -0.6218 -0.2290  0.0840
19689TIP3    H180558   2.022   4.358  12.860 -0.7670  0.2210  0.6392
19689TIP3    H280559   2.164   4.398  12.896 -0.2576 -0.6072 -0.3968
19690TIP3   OH280560   0.225   0.530   4.941  0.0495  0.6352  0.1520
19690TIP3    H180561   0.273   0.588   4.882  0.3932  0.6126  0.4063
19690TIP3    H280562   0.168   0.479   4.884  1.4341 -0.4138 -0.3066
19691TIP3   OH280563   5.653   1.464   1.369 -0.1004  0.1613  0.2434
19691TIP3    H180564   5.667   1.558   1.360  0.5394 -0.0192 -0.8020
19691TIP3    H280565   5.583   1.456   1.434 -0.9196  1.3945 -0.4692
19692TIP3   OH280566   6.721   1.735   1.342 -0.0729  0.2757  0.0947
19692TIP3    H180567   6.711   1.657   1.396 -1.2188 -0.6102 -1.3450
19692TIP3    H280568   6.800   1.720   1.291  0.8901  1.0185  1.3382
19693TIP3   OH280569   4.956   1.867  12.987  0.0185 -0.2336  0.7722
19693TIP3    H180570   4.946   1.886  12.893  2.0279  0.2589  0.6311
19693TIP3    H280571   5.043   1.828  12.994 -0.6611 -1.5199  2.2715
19694TIP3   OH280572   2.124   2.960   1.227 -0.1195  0.1766  0.0486
19694TIP3    H180573   2.066   2.985   1.299 -0.1449  0.5311 -0.0912
19694TIP3    H280574   2.071   2.975   1.148 -0.3014 -0.7823 -0.0174
19695TIP3   OH280575   1.706   3.730  13.575  0.0825 -0.3411  0.2248
19695TIP3    H180576   1.716   3.684  13.491  2.7418  0.8258 -0.1428
19695TIP3    H280577   1.756   3.811  13.564 -0.6441  0.4593  2.5001
19696TIP3   OH280578   3.078   3.806  11.621 -0.5419  0.1809  0.2469
19696TIP3    H180579   3.146   3.743  11.597 -2.4375 -1.0703 -2.0430
19696TIP3    H280580   3.080   3.807  11.717  1.9805 -0.5954  0.2625
19697TIP3   OH280581   0.630   2.476  15.180  0.4607 -0.0633 -0.0484
19697TIP3    H180582   0.562   2.540  15.160  0.8533  0.3977  0.0808
19697TIP3    H280583   0.595   2.393  15.146  1.1272  0.7046 -2.7604
19698TIP3   OH280584   3.704   4.129   0.593  0.1991 -0.2469 -0.6021
19698TIP3    H180585   3.774   4.079   0.636 -0.3905 -2.4703 -2.1247
19698TIP3    H280586   3.632   4.129   0.657  0.2388 -1.2995 -0.5369
19699TIP3   OH280587   1.777   3.407  13.672 -0.0706 -0.4614 -0.1438
19699TIP3    H180588   1.724   3.487  13.663 -0.1252 -0.5650 -0.7298
19699TIP3    H280589   1.759   3.357  13.592  0.7168 -0.6114 -0.2274
19700TIP3   OH280590   4.491   5.495   4.859  0.1217  0.1029 -0.0035
19700TIP3    H180591   4.464   5.418   4.909  0.4556  1.6233  2.6612
19700TIP3    H280592   4.425   5.561   4.880  0.8161  1.0756 -0.8127
19701TIP3   OH280593   4.258   2.095   3.018  0.0374 -0.5037 -0.0807
19701TIP3    H180594   4.196   2.058   3.080 -1.2917  1.7695  0.0074
19701TIP3    H280595   4.323   2.026   3.005 -2.0917 -2.6693  0.3726
19702TIP3   OH280596   0.498   4.631   4.987  0.0154  0.0739  0.3259
19702TIP3    H180597   0.443   4.590   4.920  0.4702  1.6648 -1.0379
19702TIP3    H280598   0.436   4.671   5.048 -0.3634  0.1464 -0.1069
19703TIP3   OH280599   4.628   6.741  15.839 -0.0526  0.1295  0.5357
19703TIP3    H180600   4.591   6.795  15.909  0.4923 -0.9298  1.6610
19703TIP3    H280601   4.673   6.670  15.885  0.7797 -0.2819 -0.8830
19704TIP3   OH280602   5.281   3.913  16.821  0.2551  0.1519  1.1494
19704TIP3    H180603   5.202   3.903  16.873  0.4098 -0.2887  1.3004
19704TIP3    H280604   5.308   3.824  16.800 -0.4848  0.3356 -0.7132
19705TIP3   OH280605   6.164   6.574  12.527  0.3388  0.1757  0.0699
19705TIP3    H180606   6.092   6.551  12.468 -0.4043 -0.6778  1.2919
19705TIP3    H280607   6.214   6.640  12.479 -1.2143  0.7381 -0.8210
19706TIP3   OH280608   4.877   3.713  17.263  0.7239 -0.5262 -0.6542
19706TIP3    H180609   4.942   3.701  17.332 -1.4717 -1.3226  1.3110
19706TIP3    H280610   4.833   3.795  17.286 -0.5009 -1.1673 -0.7227
19707TIP3   OH280611   5.037   0.680  12.060 -0.0190  0.4194  0.1431
19707TIP3    H180612   5.027   0.672  11.965 -1.7308  3.2449  0.0069
19707TIP3    H280613   4.966   0.627  12.096 -0.1802  0.3946 -0.2095
19708TIP3   OH280614   2.216   4.720  11.106 -0.1802  0.9034 -0.3206
19708TIP3    H180615   2.210   4.809  11.071  0.8916  1.8110  1.6954
19708TIP3    H280616   2.294   4.683  11.064 -0.2369  1.1655 -0.6617
19709TIP3   OH280617   4.442   6.015   4.499 -0.2197  0.6899 -0.0151
19709TIP3    H180618   4.486   6.090   4.541 -0.1683  0.6780 -0.0486
19709TIP3    H280619   4.371   5.992   4.560  1.2916 -0.8270  1.2164
19710TIP3   OH280620   6.717   5.369   0.666 -0.4138 -0.2296  0.0498
19710TIP3    H180621   6.785   5.332   0.722 -0.5727 -2.7357 -1.3480
19710TIP3    H280622   6.636   5.330   0.697 -1.0190  1.3358  0.5191
19711TIP3   OH280623   1.603   4.242  11.681 -0.0383  0.3143 -0.3267
19711TIP3    H180624   1.550   4.322  11.678  0.3039  0.5418 -0.3053
19711TIP3    H280625   1.693   4.273  11.691  0.0061 -0.0907  0.6430
19712TIP3   OH280626   6.360   2.982   3.888 -0.5724  0.2816 -0.0560
19712TIP3    H180627   6.442   3.000   3.843 -1.1022  1.0898 -0.6911
19712TIP3    H280628   6.356   2.886   3.893  0.9011  0.2488  0.8965
19713TIP3   OH280629   1.476   4.670   6.328 -0.2107  0.0267 -0.1301
19713TIP3    H180630   1.405   4.728   6.354 -2.0670 -1.3136 -2.0501
19713TIP3    H280631   1.484   4.608   6.401 -0.2253  0.8480  0.5815
19714TIP3   OH280632   1.513   5.976   2.706 -0.2660 -0.5261 -0.9928
19714TIP3    H180633   1.506   6.026   2.788 -0.4834  0.5003 -1.6338
19714TIP3    H280634   1.597   6.004   2.669  1.0503 -2.8843  0.1159
19715TIP3   OH280635   3.357   6.627  13.283  0.2667 -0.5295 -0.5301
19715TIP3    H180636   3.415   6.554  13.260 -0.3366 -1.1344 -0.1347
19715TIP3    H280637   3.312   6.599  13.362 -0.5616 -0.0601 -0.8195
19716TIP3   OH280638   2.865   1.703   0.894 -0.1398 -0.0068 -0.2149
19716TIP3    H180639   2.926   1.680   0.964  0.0048 -0.2160 -0.4066
19716TIP3    H280640   2.845   1.619   0.852 -0.5736  0.0609 -0.1407
19717TIP3   OH280641   6.526   3.240   5.319  0.3515 -0.0749  0.2693
19717TIP3    H180642   6.500   3.296   5.246  0.1027  2.8084  2.4930
19717TIP3    H280643   6.576   3.169   5.279 -0.1968  1.1874 -2.7311
19718TIP3   OH280644   2.792   0.438   3.439  0.4311  0.4164 -0.0800
19718TIP3    H180645   2.788   0.492   3.518 -2.5370 -2.3653  1.8386
19718TIP3    H280646   2.745   0.489   3.373 -0.8170  0.9811  1.2034
19719TIP3   OH280647   1.396   2.592   4.131  0.2318  0.4223  0.0694
19719TIP3    H180648   1.472   2.649   4.142  0.4427  0.1806 -0.1185
19719TIP3    H280649   1.321   2.645   4.158  0.2880  1.2187 -1.3164
19720TIP3   OH280650   2.587   0.400  16.270  0.0385  0.2530 -0.1405
19720TIP3    H180651   2.578   0.455  16.348  3.2760 -0.4177  0.7715
19720TIP3    H280652   2.592   0.463  16.198  0.4964  1.0479  0.5661
19721TIP3   OH280653   6.320   4.295  14.963 -0.0510 -0.0535  0.0646
19721TIP3    H180654   6.362   4.275  14.879  0.3076  0.9316  0.0026
19721TIP3    H280655   6.348   4.224  15.021  0.1538 -0.4374 -0.5002
19722TIP3   OH280656   0.504   5.979  14.973 -0.0734 -0.1254  0.3405
19722TIP3    H180657   0.521   6.001  14.882 -1.8728 -1.1628 -0.2625
19722TIP3    H280658   0.566   5.909  14.993  0.9497  0.7361  0.2055
19723TIP3   OH280659   3.961   3.737  16.383 -0.6468 -0.4219 -0.0957
19723TIP3    H180660   4.005   3.818  16.409 -0.1559 -1.2460  1.6989
19723TIP3    H280661   3.879   3.736  16.432 -0.7227 -0.9296 -0.2283
19724TIP3   OH280662   1.183   4.476  14.667  0.1914  0.1460  0.4539
19724TIP3    H180663   1.159   4.449  14.756  1.7807 -2.0609  0.2582
19724TIP3    H280664   1.228   4.400  14.631 -0.6041  0.9530 -2.3247
19725TIP3   OH280665   5.175   2.644   5.186  0.2688 -0.5237  0.3136
19725TIP3    H180666   5.235   2.664   5.114  0.3952  0.7791  0.7729
19725TIP3    H280667   5.227   2.592   5.247  0.7738  0.1511  0.4588
19726TIP3   OH280668   2.898   1.630  16.224 -0.0224  0.1868 -0.3274
19726TIP3    H180669   2.957   1.669  16.288 -0.6011  0.4880  0.0164
19726TIP3    H280670   2.954   1.612  16.148  1.2041 -2.3971  1.1227
19727TIP3   OH280671   4.379   4.556   4.945 -0.0598 -0.4363  0.1073
19727TIP3    H180672   4.341   4.473   4.916  1.6071 -1.8108  1.6932
19727TIP3    H280673   4.436   4.531   5.018  2.9615  1.6957 -1.4573
19728TIP3   OH280674   2.046   4.720   3.243  0.0371 -0.1130  0.2871
19728TIP3    H180675   2.132   4.749   3.214  0.2175 -0.8431  0.0929
19728TIP3    H280676   1.984   4.762   3.184  0.3799 -1.3132 -0.9458
19729TIP3   OH280677   6.540   3.760  15.620  0.2279  0.5736  0.0377
19729TIP3    H180678   6.566   3.719  15.703 -0.2954  1.7619  0.8045
19729TIP3    H280679   6.452   3.725  15.604  0.3061  0.3876  0.0060
19730TIP3   OH280680   3.930   0.619   2.270 -0.3374 -0.1050  0.5227
19730TIP3    H180681   3.946   0.680   2.342  1.8882  1.6128 -1.3605
19730TIP3    H280682   3.916   0.675   2.193  3.8607 -1.9001 -1.7038
19731TIP3   OH280683   0.344   5.090   3.720 -0.4537 -0.3044  0.5373
19731TIP3    H180684   0.349   5.129   3.807 -0.8875  0.8818  0.0438
19731TIP3    H280685   0.372   4.999   3.732  0.0021  0.0033  1.8082
19732TIP3   OH280686   5.705   1.616   5.826 -0.2526  0.2587  0.0812
19732TIP3    H180687   5.729   1.701   5.789 -0.7728  0.8354  1.0666
19732TIP3    H280688   5.673   1.566   5.751 -1.2248  1.3948 -0.2861
19733TIP3   OH280689   0.726   6.610   5.227 -0.7063  0.2961  0.2033
19733TIP3    H180690   0.654   6.592   5.288  0.3703 -0.6620  1.2324
19733TIP3    H280691   0.686   6.662   5.157 -2.4162 -0.2965  0.6998
19734TIP3   OH280692   4.435   1.775   0.936  0.4478  0.4325 -0.0049
19734TIP3    H180693   4.421   1.863   0.972  1.0569  0.1034  1.0348
19734TIP3    H280694   4.350   1.733   0.940  0.3175  0.7135  0.1875
19735TIP3   OH280695   0.244   4.967  12.362  0.4931  0.0399 -0.0719
19735TIP3    H180696   0.232   4.915  12.442 -3.5268  1.8637  0.6608
19735TIP3    H280697   0.323   5.018  12.379 -0.1372  0.2151  2.7245
19736TIP3   OH280698   5.162   2.671   4.165 -1.0430  0.0589  0.3767
19736TIP3    H180699   5.147   2.713   4.250  0.4266 -1.0134  1.1973
19736TIP3    H280700   5.258   2.666   4.158 -1.1791 -1.7466 -0.3950
19737TIP3   OH280701   6.315   3.613  16.213 -0.2916  0.0048  0.0353
19737TIP3    H180702   6.279   3.654  16.135 -0.9781  1.3208  1.0139
19737TIP3    H280703   6.237   3.590  16.265  0.1468 -1.0343  0.2407
19738TIP3   OH280704   6.135   2.963   0.563 -0.0478  0.5200 -0.1235
19738TIP3    H180705   6.044   2.992   0.564  0.4687  2.2981 -1.4985
19738TIP3    H280706   6.146   2.914   0.645 -2.3415 -0.1223 -0.1631
19739TIP3   OH280707   1.239   3.379  12.149 -0.3999 -0.2297  0.0974
19739TIP3    H180708   1.320   3.342  12.113 -0.4395  0.1835 -0.4207
19739TIP3    H280709   1.253   3.379  12.244  0.4036  0.2851 -0.0146
19740TIP3   OH280710   3.574   2.116  13.549 -0.2737  0.3151  0.5566
19740TIP3    H180711   3.613   2.043  13.596  0.8710 -1.2563 -2.6824
19740TIP3    H280712   3.645   2.180  13.540 -1.0563  1.5451  2.6828
19741TIP3   OH280713   5.201   0.343   0.310 -0.6035 -0.5106  0.4687
19741TIP3    H180714   5.147   0.327   0.232 -0.4057 -0.5954  0.3507
19741TIP3    H280715   5.180   0.269   0.368 -0.7245 -0.4656  0.4839
19742TIP3   OH280716   4.409   5.883  15.283  0.1749 -0.5255  0.1488
19742TIP3    H180717   4.379   5.805  15.236  2.4212  0.0798 -2.4674
19742TIP3    H280718   4.488   5.855  15.329 -0.5715 -0.4651  1.4789
19743TIP3   OH280719   0.320   0.057   4.767 -0.1431 -0.1905 -0.3739
19743TIP3    H180720   0.399   0.015   4.800 -0.5691 -1.4164 -0.8982
19743TIP3    H280721   0.288   0.108   4.842  1.2471  0.4905 -0.2284
19744TIP3   OH280722   0.644   3.555   1.551 -0.0711  1.0386 -0.2033
19744TIP3    H180723   0.564   3.577   1.504 -0.3526  0.6628  0.0970
19744TIP3    H280724   0.658   3.628   1.612 -0.9245  0.4717  0.6886
19745TIP3   OH280725   3.371   1.697   1.584  0.1200  0.1487  0.6520
19745TIP3    H180726   3.303   1.633   1.563 -0.1306  0.5947  0.0901
19745TIP3    H280727   3.357   1.769   1.522  1.6271 -0.1304 -0.0241
19746TIP3   OH280728   2.821   1.157  15.473  0.5006  0.2467 -0.3190
19746TIP3    H180729   2.748   1.134  15.531 -0.3325  0.1431 -1.3995
19746TIP3    H280730   2.885   1.197  15.531  0.6319 -1.9124  1.0733
19747TIP3   OH280731   3.515   4.390  17.169 -0.1944 -0.3905  0.1462
19747TIP3    H180732   3.527   4.484  17.161  0.8715 -0.7856 -3.6440
19747TIP3    H280733   3.587   4.361  17.226 -0.7649  1.0661  1.6583
19748TIP3   OH280734   6.399   5.111  16.376  0.1278  0.8980 -0.2112
19748TIP3    H180735   6.468   5.126  16.311 -1.3993  2.2583 -1.5483
19748TIP3    H280736   6.367   5.198  16.398 -1.1284  0.2919  0.4555
19749TIP3   OH280737   3.333   3.378  12.768 -0.4308  0.1728  0.1584
19749TIP3    H180738   3.317   3.472  12.759 -0.3653  0.0327 -1.6788
19749TIP3    H280739   3.424   3.372  12.796 -0.8362  0.6924  1.6022
19750TIP3   OH280740   0.597   1.433  11.920  0.1058  0.0634  0.5523
19750TIP3    H180741   0.513   1.428  11.966 -0.4227 -0.6574 -0.4782
19750TIP3    H280742   0.655   1.478  11.981 -1.6487  2.6496  0.3638
19751TIP3   OH280743   0.045   2.379  11.366  0.2761  0.1947 -0.2171
19751TIP3    H180744  -0.042   2.358  11.401  0.2658  0.6434  0.0357
19751TIP3    H280745   0.031   2.459  11.315  0.4892  0.1207 -0.3893
19752TIP3   OH280746   5.401   1.226   0.404 -0.5332  0.2658  0.2925
19752TIP3    H180747   5.402   1.284   0.327 -0.9877 -0.3799 -0.2013
19752TIP3    H280748   5.359   1.278   0.472 -0.3447  0.7572  0.0393
19753TIP3   OH280749   6.219   1.626  14.704  0.0579 -0.4025 -0.2284
19753TIP3    H180750   6.177   1.686  14.642  2.4058 -0.4366 -1.9344
19753TIP3    H280751   6.242   1.549  14.651  0.5348 -1.1831  1.0845
19754TIP3   OH280752   3.130   3.126   0.152 -0.7071  0.3797 -0.0165
19754TIP3    H180753   3.209   3.116   0.205 -1.7122 -1.2208  1.2270
19754TIP3    H280754   3.065   3.069   0.194 -2.1779  0.7566 -1.7002
19755TIP3   OH280755   3.505   4.768  14.335 -0.6061 -0.4899 -0.1799
19755TIP3    H180756   3.516   4.848  14.387  2.3414 -0.7034 -0.3819
19755TIP3    H280757   3.543   4.790  14.250 -1.0815 -1.6519 -0.6950
19756TIP3   OH280758   4.784   6.707   4.741  0.3021 -0.5075  0.5507
19756TIP3    H180759   4.757   6.715   4.832 -1.2027 -1.7440  0.2490
19756TIP3    H280760   4.702   6.715   4.691  0.9634 -0.8695 -0.6202
19757TIP3   OH280761   4.203   6.725  14.171 -0.1137 -0.2686  0.5165
19757TIP3    H180762   4.178   6.701  14.260 -0.0564  1.2177  0.9457
19757TIP3    H280763   4.290   6.764  14.181  1.3182 -3.0999 -0.6313
19758TIP3   OH280764   1.802   1.628   0.369  0.0338 -0.0192 -0.4157
19758TIP3    H180765   1.837   1.702   0.318 -3.3853  1.9889 -0.0145
19758TIP3    H280766   1.757   1.574   0.305  3.3302 -2.4171 -0.8713
19759TIP3   OH280767   4.754   1.842   1.156 -0.8352 -0.8696 -0.4254
19759TIP3    H180768   4.825   1.905   1.145 -0.1229 -2.0167 -2.8239
19759TIP3    H280769   4.718   1.860   1.243  0.9710  1.1620 -0.0733
19760TIP3   OH280770   4.683   6.689  15.230 -0.3044  0.1880 -0.1250
19760TIP3    H180771   4.642   6.674  15.315  0.4621  2.8035  0.7597
19760TIP3    H280772   4.774   6.713  15.252  0.2948 -0.5551 -1.7613
19761TIP3   OH280773   1.177   1.942   5.766 -1.1409 -0.4251 -0.5478
19761TIP3    H180774   1.165   1.911   5.856 -0.5268 -0.7663 -0.5772
19761TIP3    H280775   1.134   2.027   5.764 -1.7878 -0.7378 -0.1266
19762TIP3   OH280776   6.590   5.087   4.241 -0.0582 -0.0814 -0.2972
19762TIP3    H180777   6.634   5.172   4.239  0.4114 -0.2961  0.5002
19762TIP3    H280778   6.655   5.027   4.277 -0.6404 -0.6210 -0.1309
19763TIP3   OH280779   6.053   6.597   4.611  0.2651 -0.0100  0.4258
19763TIP3    H180780   6.034   6.504   4.601  0.2552 -0.0689  0.9705
19763TIP3    H280781   6.084   6.606   4.702 -0.3934  0.6246  0.5998
19764TIP3   OH280782   6.602   4.867   0.159  0.0707 -0.0652  0.1227
19764TIP3    H180783   6.625   4.957   0.184 -0.6344 -0.2332  1.4435
19764TIP3    H280784   6.654   4.850   0.081 -0.2083  1.7000 -0.4802
19765TIP3   OH280785   2.828   5.305  12.860 -0.4520  0.1970 -0.2667
19765TIP3    H180786   2.757   5.252  12.822 -0.6830  1.4367 -1.5876
19765TIP3    H280787   2.783   5.369  12.915 -0.2580 -0.0255  0.1502
19766TIP3   OH280788   3.972   1.798  16.103 -0.3940  0.2555 -0.3449
19766TIP3    H180789   3.954   1.766  16.015 -0.2223 -1.9071  0.3676
19766TIP3    H280790   4.055   1.845  16.095  0.0959 -0.7286 -1.1542
19767TIP3   OH280791   0.990   6.246  12.680  0.2954  0.2538 -0.2672
19767TIP3    H180792   1.006   6.160  12.720 -1.3251  0.2687  0.4644
19767TIP3    H280793   1.072   6.268  12.638  0.8344 -1.5393 -0.2240
19768TIP3   OH280794   3.768   1.526  13.725 -0.0901 -0.1685 -0.3626
19768TIP3    H180795   3.847   1.533  13.778 -0.2262 -0.2509 -0.1486
19768TIP3    H280796   3.700   1.500  13.787  0.1885 -2.3528 -0.9673
19769TIP3   OH280797   5.855   5.749   5.049 -0.2626 -0.2042  0.5558
19769TIP3    H180798   5.782   5.809   5.040  0.9945  0.9541 -3.1947
19769TIP3    H280799   5.932   5.805   5.057  0.6108 -1.3273  0.2213
19770TIP3   OH280800   4.111   4.585  13.567  0.0864 -0.0997 -0.2408
19770TIP3    H180801   4.189   4.633  13.595 -1.2714  1.0087  1.6872
19770TIP3    H280802   4.085   4.535  13.644 -0.0989 -1.8523 -1.4197
19771TIP3   OH280803   6.264   0.432  13.274 -0.5707 -0.2764  0.3394
19771TIP3    H180804   6.323   0.401  13.206  0.3089  0.3422  0.7999
19771TIP3    H280805   6.195   0.480  13.227  0.2796  0.5394 -0.0835
19772TIP3   OH280806   2.961   3.869  12.380  0.0649  0.0755  0.4055
19772TIP3    H180807   2.887   3.810  12.392 -0.4231  0.8273  1.1647
19772TIP3    H280808   3.027   3.817  12.334  0.6166 -1.7780  3.2347
19773TIP3   OH280809   3.047   2.953  11.380 -0.4097 -0.1883 -0.3489
19773TIP3    H180810   3.098   2.892  11.433 -1.1163 -1.6765 -1.3452
19773TIP3    H280811   3.092   2.956  11.296 -1.2403 -0.5373 -0.8142
19774TIP3   OH280812   0.165   3.868   4.532  0.8151  0.0358 -0.0972
19774TIP3    H180813   0.182   3.933   4.464 -1.2693  1.9774  1.1231
19774TIP3    H280814   0.126   3.794   4.486  0.4457  0.8866 -1.1689
19775TIP3   OH280815   6.495   4.773   5.570  0.4188  0.0149 -0.7115
19775TIP3    H180816   6.478   4.707   5.503 -0.0323 -0.0579 -0.5272
19775TIP3    H280817   6.570   4.740   5.618  0.8454  0.1464 -1.2833
19776TIP3   OH280818   6.179   6.675  17.165 -0.2584  0.1333  0.3695
19776TIP3    H180819   6.201   6.658  17.257  0.3554 -2.9702 -0.2911
19776TIP3    H280820   6.257   6.718  17.130  0.1480 -0.1609  0.8948
19777TIP3   OH280821   6.411   4.245   3.988 -0.3528 -0.0271 -0.5529
19777TIP3    H180822   6.495   4.251   3.942 -0.0269  1.8809  0.2374
19777TIP3    H280823   6.364   4.175   3.943  1.4643 -0.7814 -1.3268
19778TIP3   OH280824   5.949   5.576  11.360 -0.5139 -0.2823 -0.1409
19778TIP3    H180825   5.916   5.604  11.275 -1.5290  0.6539  0.5402
19778TIP3    H280826   5.873   5.539  11.404  0.4206 -2.5105 -0.3378
19779TIP3   OH280827   1.955   3.792  10.593 -0.0736  0.5664  0.3510
19779TIP3    H180828   2.046   3.762  10.587 -0.5372 -1.2362  1.9003
19779TIP3    H280829   1.961   3.878  10.634  1.0089  0.9287 -0.5480
19780TIP3   OH280830   1.500   0.938   4.743  0.2342 -0.7020  0.1649
19780TIP3    H180831   1.529   0.859   4.788  1.4114 -0.4774 -0.1901
19780TIP3    H280832   1.449   0.985   4.809  0.9578 -0.9428  0.9054
19781TIP3   OH280833   1.328   0.385   5.097  0.1342  0.1931  0.5316
19781TIP3    H180834   1.345   0.304   5.145  0.2923  0.1846  0.4634
19781TIP3    H280835   1.239   0.375   5.063  0.4898 -0.3462 -0.2464
19782TIP3   OH280836   3.422   1.983  11.529 -0.1869 -0.0302 -0.3033
19782TIP3    H180837   3.440   1.917  11.595  0.8711  0.0118 -0.5386
19782TIP3    H280838   3.442   2.066  11.572 -1.4299  0.1353 -0.0368
19783TIP3   OH280839   4.163   0.444  12.812  0.2128 -0.0926 -0.3835
19783TIP3    H180840   4.209   0.528  12.812 -0.3716  0.2391  1.4784
19783TIP3    H280841   4.208   0.391  12.877  1.1543 -1.5789 -2.1987
19784TIP3   OH280842   4.510   2.115   5.349 -0.1482 -0.0979 -0.2060
19784TIP3    H180843   4.492   2.173   5.275 -0.2572  2.0143  1.4258
19784TIP3    H280844   4.605   2.116   5.359 -0.0287 -1.3541 -1.0408
19785TIP3   OH280845   1.901   1.415  17.202 -0.1127 -0.8795  0.3211
19785TIP3    H180846   1.810   1.439  17.218  0.2023  1.7379 -1.5612
19785TIP3    H280847   1.896   1.343  17.139 -0.8813 -1.1617  0.6928
19786TIP3   OH280848   4.119   0.421   0.447  0.3587  0.1391  0.2925
19786TIP3    H180849   4.188   0.357   0.431 -1.8089 -1.3285 -3.8751
19786TIP3    H280850   4.165   0.504   0.461  3.0121 -1.2614 -0.0039
19787TIP3   OH280851   2.135   6.147  15.376 -0.4383 -0.2520  0.1407
19787TIP3    H180852   2.086   6.192  15.307 -1.2603 -1.0586  0.1755
19787TIP3    H280853   2.185   6.215  15.419  0.7006  0.1540 -1.7654
19788TIP3   OH280854   5.037   0.888  12.341  0.8573 -0.0662  0.4856
19788TIP3    H180855   5.092   0.810  12.339  2.0906  0.8154 -2.0235
19788TIP3    H280856   4.988   0.884  12.259 -2.3249 -0.4432  2.3333
19789TIP3   OH280857   0.775   3.715  11.450  0.4875  0.2966 -0.2516
19789TIP3    H180858   0.763   3.775  11.377  0.3765 -0.1455 -0.5949
19789TIP3    H280859   0.716   3.747  11.518  0.7221  0.8106 -0.2895
19790TIP3   OH280860   1.417   5.798   3.289  0.0753 -0.3479 -0.6414
19790TIP3    H180861   1.440   5.846   3.368 -0.5014 -1.1998  0.0604
19790TIP3    H280862   1.385   5.713   3.321 -1.6988 -0.1103 -1.6824
19791TIP3   OH280863   2.227   4.463   1.522  0.7822  0.5018 -0.0263
19791TIP3    H180864   2.154   4.453   1.583  0.1204  0.0482 -0.8764
19791TIP3    H280865   2.301   4.490   1.576 -0.1507  1.4774  0.7661
19792TIP3   OH280866   1.651   5.455  15.314 -0.6986  0.5522  0.5899
19792TIP3    H180867   1.742   5.427  15.323 -0.6149  0.1526 -1.3872
19792TIP3    H280868   1.651   5.511  15.236 -2.1923  0.3745  0.4549
19793TIP3   OH280869   6.673   2.491  10.957 -0.5820  0.1021  0.4891
19793TIP3    H180870   6.596   2.437  10.939  1.4981 -1.9175 -2.8303
19793TIP3    H280871   6.687   2.541  10.876  0.6858  1.6171  1.6107
19794TIP3   OH280872   2.950   4.055   3.218 -0.1792 -0.3943 -0.0836
19794TIP3    H180873   2.885   4.106   3.171  1.2395  1.6742  0.0990
19794TIP3    H280874   2.901   4.011   3.287 -1.6771 -0.4816 -1.1812
19795TIP3   OH280875   3.566   3.610  12.308  0.5456 -0.2819  0.2590
19795TIP3    H180876   3.482   3.648  12.283  1.4552  1.9731  0.5640
19795TIP3    H280877   3.579   3.637  12.399  0.8724 -1.9407  0.7198
19796TIP3   OH280878   0.311   2.300  12.757 -0.1984 -0.0619 -0.0051
19796TIP3    H180879   0.264   2.296  12.674  0.2136  0.7758 -0.2845
19796TIP3    H280880   0.379   2.367  12.743 -0.8672  0.9235  1.3761
19797TIP3   OH280881   3.295   2.125  12.362  0.2743 -0.1919  0.1618
19797TIP3    H180882   3.310   2.113  12.268  1.3729  0.9180  0.1870
19797TIP3    H280883   3.209   2.168  12.367 -0.1961 -1.0633 -0.2818
19798TIP3   OH280884   2.556   1.657   4.181 -0.3234 -0.1426  0.0559
19798TIP3    H180885   2.533   1.613   4.099 -0.0737 -1.4759  0.6775
19798TIP3    H280886   2.474   1.698   4.210  0.0260  1.9262 -1.7791
19799TIP3   OH280887   4.857   0.351  13.365 -0.5707 -0.0600  0.2135
19799TIP3    H180888   4.940   0.371  13.408 -1.1529  0.5244  1.0787
19799TIP3    H280889   4.790   0.388  13.423 -1.4026  0.1243 -0.8453
19800TIP3   OH280890   1.956   4.448   1.140 -0.0847  0.2859 -0.5437
19800TIP3    H180891   1.959   4.473   1.048 -1.1493 -1.2637 -1.0387
19800TIP3    H280892   1.879   4.493   1.175 -2.1065 -2.2823 -1.4781
19801TIP3   OH280893   3.533   1.790   0.373  0.1547  0.0520 -0.1705
19801TIP3    H180894   3.597   1.720   0.368 -0.8767 -0.8131 -1.6231
19801TIP3    H280895   3.501   1.801   0.284 -1.4349  0.7246  0.4497
19802TIP3   OH280896   6.207   1.986  11.541  0.4832 -0.0336  0.2318
19802TIP3    H180897   6.294   1.945  11.537  0.5027 -0.5627  4.1269
19802TIP3    H280898   6.147   1.917  11.514  1.1060 -0.3227 -0.4298
19803TIP3   OH280899   2.705   4.357   2.606 -0.0315  0.0452 -0.0618
19803TIP3    H180900   2.640   4.416   2.644 -0.6461 -0.1904 -0.7437
19803TIP3    H280901   2.767   4.415   2.563 -0.2458  0.2277 -0.1241
19804TIP3   OH280902   6.645   5.667  12.820 -0.2243 -0.2335  0.5105
19804TIP3    H180903   6.665   5.607  12.748  1.0527 -0.7989  1.3144
19804TIP3    H280904   6.663   5.616  12.899  4.4762  2.2491  1.2421
19805TIP3   OH280905   6.355   3.783  12.676 -0.2484 -0.5287  0.0870
19805TIP3    H180906   6.309   3.770  12.758  2.1118 -2.2131  1.1918
19805TIP3    H280907   6.404   3.864  12.688 -0.6200 -0.2899 -0.0033
19806TIP3   OH280908   0.253   6.810   6.073 -0.3710  0.5139 -0.3462
19806TIP3    H180909   0.327   6.751   6.062 -0.8585 -0.2384  0.3282
19806TIP3    H280910   0.289   6.885   6.120 -0.6098 -1.1143  2.5731
19807TIP3   OH280911   1.601   4.392   1.747  0.1705  0.0627  0.4617
19807TIP3    H180912   1.531   4.442   1.790 -0.6698  0.6848 -1.5679
19807TIP3    H280913   1.670   4.386   1.813 -0.4040  2.4304  1.3292
19808TIP3   OH280914   4.035   2.321  11.778 -0.4745  0.4967  0.2867
19808TIP3    H180915   3.973   2.310  11.706 -2.1695  0.5747  1.7057
19808TIP3    H280916   4.030   2.414  11.800 -1.9655 -0.0110  2.2260
19809TIP3   OH280917   0.543   6.659   1.200 -0.2958 -0.0480  0.2175
19809TIP3    H180918   0.509   6.658   1.290  1.8671 -3.0865  1.0892
19809TIP3    H280919   0.488   6.596   1.154  0.5700 -0.8261  0.2314
19810TIP3   OH280920   6.126   6.382  10.440 -0.0570  0.0454  0.1179
19810TIP3    H180921   6.090   6.296  10.464 -1.5299  1.0395  1.6241
19810TIP3    H280922   6.215   6.363  10.409  0.1650 -1.8830  1.8144
19811TIP3   OH280923   0.921   4.666  16.707 -0.3487  0.0423  0.5143
19811TIP3    H180924   0.858   4.649  16.637 -0.4681  3.9551 -0.4588
19811TIP3    H280925   0.868   4.695  16.781  0.1741  2.0137  0.1429
19812TIP3   OH280926   3.858   1.125   4.851  0.8382 -0.1712 -0.4641
19812TIP3    H180927   3.827   1.035   4.843 -1.0405  0.4404 -0.4244
19812TIP3    H280928   3.913   1.139   4.775 -1.3392 -0.4048 -2.1297
19813TIP3   OH280929   5.616   4.861  16.217  0.8150  0.6115 -0.0712
19813TIP3    H180930   5.684   4.803  16.252  0.3529  0.2202  0.2025
19813TIP3    H280931   5.565   4.805  16.159  2.0847  1.4805 -2.0435
19814TIP3   OH280932   5.816   1.385  13.906 -1.3476  0.0291  0.2867
19814TIP3    H180933   5.726   1.353  13.915 -2.0067  0.7579 -2.8110
19814TIP3    H280934   5.806   1.479  13.888 -0.0131  0.0509 -0.4560
19815TIP3   OH280935   5.720   0.106  15.272  0.1498 -0.5195  0.4416
19815TIP3    H180936   5.632   0.141  15.286 -0.6248 -1.4751 -1.7402
19815TIP3    H280937   5.763   0.169  15.214 -0.2632 -1.6777 -1.1667
19816TIP3   OH280938   1.224   2.950   1.390 -0.0333  0.0219 -0.0814
19816TIP3    H180939   1.267   2.866   1.407  2.7269  1.4082 -0.0220
19816TIP3    H280940   1.210   2.950   1.295 -2.2852 -1.5020  0.2002
19817TIP3   OH280941   1.453   6.550   5.249 -0.5775 -0.1840 -0.6152
19817TIP3    H180942   1.460   6.474   5.307 -0.2687  0.2291 -0.1020
19817TIP3    H280943   1.458   6.625   5.308  0.6390  0.2551 -1.2761
19818TIP3   OH280944   2.428   6.526   6.178  1.0346  0.3145  0.2262
19818TIP3    H180945   2.453   6.466   6.108 -0.6658  1.1456 -1.1128
19818TIP3    H280946   2.341   6.497   6.204  0.7366  1.4178  0.4528
19819TIP3   OH280947   3.477   1.446   5.662 -0.7613 -0.2387 -0.4367
19819TIP3    H180948   3.502   1.471   5.751 -0.2624 -0.0462 -0.6254
19819TIP3    H280949   3.480   1.528   5.613 -0.9826 -0.3536 -0.6445
19820TIP3   OH280950   5.181   3.284  12.863  0.1438  0.2869  0.0342
19820TIP3    H180951   5.232   3.274  12.942  3.0866  0.5646 -1.7524
19820TIP3    H280952   5.229   3.235  12.796 -0.5711  2.5551 -2.2601
19821TIP3   OH280953   5.011   0.712  15.316 -0.5776 -0.2305  0.0152
19821TIP3    H180954   5.043   0.759  15.393  0.8703  1.0986 -1.3817
19821TIP3    H280955   5.016   0.775  15.245 -1.0709 -1.7204 -1.3723
19822TIP3   OH280956   3.078   0.867   1.898  0.3799  0.4569 -0.1031
19822TIP3    H180957   3.124   0.784   1.913  1.1913  0.9372  0.0678
19822TIP3    H280958   2.988   0.841   1.878  0.7251 -0.4844 -0.4381
19823TIP3   OH280959   1.990   6.792  17.139  0.2676  0.0796  0.4546
19823TIP3    H180960   1.991   6.847  17.218  0.6484  2.4828 -1.1462
19823TIP3    H280961   2.082   6.776  17.120  0.2235  0.4678 -0.1065
19824TIP3   OH280962   1.483   2.691   3.061  0.0820  0.2232  0.2015
19824TIP3    H180963   1.399   2.653   3.034  0.7674 -1.6101  0.5605
19824TIP3    H280964   1.459   2.773   3.105 -1.5587 -0.4949  0.7120
19825TIP3   OH280965   3.816   0.301   1.057 -0.3489 -1.0174 -0.3388
19825TIP3    H180966   3.819   0.209   1.031  0.9671 -1.1530  0.2920
19825TIP3    H280967   3.855   0.348   0.984 -0.0783 -1.0554 -0.2189
19826TIP3   OH280968   4.624   5.696  15.287  0.3786 -0.4002  0.2117
19826TIP3    H180969   4.678   5.660  15.357  0.5373 -2.5455 -0.9572
19826TIP3    H280970   4.571   5.622  15.257 -1.7283  1.1503 -0.0544
19827TIP3   OH280971   0.880   5.238   3.125 -0.0227  0.0402  0.2711
19827TIP3    H180972   0.864   5.175   3.195 -2.0675  0.4104  0.1900
19827TIP3    H280973   0.968   5.219   3.094  0.2329 -1.2793  1.7638
19828TIP3   OH280974   2.744   2.352   3.203  0.9462  0.3548 -0.2227
19828TIP3    H180975   2.717   2.418   3.140  0.3242  1.5094  1.2169
19828TIP3    H280976   2.765   2.274   3.151 -0.5819  0.9509 -1.7238
19829TIP3   OH280977   2.859   5.235  13.205  1.0604 -0.3751  0.1104
19829TIP3    H180978   2.764   5.234  13.214  0.8841 -0.9280 -1.6314
19829TIP3    H280979   2.882   5.328  13.205  0.3985 -0.2100 -0.5711
19830TIP3   OH280980   1.182   1.426  14.826  0.0711  0.1753  0.6800
19830TIP3    H180981   1.106   1.471  14.861 -1.1253 -2.2086  1.2316
19830TIP3    H280982   1.186   1.343  14.874  2.5994 -0.0645  0.1719
19831TIP3   OH280983   2.294   0.292   0.169  0.0036 -1.0059 -0.1822
19831TIP3    H180984   2.382   0.291   0.207  0.2694 -0.3304 -0.7749
19831TIP3    H280985   2.239   0.327   0.239  0.2497 -1.1424  0.0849
19832TIP3   OH280986   4.512   4.032  15.710  0.1361  0.1836 -0.0935
19832TIP3    H180987   4.501   3.938  15.703 -0.8585  0.1166  2.1840
19832TIP3    H280988   4.489   4.054  15.800 -0.4473  2.7145 -0.7961
19833TIP3   OH280989   6.750   0.279  14.893 -0.2322 -0.2945 -0.2807
19833TIP3    H180990   6.747   0.187  14.867 -1.2452 -0.6075  0.8987
19833TIP3    H280991   6.669   0.316  14.860  0.0698  0.1267 -0.5561
19834TIP3   OH280992   5.593   5.133   0.370 -0.1597 -0.5920 -1.2279
19834TIP3    H180993   5.568   5.224   0.352 -0.4042 -0.6498 -1.1850
19834TIP3    H280994   5.512   5.092   0.402  0.4942 -0.2244  0.9882
19835TIP3   OH280995   4.698   4.365  11.619 -0.0751 -0.2052 -0.0685
19835TIP3    H180996   4.676   4.307  11.692  0.7035 -0.8714 -0.3467
19835TIP3    H280997   4.629   4.350  11.555 -0.6606  0.2442  0.4584
19836TIP3   OH280998   4.447   2.761  15.585  0.0357 -0.0618  0.1416
19836TIP3    H180999   4.487   2.840  15.619  0.9403 -0.1345 -0.7321
19836TIP3    H281000   4.518   2.715  15.541 -0.8161 -0.6009 -0.6913
19837TIP3   OH281001   4.959   3.267   3.633 -0.2795  0.3577 -0.3128
19837TIP3    H181002   4.935   3.306   3.717 -1.0679 -1.1217  0.1637
19837TIP3    H281003   4.922   3.327   3.568  0.6617  1.7115  0.3739
19838TIP3   OH281004   2.038   1.499  11.868 -0.1787 -0.1177  0.2364
19838TIP3    H181005   2.057   1.408  11.845  0.7507 -0.0726  0.7692
19838TIP3    H281006   2.086   1.550  11.803  0.0286 -0.0124  0.4684
19839TIP3   OH281007   6.285   6.051  14.470  0.0429 -0.2666  0.1777
19839TIP3    H181008   6.213   6.094  14.424 -0.1994  0.2702  1.0568
19839TIP3    H281009   6.363   6.093  14.435 -0.1976  0.9707  1.1105
19840TIP3   OH281010   6.573   1.032  15.798  0.2945  0.1522 -0.2807
19840TIP3    H181011   6.571   1.127  15.793  2.4679  0.2287 -0.1884
19840TIP3    H281012   6.559   1.012  15.891  0.4100  0.4044 -0.2098
19841TIP3   OH281013   2.131   6.006  14.008  0.4167 -0.1329 -0.2756
19841TIP3    H181014   2.056   5.953  14.036 -0.6195  1.1157 -0.6524
19841TIP3    H281015   2.197   5.942  13.981 -0.4293 -1.2495  0.2875
19842TIP3   OH281016   1.258   0.836  16.130 -0.2185 -0.1772  0.2283
19842TIP3    H181017   1.316   0.857  16.057 -0.6667 -0.1943 -0.1367
19842TIP3    H281018   1.312   0.783  16.190  0.0895 -0.3332 -0.1881
19843TIP3   OH281019   5.080   1.604  10.972 -0.1316  0.0156  0.0199
19843TIP3    H181020   5.145   1.534  10.975 -0.5229 -0.4131 -1.3806
19843TIP3    H281021   5.031   1.588  10.892 -0.9365  1.2646  0.2519
19844TIP3   OH281022   0.377   3.850   3.965 -0.0782  0.1531 -0.5873
19844TIP3    H181023   0.285   3.825   3.975 -0.0064 -1.2048 -3.0212
19844TIP3    H281024   0.375   3.924   3.905  0.4628 -0.0736 -0.8839
19845TIP3   OH281025   3.409   1.917   4.631 -0.1278  0.0469 -0.1601
19845TIP3    H181026   3.352   1.841   4.642 -0.5708  0.3736 -0.1963
19845TIP3    H281027   3.383   1.978   4.700  0.2725  0.1395 -0.0864
19846TIP3   OH281028   5.127   6.390   2.575  0.0244 -0.3123 -0.3290
19846TIP3    H181029   5.033   6.372   2.579 -0.2015  1.0721  0.6098
19846TIP3    H281030   5.155   6.394   2.666  0.7282  0.6723 -0.5858
19847TIP3   OH281031   0.851   1.909   5.885 -0.7552 -0.1449 -0.6281
19847TIP3    H181032   0.855   1.874   5.796 -1.5461 -0.9045 -0.3658
19847TIP3    H281033   0.935   1.884   5.924 -0.6386 -0.2937 -0.9751
19848TIP3   OH281034   5.645   3.194   0.767 -0.2444 -0.1213 -0.2387
19848TIP3    H181035   5.579   3.245   0.721 -0.3223  0.6906  0.7491
19848TIP3    H281036   5.710   3.259   0.796  0.5298 -0.7968 -0.4293
19849TIP3   OH281037   0.121   1.789  12.210  0.0258  0.1376 -0.4496
19849TIP3    H181038   0.073   1.715  12.173 -0.9748  0.5030  0.1042
19849TIP3    H281039   0.055   1.840  12.257  1.3730 -0.6583  2.4413
19850TIP3   OH281040   3.277   1.689   4.646  0.0227 -0.0366  0.0828
19850TIP3    H181041   3.271   1.621   4.712 -0.8115  0.1114  0.1699
19850TIP3    H281042   3.242   1.649   4.566  0.7569 -0.1245 -0.1973
19851TIP3   OH281043   0.391   0.674  11.639 -0.3245  0.0646  0.1168
19851TIP3    H181044   0.398   0.601  11.578  0.3602  1.5818 -1.6761
19851TIP3    H281045   0.332   0.643  11.708 -0.2454 -2.0643 -0.7483
19852TIP3   OH281046   0.630   6.005   6.335 -0.1735 -0.6411  0.1045
19852TIP3    H181047   0.570   5.945   6.378 -0.9144  0.2769  0.3745
19852TIP3    H281048   0.655   6.068   6.403  0.1220 -0.2897 -0.3210
19853TIP3   OH281049   1.229   6.280  13.846  0.1158  0.3574 -0.2748
19853TIP3    H181050   1.186   6.253  13.927 -2.0740 -0.2286 -1.5811
19853TIP3    H281051   1.216   6.374  13.843  3.1949  0.9155  1.6987
19854TIP3   OH281052   0.723   6.289   1.091  0.2848  0.5560 -0.4025
19854TIP3    H181053   0.748   6.304   0.999 -0.6351  0.4332 -0.6803
19854TIP3    H281054   0.677   6.205   1.089  0.3465  0.5102  0.1930
19855TIP3   OH281055   5.186   1.983   3.278  0.2398  0.2597  0.1974
19855TIP3    H181056   5.100   2.022   3.262  1.0372  2.5472  1.2444
19855TIP3    H281057   5.242   2.018   3.209  1.2370  1.9896  1.8210
19856TIP3   OH281058   2.601   2.231  12.871  0.4833  0.1456  0.1339
19856TIP3    H181059   2.509   2.206  12.856  0.1306  2.1970 -1.3956
19856TIP3    H281060   2.650   2.149  12.861 -1.0553 -0.7342 -0.4297
19857TIP3   OH281061   1.121   1.542   4.996  0.0662  0.0688  0.2373
19857TIP3    H181062   1.193   1.483   5.021  0.2078  0.2654  0.3016
19857TIP3    H281063   1.137   1.620   5.049  0.5066  0.5860 -0.6517
19858TIP3   OH281064   3.414   5.257   2.237 -0.1293 -0.3089  0.6221
19858TIP3    H181065   3.341   5.249   2.298 -0.9356  1.1812 -0.1256
19858TIP3    H281066   3.473   5.320   2.279 -0.1676 -0.0952  0.3515
19859TIP3   OH281067   0.220   1.467  16.769  0.4200 -0.3278 -0.0784
19859TIP3    H181068   0.126   1.482  16.783  0.3270 -0.8363 -0.1127
19859TIP3    H281069   0.229   1.467  16.673  0.3507 -0.8450 -0.0895
19860TIP3   OH281070   2.275   2.159  15.214 -0.0143  0.0951  0.4646
19860TIP3    H181071   2.189   2.199  15.228 -0.9025 -0.3205 -3.2437
19860TIP3    H281072   2.266   2.071  15.249  0.2077  1.2481  3.6251
19861TIP3   OH281073   2.349   3.258  16.125 -0.4377  0.1290  0.4701
19861TIP3    H181074   2.261   3.296  16.115 -1.7685 -3.4839 -2.8002
19861TIP3    H281075   2.340   3.195  16.196 -0.2502  0.3333  0.6770
19862TIP3   OH281076   2.057   3.240  15.097 -0.5125 -0.4091  0.5862
19862TIP3    H181077   1.970   3.280  15.102 -1.2130 -1.3329 -3.0930
19862TIP3    H281078   2.043   3.150  15.126 -0.8459 -0.6033 -0.1545
19863TIP3   OH281079   3.826   2.279  13.019  0.1817  0.0034 -0.1566
19863TIP3    H181080   3.903   2.265  12.964 -0.0323 -0.3564 -0.3566
19863TIP3    H281081   3.755   2.233  12.975  0.1837 -0.9525  0.8306
19864TIP3   OH281082   6.744   1.650  14.930 -0.0838 -0.0969 -0.0537
19864TIP3    H181083   6.822   1.632  14.876  0.2986  2.4334 -0.3999
19864TIP3    H281084   6.671   1.619  14.876  0.5610 -0.9656 -0.4448
19865TIP3   OH281085   3.260   0.079   4.237  0.5923  0.3907 -0.1876
19865TIP3    H181086   3.296   0.103   4.322  2.4152  0.6917 -1.0224
19865TIP3    H281087   3.167   0.067   4.253  0.7188  1.6105  1.5974
19866TIP3   OH281088   3.166   6.736  10.646 -0.2876 -0.1256  0.0659
19866TIP3    H181089   3.092   6.791  10.669  0.0429  1.2044 -1.9594
19866TIP3    H281090   3.136   6.685  10.571  0.7527  0.2253 -0.5977
19867TIP3   OH281091   2.020   1.479   5.218  0.1730 -0.3018 -0.6372
19867TIP3    H181092   1.997   1.554   5.163 -0.5625  1.0107  1.4090
19867TIP3    H281093   1.952   1.414   5.199 -0.6816  0.5428 -0.4876
19868TIP3   OH281094   0.382   4.078  12.717 -0.7898 -0.1762  0.4515
19868TIP3    H181095   0.308   4.052  12.662  1.0231 -2.3530 -1.1260
19868TIP3    H281096   0.400   4.000  12.770  0.6604  0.1192  0.4134
19869TIP3   OH281097   6.270   4.632   4.676  0.1652  0.0713 -0.4858
19869TIP3    H181098   6.348   4.592   4.638  1.6002  1.2425  1.1553
19869TIP3    H281099   6.200   4.569   4.658  1.5529 -1.1823 -1.6544
19870TIP3   OH281100   5.360   5.291   1.996  0.0836  0.0552 -0.0266
19870TIP3    H181101   5.346   5.219   2.058  0.6434  1.4511  1.7698
19870TIP3    H281102   5.273   5.308   1.960 -0.6700  0.6291  1.9953
19871TIP3   OH281103   2.751   1.875   2.387  0.1233 -0.8185  0.6403
19871TIP3    H181104   2.686   1.833   2.444  1.3716 -2.7104  0.7219
19871TIP3    H281105   2.825   1.894   2.444  0.8769 -1.5693 -0.0601
19872TIP3   OH281106   0.615   6.294  11.039 -0.4155  0.3644 -0.4893
19872TIP3    H181107   0.632   6.383  11.007 -0.3645  0.4553 -0.2131
19872TIP3    H281108   0.573   6.307  11.124 -1.4377  0.1413 -0.9542
19873TIP3   OH281109   3.959   5.746  15.873 -0.1080  0.1909 -0.1288
19873TIP3    H181110   3.983   5.706  15.789  0.5105  1.2579 -0.4642
19873TIP3    H281111   3.979   5.678  15.938 -0.9161 -0.7703 -0.8632
19874TIP3   OH281112   4.110   0.647   1.954 -0.0082  0.2120 -0.3359
19874TIP3    H181113   4.121   0.739   1.980 -2.3543  0.2799  0.5655
19874TIP3    H281114   4.051   0.650   1.879 -0.9824 -0.6012  0.3745
19875TIP3   OH281115   6.568   2.105  13.594 -0.5372  0.3383  0.0811
19875TIP3    H181116   6.577   2.105  13.689 -0.4163  0.1180  0.0701
19875TIP3    H281117   6.639   2.048  13.563  0.0502  1.2077 -0.2002
19876TIP3   OH281118   0.889   0.165   5.234 -0.5974 -0.5947 -0.1584
19876TIP3    H181119   0.926   0.174   5.321 -1.0364  0.3118 -0.0590
19876TIP3    H281120   0.961   0.131   5.181 -0.2407 -0.8599  0.4890
19877TIP3   OH281121   3.689   2.339  17.137  0.6305 -0.1159  0.5473
19877TIP3    H181122   3.648   2.406  17.192 -0.2829  0.9587 -1.3750
19877TIP3    H281123   3.638   2.340  17.056  2.3521 -1.1686 -0.5878
19878TIP3   OH281124   3.953   6.248   4.328 -0.3273 -0.2511  0.1795
19878TIP3    H181125   3.962   6.262   4.234 -0.0384  0.1004  0.2604
19878TIP3    H281126   3.868   6.286   4.350 -0.4253 -0.3937  0.0481
19879TIP3   OH281127   1.096   0.915  16.972  0.1225  0.3376  0.2892
19879TIP3    H181128   1.159   0.986  16.959  0.2682  0.0839 -0.3954
19879TIP3    H281129   1.135   0.861  17.041  0.2752  0.6183  0.4231
19880TIP3   OH281130   2.234   3.246   2.831 -0.3147 -0.2982  0.2985
19880TIP3    H181131   2.242   3.180   2.901  0.1749 -1.2463 -0.6423
19880TIP3    H281132   2.170   3.309   2.865 -1.5476 -1.7942  0.8147
19881TIP3   OH281133   1.983   5.973  13.375  0.3093  0.0564  0.2080
19881TIP3    H181134   2.020   6.036  13.437  1.7312 -0.1525 -0.4091
19881TIP3    H281135   2.013   6.004  13.289  0.8821 -1.3584 -0.1088
19882TIP3   OH281136   2.737   6.338   4.950  0.4255  0.0149 -0.4313
19882TIP3    H181137   2.654   6.384   4.934  0.7883  1.4216  1.5357
19882TIP3    H281138   2.784   6.342   4.867 -1.4649 -0.7959 -1.5709
19883TIP3   OH281139   3.606   2.062  16.346 -0.5679 -0.1106  0.8081
19883TIP3    H181140   3.555   2.021  16.415 -0.3082 -0.6222  0.6994
19883TIP3    H281141   3.650   1.990  16.303  0.0815  0.3075  0.7639
19884TIP3   OH281142   1.886   3.689   2.045 -0.2275  0.7021 -0.2672
19884TIP3    H181143   1.925   3.603   2.059  3.1694  2.6982  3.7076
19884TIP3    H281144   1.934   3.725   1.970 -1.7392 -0.8025 -2.0175
19885TIP3   OH281145   2.669   5.194  15.987  0.1632  0.4684  0.1966
19885TIP3    H181146   2.736   5.238  16.039  1.2562  0.6419 -1.3220
19885TIP3    H281147   2.591   5.247  15.999  1.3502  2.6217 -1.2592
19886TIP3   OH281148   6.800   1.020   0.361  0.6580 -0.9607 -0.3200
19886TIP3    H181149   6.869   1.042   0.423  0.6578 -2.5567  0.2741
19886TIP3    H281150   6.845   0.976   0.289  0.5296 -0.0227 -0.9810
19887TIP3   OH281151   1.595   3.115  11.174  0.3617 -0.8904 -0.0042
19887TIP3    H181152   1.639   3.161  11.246 -1.1915  0.7921 -0.1029
19887TIP3    H281153   1.617   3.166  11.096 -2.1319  0.2819  0.0107
19888TIP3   OH281154   4.898   6.087  16.044  0.0275  0.3300  0.2688
19888TIP3    H181155   4.885   6.000  16.007  0.0911  0.5534 -0.2832
19888TIP3    H281156   4.968   6.076  16.108 -0.5541 -0.1956  0.8240
19889TIP3   OH281157   0.169   3.866  14.027 -0.7164  0.2007  0.2191
19889TIP3    H181158   0.241   3.886  13.968 -0.4933  1.5908  0.9422
19889TIP3    H281159   0.211   3.857  14.113 -1.4499  1.3518  0.6979
19890TIP3   OH281160   1.489   0.076  12.116 -0.3423 -0.0399  0.1576
19890TIP3    H181161   1.512   0.074  12.209 -1.5894  1.3890  0.5099
19890TIP3    H281162   1.410   0.130  12.111 -1.6964 -2.0740 -1.4406
19891TIP3   OH281163   5.027   6.749  16.412  0.5105 -0.0880  0.2246
19891TIP3    H181164   5.103   6.778  16.361  1.2466  2.3150  2.6150
19891TIP3    H281165   4.959   6.736  16.346  1.5132  2.7098 -1.4475
19892TIP3   OH281166   3.857   1.100  15.006 -0.3062 -0.1764  0.2672
19892TIP3    H181167   3.883   1.187  14.976  0.2241 -0.9338 -1.5628
19892TIP3    H281168   3.766   1.092  14.977  0.6780 -1.5090 -2.6549
19893TIP3   OH281169   5.099   0.563   3.460  0.4424 -0.5907  0.2091
19893TIP3    H181170   5.046   0.643   3.460  1.3176  0.0257  2.1401
19893TIP3    H281171   5.189   0.595   3.466  0.9746 -1.6653 -1.7772
19894TIP3   OH281172   2.268   3.027   2.671  0.8002 -0.1814  0.3146
19894TIP3    H181173   2.238   3.107   2.713 -1.0441 -0.3160 -0.7230
19894TIP3    H281174   2.284   3.052   2.580 -0.9884 -1.2584 -0.3147
19895TIP3   OH281175   3.485   5.247  11.110 -0.1216 -0.7702 -0.1098
19895TIP3    H181176   3.532   5.238  11.193  0.3095 -0.5476 -0.3274
19895TIP3    H281177   3.512   5.333  11.077 -2.0069  0.1177  0.5909
19896TIP3   OH281178   2.836   1.778   4.519  0.6268  0.4566 -0.4457
19896TIP3    H181179   2.765   1.719   4.546  1.1028 -0.1328 -0.4531
19896TIP3    H281180   2.902   1.769   4.588 -0.5628  3.2872  1.1070
19897TIP3   OH281181   4.320   5.735   2.320 -0.6969 -0.1413  0.3246
19897TIP3    H181182   4.313   5.827   2.346  1.4980  0.3422 -0.7072
19897TIP3    H281183   4.408   5.709   2.344 -0.5692 -1.3500 -1.3401
19898TIP3   OH281184   2.249   2.472   6.039 -0.4475 -0.1912 -0.3328
19898TIP3    H181185   2.330   2.462   6.089 -0.2811  0.1943 -0.5256
19898TIP3    H281186   2.247   2.397   5.981  0.1000  0.1464 -0.7924
19899TIP3   OH281187   2.923   3.291   1.503 -0.1765 -0.4811 -0.0873
19899TIP3    H181188   2.891   3.202   1.516  2.0008 -0.7510  4.1836
19899TIP3    H281189   2.866   3.346   1.557  0.9980  0.1525  0.5462
19900TIP3   OH281190   0.191   5.657   3.294 -0.4680  0.0084 -0.2431
19900TIP3    H181191   0.246   5.581   3.310  0.2473  0.5448 -0.1473
19900TIP3    H281192   0.248   5.732   3.309 -1.1748  0.5665 -0.3162
19901TIP3   OH281193   0.877   1.269   3.275  0.0782  0.4452  0.2714
19901TIP3    H181194   0.887   1.301   3.365  1.4639  0.3837  0.1454
19901TIP3    H281195   0.824   1.336   3.232  0.7014  1.2374  0.7305
19902TIP3   OH281196   2.396   2.422   4.093 -0.1668  0.3414  0.4944
19902TIP3    H181197   2.439   2.347   4.134  1.3292  0.9489  0.0603
19902TIP3    H281198   2.305   2.394   4.081 -0.3237 -0.3171  3.0027
19903TIP3   OH281199   3.875   5.263  10.312  0.6657  0.0502 -0.1757
19903TIP3    H181200   3.935   5.217  10.371  1.9510 -0.2454 -1.6710
19903TIP3    H281201   3.793   5.215  10.319  0.1674  1.2591  2.9067
19904TIP3   OH281202   1.533   4.283   2.925  0.1116  0.5412 -0.2758
19904TIP3    H181203   1.567   4.208   2.974 -0.3930  0.5618  0.1118
19904TIP3    H281204   1.457   4.249   2.878 -0.4126  0.9187  0.2832
19905TIP3   OH281205   1.125   3.718   0.286 -0.0294  0.4922  0.1766
19905TIP3    H181206   1.094   3.638   0.243 -2.2127  1.8310 -0.8087
19905TIP3    H281207   1.187   3.756   0.224  1.2935 -0.5979  0.8051
19906TIP3   OH281208   3.516   0.497  12.969 -0.1044  0.0880 -0.1218
19906TIP3    H181209   3.532   0.404  12.953  0.1401  0.4560 -2.1478
19906TIP3    H281210   3.455   0.499  13.043 -2.3571 -1.7699 -1.8686
19907TIP3   OH281211   0.887   2.242   0.594  0.1923  0.4240 -0.1915
19907TIP3    H181212   0.917   2.333   0.602  0.0973  0.5836 -1.4510
19907TIP3    H281213   0.932   2.209   0.516 -0.8380 -0.1691 -0.5498
19908TIP3   OH281214   0.678   2.073  13.503 -0.3312 -0.3359  0.1771
19908TIP3    H181215   0.723   1.989  13.508  0.8244  0.2102 -1.0111
19908TIP3    H281216   0.662   2.087  13.410  0.7970  1.4313  0.2177
19909TIP3   OH281217   6.534   0.275   2.448 -0.2179  0.1594 -0.7833
19909TIP3    H181218   6.515   0.181   2.456 -0.6871  0.3836  1.0230
19909TIP3    H281219   6.514   0.311   2.534  0.3580  1.8651 -1.3331
19910TIP3   OH281220   3.038   3.700  14.480 -0.4807  0.1671 -0.0907
19910TIP3    H181221   2.982   3.778  14.488 -0.2557  0.1745  1.6208
19910TIP3    H281222   2.989   3.631  14.524  0.8444  0.1647  1.3872
19911TIP3   OH281223   5.914   6.718  12.097 -0.3230  0.0953 -0.0964
19911TIP3    H181224   5.956   6.792  12.142  2.0656 -0.5981 -1.1214
19911TIP3    H281225   5.941   6.728  12.005 -0.6294 -1.6258 -0.3776
19912TIP3   OH281226   0.712   5.117  14.150 -0.4855  0.0262 -0.3380
19912TIP3    H181227   0.709   5.116  14.054  0.0981  1.3509 -0.3864
19912TIP3    H281228   0.636   5.067  14.177  0.2684 -1.7952 -1.4971
19913TIP3   OH281229   6.058   1.885   4.646  0.5801  0.1968 -0.2692
19913TIP3    H181230   6.102   1.835   4.577  0.1255  4.4643 -3.8624
19913TIP3    H281231   5.974   1.910   4.608 -0.2587  1.5285  2.3618
19914TIP3   OH281232   4.498   0.157   0.593 -0.4446 -0.1298  0.0890
19914TIP3    H181233   4.498   0.153   0.689 -0.3687 -4.1419  0.0088
19914TIP3    H281234   4.545   0.238   0.573  1.9046 -0.5218  3.4343
19915TIP3   OH281235   1.722   3.252   6.469  0.4682 -0.4905 -0.3221
19915TIP3    H181236   1.733   3.235   6.375 -1.6836  0.8971 -0.8622
19915TIP3    H281237   1.734   3.166   6.510 -0.0781 -1.4038 -2.0204
19916TIP3   OH281238   5.013   0.996  15.866 -0.2980 -0.2984 -0.3998
19916TIP3    H181239   5.076   0.936  15.907 -0.7866  0.2955  1.2618
19916TIP3    H281240   5.053   1.018  15.782  1.5823 -0.1865  0.4842
19917TIP3   OH281241   1.576   5.640   4.983  0.1158 -0.0419 -0.3450
19917TIP3    H181242   1.559   5.551   5.015 -0.4077  0.8380  1.9084
19917TIP3    H281243   1.671   5.648   4.984  0.1436 -0.4077 -0.0472
19918TIP3   OH281244   2.025   3.514   1.860  0.0065 -0.1359 -0.1314
19918TIP3    H181245   2.033   3.450   1.931  1.8766 -0.2768 -0.4264
19918TIP3    H281246   2.113   3.517   1.821 -0.6292  0.9851 -1.5302
19919TIP3   OH281247   4.324   0.288  15.763 -0.0339  0.2493  0.3391
19919TIP3    H181248   4.346   0.379  15.783 -0.8261  0.3082  0.9816
19919TIP3    H281249   4.270   0.293  15.684 -0.2694  0.3669  0.5039
19920TIP3   OH281250   4.353   0.302  12.182 -0.1636 -0.1931  0.4799
19920TIP3    H181251   4.409   0.285  12.105 -1.6513  1.6626 -1.0656
19920TIP3    H281252   4.411   0.347  12.243  0.3111  0.9766 -0.7854
19921TIP3   OH281253   0.269   4.409   1.916 -0.0662 -0.1580 -0.3208
19921TIP3    H181254   0.321   4.444   1.844  0.9280 -0.2625  0.3428
19921TIP3    H281255   0.264   4.481   1.979  0.6115 -0.6687  0.3191
19922TIP3   OH281256   1.363   0.964   6.496  0.8091  0.2208  0.3902
19922TIP3    H181257   1.336   1.053   6.472 -1.7181 -0.7591 -0.5616
19922TIP3    H281258   1.331   0.952   6.585 -1.1083 -0.5938 -0.3842
19923TIP3   OH281259   6.479   4.563  14.430 -0.3572 -0.4005 -0.4633
19923TIP3    H181260   6.484   4.564  14.335  0.5104  0.2477 -0.4157
19923TIP3    H281261   6.542   4.495  14.456  0.2679  0.2311 -0.3085
19924TIP3   OH281262   4.043   3.104  12.627 -0.0416 -0.0306  0.0370
19924TIP3    H181263   3.956   3.092  12.665  0.7509 -1.7818  1.3567
19924TIP3    H281264   4.085   3.168  12.684 -0.1330  0.1217 -0.0652
19925TIP3   OH281265   2.498   4.344  13.418 -0.5298 -0.1274 -0.6605
19925TIP3    H181266   2.420   4.392  13.390 -0.1571  1.2661  0.6260
19925TIP3    H281267   2.553   4.341  13.340 -1.0894  0.4583 -1.0855
19926TIP3   OH281268   3.824   0.768   4.287  0.6707  0.1929 -0.4631
19926TIP3    H181269   3.806   0.859   4.265  1.3030  0.4253 -0.0313
19926TIP3    H281270   3.773   0.717   4.224  0.2487  0.8431 -0.6487
19927TIP3   OH281271   2.039   0.138  16.731 -0.6552 -0.7234  0.7853
19927TIP3    H181272   2.046   0.043  16.735 -1.2055 -0.8528 -0.8600
19927TIP3    H281273   1.976   0.160  16.801 -2.7094 -1.8510 -0.6485
19928TIP3   OH281274   6.301   5.071   2.157 -0.4846 -0.2654 -0.1054
19928TIP3    H181275   6.246   5.144   2.185 -0.1410  0.7332 -1.9719
19928TIP3    H281276   6.351   5.105   2.083  0.7871 -1.9393 -0.0518
19929TIP3   OH281277   4.543   3.827  13.627  0.0410  0.3721  0.2377
19929TIP3    H181278   4.500   3.745  13.603  0.8019 -0.4529  1.5908
19929TIP3    H281279   4.522   3.838  13.720  2.4536  0.1048  0.8454
19930TIP3   OH281280   2.466   1.895   4.933  0.0984  0.4957  0.4413
19930TIP3    H181281   2.452   1.978   4.887  0.3212  0.3540  0.1104
19930TIP3    H281282   2.389   1.885   4.989  0.9113  1.7853  1.8226
19931TIP3   OH281283   5.462   4.720  16.033  0.4700 -0.1145 -0.5467
19931TIP3    H181284   5.431   4.682  15.950  1.5938 -1.5179 -0.3423
19931TIP3    H281285   5.386   4.718  16.090 -0.3022  0.8028 -1.5124
19932TIP3   OH281286   6.054   2.020   5.099 -0.5730  0.4645 -0.0879
19932TIP3    H181287   6.030   1.997   5.188  1.1110  0.7724  0.4648
19932TIP3    H281288   6.025   1.946   5.046  3.6338 -2.4885  1.4888
19933TIP3   OH281289   4.254   2.539  14.582 -0.3232  0.0531 -0.5894
19933TIP3    H181290   4.195   2.509  14.513 -0.6519 -1.7966  0.4782
19933TIP3    H281291   4.197   2.580  14.647 -0.3645 -1.0978  0.1050
19934TIP3   OH281292   4.953   4.655   0.458 -0.1948  0.3462 -1.0049
19934TIP3    H181293   5.010   4.732   0.458 -0.1275  0.3145 -2.2892
19934TIP3    H281294   5.007   4.585   0.493  0.6251  0.2705 -2.3984
19935TIP3   OH281295   5.366   5.193   2.800  0.5916 -0.0041  0.2063
19935TIP3    H181296   5.378   5.245   2.880 -0.1329  0.1933  0.1939
19935TIP3    H281297   5.280   5.153   2.811 -0.4597  1.7317 -1.4106
19936TIP3   OH281298   1.339   1.917  16.451  0.1999  0.0630  0.0659
19936TIP3    H181299   1.356   1.849  16.386  1.0609  0.4376 -0.1025
19936TIP3    H281300   1.424   1.958  16.466 -0.5160  1.8696 -0.6938
19937TIP3   OH281301   2.529   5.008  10.985 -0.1472  1.0903 -0.0516
19937TIP3    H181302   2.599   5.071  10.970 -0.7420  1.2664 -2.2287
19937TIP3    H281303   2.461   5.032  10.923 -0.7546 -1.1599 -0.3084
19938TIP3   OH281304   0.791   4.165  12.919  0.0188  0.0277 -0.3745
19938TIP3    H181305   0.721   4.227  12.899 -1.4431 -0.8595  1.7613
19938TIP3    H281306   0.787   4.100  12.850 -0.6175  0.5254 -0.8094
19939TIP3   OH281307   0.678   1.359   5.398 -0.0222  0.1512 -0.0031
19939TIP3    H181308   0.766   1.338   5.367 -1.6245 -1.9116 -3.4833
19939TIP3    H281309   0.677   1.329   5.489  3.1717  1.2051  0.4414
19940TIP3   OH281310   0.833   6.796  12.482  0.1389 -0.1791  0.1831
19940TIP3    H181311   0.772   6.837  12.544  3.3033  1.5252  2.2769
19940TIP3    H281312   0.816   6.840  12.399  0.5472  2.4390  1.4310
19941TIP3   OH281313   3.970   1.337   0.664  0.3016 -0.1162 -0.2593
19941TIP3    H181314   4.006   1.422   0.639 -1.8397  0.6464 -0.8524
19941TIP3    H281315   3.996   1.278   0.593  2.3788 -0.1459  0.4927
19942TIP3   OH281316   6.578   6.799   0.537 -0.8744  0.4482  0.3454
19942TIP3    H181317   6.532   6.739   0.479 -0.8788  1.0624 -0.2954
19942TIP3    H281318   6.574   6.884   0.492  0.5602  0.5913  0.4444
19943TIP3   OH281319   3.921   2.964  10.798  0.1406  0.7897  0.3638
19943TIP3    H181320   4.004   2.981  10.753  0.2586 -1.1331 -0.2175
19943TIP3    H281321   3.912   2.868  10.794 -0.8636  0.7608  2.6275
19944TIP3   OH281322   0.580   1.566   1.035 -0.2541  0.4295 -0.5971
19944TIP3    H181323   0.588   1.658   1.012 -0.4608  0.3052 -1.1797
19944TIP3    H281324   0.627   1.557   1.118  1.8763  0.5663 -1.7506
19945TIP3   OH281325   0.533   6.726  14.113  0.4125 -0.2169 -0.0806
19945TIP3    H181326   0.582   6.645  14.103 -1.0860 -0.8796 -2.3345
19945TIP3    H281327   0.542   6.770  14.028 -1.0877  0.6511  0.1941
19946TIP3   OH281328   5.836   0.748  13.910  0.1516 -0.4221  0.2969
19946TIP3    H181329   5.907   0.792  13.862  0.6670 -1.9836 -0.3878
19946TIP3    H281330   5.870   0.662  13.931 -1.7695 -1.4655 -0.6606
19947TIP3   OH281331   0.633   3.522  13.986 -0.1916  0.4810 -0.5092
19947TIP3    H181332   0.612   3.460  14.057 -2.5819  1.0708 -0.6462
19947TIP3    H281333   0.713   3.488  13.947 -0.8154 -1.8865  0.1795
19948TIP3   OH281334   5.433   2.891   3.265 -0.5066  0.0783  0.0208
19948TIP3    H181335   5.354   2.931   3.300 -0.1693  0.1673  0.6891
19948TIP3    H281336   5.477   2.962   3.217 -1.0625 -0.0919 -0.7445
19949TIP3   OH281337   5.382   0.348   0.034 -0.4203 -0.4302  0.1373
19949TIP3    H181338   5.407   0.368   0.124 -1.8925  0.0980  0.4459
19949TIP3    H281339   5.382   0.433  -0.010  1.3367 -0.8128 -0.6537
19950TIP3   OH281340   4.466   6.429  10.692  0.2273  0.2662 -0.4907
19950TIP3    H181341   4.551   6.461  10.724  0.6172  0.3146 -1.5755
19950TIP3    H281342   4.465   6.336  10.714 -0.7562  0.8757  2.3568
19951TIP3   OH281343   3.348   1.413  11.346  0.2710 -0.1174  0.2470
19951TIP3    H181344   3.386   1.456  11.423 -3.1143  3.9804 -0.1717
19951TIP3    H281345   3.406   1.439  11.274  1.2412 -0.6787  0.8180
19952TIP3   OH281346   4.530   5.432   1.693  0.1105  0.0023  0.5042
19952TIP3    H181347   4.540   5.378   1.615  0.6708  1.4114 -0.4357
19952TIP3    H281348   4.485   5.511   1.662  0.1718  0.5023  1.6460
19953TIP3   OH281349   3.826   1.320   4.506 -0.3427  0.1816  0.1088
19953TIP3    H181350   3.766   1.260   4.551 -1.2244  1.6757  0.9452
19953TIP3    H281351   3.910   1.273   4.506 -0.1169  0.4435  4.0241
19954TIP3   OH281352   4.352   0.683  13.317  0.6477 -0.4616  0.0278
19954TIP3    H181353   4.306   0.640  13.245  0.1805  0.2576 -0.1107
19954TIP3    H281354   4.444   0.677  13.294  0.4411  0.7150 -1.1632
19955TIP3   OH281355   3.197   0.018  16.952  0.1254 -0.0094 -0.3733
19955TIP3    H181356   3.177  -0.074  16.932 -0.2815 -0.4185  1.8678
19955TIP3    H281357   3.272   0.038  16.895  0.4839 -1.8438 -0.6009
19956TIP3   OH281358   4.708   5.124   4.492 -0.7931 -0.3168 -0.2293
19956TIP3    H181359   4.774   5.127   4.562 -0.6476 -0.2344 -0.3677
19956TIP3    H281360   4.759   5.139   4.412 -1.0691  0.3605 -0.2782
19957TIP3   OH281361   4.343   3.281  13.099 -0.3179  0.3700 -0.1749
19957TIP3    H181362   4.257   3.238  13.095  0.1064 -0.5551  0.3554
19957TIP3    H281363   4.385   3.259  13.016 -0.3388  0.2697 -0.1591
19958TIP3   OH281364   2.774   5.854   0.444 -0.2892  0.0473  0.1723
19958TIP3    H181365   2.742   5.836   0.532  0.2129  0.3948  0.4275
19958TIP3    H281366   2.728   5.934   0.418 -0.5270 -0.1220  0.0732
19959TIP3   OH281367   4.182   0.785   0.951  0.0109 -0.1616 -1.5114
19959TIP3    H181368   4.233   0.707   0.973  2.0190  2.3467  3.3392
19959TIP3    H281369   4.098   0.772   0.994  0.9809  1.0342  0.8452
19960TIP3   OH281370   5.499   6.658  15.154 -0.2790 -0.1087 -0.2979
19960TIP3    H181371   5.556   6.732  15.172 -1.4288  0.3103  1.7140
19960TIP3    H281372   5.415   6.698  15.128 -0.6218 -0.7083 -0.1246
19961TIP3   OH281373   2.873   3.625  11.263 -0.3523 -0.0735  0.1082
19961TIP3    H181374   2.965   3.647  11.272 -0.2626  0.3362 -1.6681
19961TIP3    H281375   2.836   3.637  11.350  1.1787  0.1725  0.7257
19962TIP3   OH281376   4.558   2.814   2.608 -0.3038 -0.5253 -0.3469
19962TIP3    H181377   4.547   2.722   2.589  0.5192 -0.4425 -1.2379
19962TIP3    H281378   4.471   2.852   2.598 -0.2695 -0.8549 -1.8723
19963TIP3   OH281379   4.517   1.647   1.374 -0.0330 -0.1374 -0.5203
19963TIP3    H181380   4.527   1.574   1.313  1.8557 -0.0133 -0.4002
19963TIP3    H281381   4.535   1.609   1.460 -3.5547 -0.5021  0.0930
19964TIP3   OH281382   4.378   4.241   5.676  0.0628 -0.5624  0.3353
19964TIP3    H181383   4.380   4.238   5.771 -1.1672  1.0018  0.4350
19964TIP3    H281384   4.285   4.237   5.654  0.3622 -1.4301 -0.8278
19965TIP3   OH281385   2.606   6.277  15.829  0.0114 -0.0671  0.2991
19965TIP3    H181386   2.621   6.371  15.837 -1.3671  0.2965 -1.0220
19965TIP3    H281387   2.662   6.249  15.757  0.6177 -0.3065  0.8632
19966TIP3   OH281388   2.749   4.773   1.615 -0.2781  0.3050  0.2937
19966TIP3    H181389   2.766   4.679   1.624  2.0488  0.6578 -0.2309
19966TIP3    H281390   2.663   4.785   1.655 -1.2449 -2.2766 -0.9085
19967TIP3   OH281391   1.583   5.468  11.494  0.2410  0.1575  0.3743
19967TIP3    H181392   1.524   5.540  11.519  1.5513  1.3811 -0.0308
19967TIP3    H281393   1.570   5.458  11.400  0.4081  0.1836  0.3485
19968TIP3   OH281394   4.657   5.293  16.456 -0.1414  0.3591 -0.0808
19968TIP3    H181395   4.674   5.271  16.547  0.0705  1.2792  0.1036
19968TIP3    H281396   4.743   5.313  16.419 -0.2912  0.5536 -0.3296
19969TIP3   OH281397   5.218   3.456   4.814 -0.4252  0.1213 -0.2001
19969TIP3    H181398   5.181   3.518   4.751 -2.4115  0.1701  0.9897
19969TIP3    H281399   5.243   3.509   4.889  3.1515  0.2542 -1.3882
19970TIP3   OH281400   6.803   3.963   1.197  0.0134 -0.5557  0.0726
19970TIP3    H181401   6.784   3.917   1.278 -0.8986  0.4886  0.4655
19970TIP3    H281402   6.730   3.941   1.138  1.0464 -1.9090 -0.7424
19971TIP3   OH281403   0.767   2.350  10.354  0.0088  0.2739  0.6326
19971TIP3    H181404   0.751   2.433  10.309 -0.9421 -0.0144  0.4374
19971TIP3    H281405   0.794   2.375  10.442 -0.5497  0.7840  0.6588
19972TIP3   OH281406   4.385   6.472   0.475  0.1025 -0.0189  0.1632
19972TIP3    H181407   4.425   6.555   0.503 -1.4276  0.6412  0.4670
19972TIP3    H281408   4.437   6.405   0.519  1.4068  0.7744 -0.1332
19973TIP3   OH281409   5.832   2.027  15.999  0.5153  0.0210 -0.4595
19973TIP3    H181410   5.912   2.023  15.947  0.9695  0.9410  0.1542
19973TIP3    H281411   5.859   2.003  16.088 -0.0805 -0.6563 -0.4582
19974TIP3   OH281412   2.823   3.700  15.847  0.4043  0.3717  0.4705
19974TIP3    H181413   2.904   3.715  15.798  0.3572 -0.3223  0.1757
19974TIP3    H281414   2.753   3.724  15.786  0.3589 -0.0608  0.3504
19975TIP3   OH281415   6.037   4.059  16.719 -0.0149  0.1847 -0.1802
19975TIP3    H181416   5.943   4.040  16.715 -0.2540  0.5607  2.8427
19975TIP3    H281417   6.074   4.009  16.645 -2.4236 -0.8658 -0.7332
19976TIP3   OH281418   4.631   2.168   4.066 -0.6246 -0.3279  0.0610
19976TIP3    H181419   4.676   2.252   4.079  1.7917 -1.6132  0.4214
19976TIP3    H281420   4.606   2.140   4.154  2.0888 -1.8052  0.4096
19977TIP3   OH281421   3.189   6.751   3.547 -0.4539 -0.2016  0.2384
19977TIP3    H181422   3.214   6.833   3.505 -1.6154 -0.4825 -1.0385
19977TIP3    H281423   3.111   6.722   3.499 -1.3886 -0.9111  2.1042
19978TIP3   OH281424   3.364   0.843   2.337  0.2309 -0.4564  0.3162
19978TIP3    H181425   3.353   0.931   2.372  0.5769 -0.0551 -0.5545
19978TIP3    H281426   3.422   0.799   2.399 -0.2557 -0.1869  0.9549
19979TIP3   OH281427   2.612   3.526   2.061  0.1350  0.4361 -0.2453
19979TIP3    H181428   2.608   3.565   1.974  1.3937  1.1674  0.0168
19979TIP3    H281429   2.703   3.498   2.071 -0.0531  0.1493  0.7499
19980TIP3   OH281430   2.311   0.414   1.303 -0.2935  0.7485 -0.3219
19980TIP3    H181431   2.405   0.418   1.322 -0.6760 -0.1471  1.7691
19980TIP3    H281432   2.306   0.365   1.221  0.9766 -0.3930  0.2606
19981TIP3   OH281433   0.952   6.621   1.012 -0.5537  0.6822 -0.0833
19981TIP3    H181434   0.953   6.615   1.107  2.1323  1.0087 -0.0632
19981TIP3    H281435   0.972   6.533   0.981  2.1218  1.3357 -0.2776
19982TIP3   OH281436   4.040   0.658  12.148  0.0507 -0.0025  0.2364
19982TIP3    H181437   4.022   0.724  12.215  0.9174 -0.4279  0.9194
19982TIP3    H281438   4.009   0.576  12.187 -0.3554 -0.1022 -0.3004
19983TIP3   OH281439   5.302   4.268  17.191  0.6433 -0.2245 -0.2842
19983TIP3    H181440   5.353   4.210  17.135  1.3847  0.5569 -0.4316
19983TIP3    H281441   5.363   4.337  17.217 -0.4947  1.0991 -1.0145
19984TIP3   OH281442   2.956   5.015   0.455 -0.1325 -0.5228 -0.3700
19984TIP3    H181443   2.956   4.985   0.546 -0.9120  0.1928 -0.1241
19984TIP3    H281444   3.046   5.044   0.439 -0.2784  0.4421  0.5462
19985TIP3   OH281445   0.135   0.192  12.780 -0.9160  0.0223 -0.0899
19985TIP3    H181446   0.091   0.270  12.812 -2.1701 -0.4725 -0.5904
19985TIP3    H281447   0.131   0.130  12.852 -0.5189  0.1716  0.0642
19986TIP3   OH281448   2.903   1.317   2.482  0.1081  0.4054 -0.8138
19986TIP3    H181449   2.934   1.378   2.548  1.7487  0.1267 -1.3074
19986TIP3    H281450   2.889   1.235   2.529  1.7525  0.0671 -0.8858
19987TIP3   OH281451   1.567   3.566   2.206  0.4374 -0.6759 -0.3543
19987TIP3    H181452   1.625   3.628   2.250  0.5515 -1.4177  0.5650
19987TIP3    H281453   1.626   3.507   2.159  0.4436 -1.3493  0.4728
19988TIP3   OH281454   2.191   4.168   6.572  0.4277 -0.4562  0.0550
19988TIP3    H181455   2.214   4.106   6.503 -1.5321 -0.4246 -0.6473
19988TIP3    H281456   2.110   4.210   6.541 -0.3076 -0.2156  2.2291
19989TIP3   OH281457   5.310   3.681  14.721  0.1801  0.5018 -0.6689
19989TIP3    H181458   5.220   3.654  14.704  0.4075 -0.6602 -0.0385
19989TIP3    H281459   5.309   3.711  14.813  1.2642 -3.1547  0.6011
19990TIP3   OH281460   2.140   5.934   1.340 -0.5439 -0.1344 -0.3341
19990TIP3    H181461   2.233   5.912   1.350 -0.4249 -0.1801 -1.5048
19990TIP3    H281462   2.126   6.004   1.404 -0.3248 -1.8220  1.6308
19991TIP3   OH281463   1.193   4.780  11.426  0.2900  0.1264  0.3207
19991TIP3    H181464   1.169   4.818  11.342 -0.7554 -1.7211 -0.2514
19991TIP3    H281465   1.130   4.817  11.488 -1.3706 -1.3923 -0.4139
19992TIP3   OH281466   5.877   5.895   6.102  0.0348 -0.3408 -0.0550
19992TIP3    H181467   5.817   5.825   6.076 -0.1773 -0.4045  0.6155
19992TIP3    H281468   5.924   5.860   6.178 -0.6114  0.5300  0.7554
19993TIP3   OH281469   6.656   6.659   5.934  0.1968 -0.1653  0.6912
19993TIP3    H181470   6.713   6.613   5.872  0.8350  1.4545  0.0701
19993TIP3    H281471   6.578   6.603   5.940  0.2070 -0.4470 -1.3957
19994TIP3   OH281472   3.490   6.652  12.949  0.4274  0.0383 -0.3203
19994TIP3    H181473   3.550   6.579  12.963  0.7201  0.0406 -1.4646
19994TIP3    H281474   3.408   6.624  12.989  0.1187 -1.5200 -1.9740
19995TIP3   OH281475   2.439   0.168   4.124 -0.1878  0.1206  0.7998
19995TIP3    H181476   2.460   0.254   4.089 -0.4871 -0.4146 -0.7487
19995TIP3    H281477   2.516   0.142   4.174  0.7026  0.4505 -0.3728
19996TIP3   OH281478   4.271   3.616  12.681 -0.1911 -0.0735  0.0547
19996TIP3    H181479   4.249   3.670  12.758 -1.0432  1.4714 -1.2304
19996TIP3    H281480   4.349   3.657  12.645  0.3043 -0.8984  0.1939
19997TIP3   OH281481   1.356   0.435   6.171 -0.3165  0.2185  0.4102
19997TIP3    H181482   1.345   0.372   6.242  0.6522 -0.8522 -0.3724
19997TIP3    H281483   1.295   0.406   6.104 -2.1368  1.9456  1.2518
19998TIP3   OH281484   2.413   5.668  16.680 -0.7790 -0.9103 -0.0199
19998TIP3    H181485   2.486   5.718  16.645 -2.1338  2.5929  1.8647
19998TIP3    H281486   2.343   5.679  16.614 -1.4905  0.8694  0.9883
19999TIP3   OH281487   2.384   6.378   5.128 -0.2337 -0.3708 -0.2614
19999TIP3    H181488   2.405   6.291   5.162  1.9211  0.7286  1.3851
19999TIP3    H281489   2.311   6.408   5.183  0.9780  0.0183  1.1788
20000TIP3   OH281490   2.478   2.305   1.691  0.5036  0.0036  0.2007
20000TIP3    H181491   2.568   2.271   1.684  0.0376 -0.9675 -1.3916
20000TIP3    H281492   2.428   2.232   1.727  0.3402  0.5487  1.0977
20001TIP3   OH281493   5.590   5.050   3.493 -0.0050  0.2658 -0.2490
20001TIP3    H181494   5.503   5.085   3.475 -0.9056 -0.8732  1.6946
20001TIP3    H281495   5.574   4.963   3.529  1.9619 -0.0855 -0.1409
20002TIP3   OH281496   6.266   3.763  15.986 -0.1783  0.0250 -0.5850
20002TIP3    H181497   6.203   3.831  16.007  0.0761  0.3420 -0.8403
20002TIP3    H281498   6.215   3.695  15.943 -0.8554 -0.9716  1.7102
20003TIP3   OH281499   5.701   1.890   5.130 -0.3936 -0.3421  0.1980
20003TIP3    H181500   5.694   1.949   5.056 -1.5208  0.3919  0.8852
20003TIP3    H281501   5.611   1.874   5.158 -0.0336 -1.3343  0.8345
20004TIP3   OH281502   4.651   4.804   3.182 -0.2225  0.0703 -0.3684
20004TIP3    H181503   4.718   4.764   3.127 -0.7652  0.0010 -0.9899
20004TIP3    H281504   4.655   4.897   3.160  0.8914  0.3393  0.9170
20005TIP3   OH281505   4.848   4.502  15.773  0.0009 -0.2923 -0.3782
20005TIP3    H181506   4.798   4.530  15.696  0.3859 -0.2544 -0.6139
20005TIP3    H281507   4.820   4.561  15.843 -0.8382 -0.7453 -0.3244
20006TIP3   OH281508   6.303   5.862  11.573 -0.0204 -0.0627  0.2530
20006TIP3    H181509   6.223   5.901  11.538  0.0201 -0.0469  0.1763
20006TIP3    H281510   6.276   5.819  11.654 -0.2197 -0.5697 -0.0837
20007TIP3   OH281511   4.441   3.177  16.315  0.0841  0.2524 -0.2107
20007TIP3    H181512   4.427   3.253  16.370  1.1538  1.0143 -0.9622
20007TIP3    H281513   4.477   3.213  16.234 -0.6796 -0.9243 -1.0883
20008TIP3   OH281514   5.853   3.818   5.502 -0.1349 -0.6293  0.3109
20008TIP3    H181515   5.882   3.867   5.580 -0.6344 -0.3169  0.2987
20008TIP3    H281516   5.922   3.834   5.438  0.4030 -1.0861  0.7692
20009TIP3   OH281517   5.698   1.620  12.615  0.2008 -0.1800 -0.2831
20009TIP3    H181518   5.717   1.635  12.522  0.9684 -1.0002 -0.2723
20009TIP3    H281519   5.759   1.551  12.640 -0.5957 -0.5641  0.6159
20010TIP3   OH281520   1.662   5.812   0.564 -0.0196 -0.6144  0.1171
20010TIP3    H181521   1.613   5.810   0.483 -1.0423  1.1480  0.6645
20010TIP3    H281522   1.750   5.785   0.539 -0.7792 -1.9116 -1.2228
20011TIP3   OH281523   1.181   6.581   2.531 -0.2049  0.0022  0.3116
20011TIP3    H181524   1.195   6.565   2.624  3.7774  1.5952  0.0936
20011TIP3    H281525   1.104   6.637   2.527  0.0473  0.5770  2.7109
20012TIP3   OH281526   1.797   6.327   3.581 -0.1617  0.4330  0.1738
20012TIP3    H181527   1.852   6.323   3.660 -0.3298  1.3043  0.3493
20012TIP3    H281528   1.841   6.392   3.525  0.3118 -0.6605 -0.7347
20013TIP3   OH281529   2.007   1.443   4.545  0.3391  0.1143  0.5311
20013TIP3    H181530   2.064   1.419   4.618 -0.3633 -1.7777  0.4825
20013TIP3    H281531   2.054   1.414   4.467 -0.9943 -2.1408  0.5349
20014TIP3   OH281532   3.282   0.182  17.160 -0.4011 -0.5976 -0.0398
20014TIP3    H181533   3.267   0.108  17.100 -1.1861 -0.6247  0.1755
20014TIP3    H281534   3.311   0.253  17.103 -1.9854 -0.3660 -0.5946
20015TIP3   OH281535   2.243   2.908   4.754  0.5345 -0.6752  0.0086
20015TIP3    H181536   2.227   2.969   4.826  0.0369 -1.4576  0.5622
20015TIP3    H281537   2.212   2.955   4.676  1.4844  0.3485  0.2316
20016TIP3   OH281538   1.842   2.200   4.655 -0.0070 -0.0892 -0.1510
20016TIP3    H181539   1.871   2.148   4.580 -1.7399 -0.7961 -0.3482
20016TIP3    H281540   1.749   2.216   4.639 -0.8920 -1.9262  2.8047
20017TIP3   OH281541   6.288   1.766   4.893  0.4074 -0.1494 -0.8705
20017TIP3    H181542   6.269   1.842   4.948  1.7237  1.2217 -2.2447
20017TIP3    H281543   6.382   1.771   4.878  0.2722 -1.2656 -2.1245
20018TIP3   OH281544   1.882   3.948   5.091  0.1155  0.0087 -0.0674
20018TIP3    H181545   1.973   3.922   5.106  0.6578  2.7582  1.8568
20018TIP3    H281546   1.834   3.914   5.167 -0.1139  0.1024 -0.1690
20019TIP3   OH281547   6.628   3.429   1.247 -0.2704 -0.4227  0.1705
20019TIP3    H181548   6.570   3.434   1.171  0.3519  0.8511 -0.2335
20019TIP3    H281549   6.610   3.509   1.296  0.4042 -0.5214  0.5833
20020TIP3   OH281550   4.999   2.353   6.760  0.2679  0.0901  0.9369
20020TIP3    H181551   5.065   2.422   6.750 -0.0764  0.3002  0.0264
20020TIP3    H281552   4.927   2.396   6.805  0.2034  0.2266  0.7054
20021TIP3   OH281553   3.537   3.262   4.282  0.0337 -0.4640  0.0336
20021TIP3    H181554   3.541   3.331   4.215 -1.6807  0.6065  0.9970
20021TIP3    H281555   3.628   3.240   4.300  0.5528  0.3679 -1.5061
20022TIP3   OH281556   5.556   0.038   0.021 -0.0725 -0.0952 -0.0074
20022TIP3    H181557   5.470  -0.004   0.024  0.1688 -0.5133  1.3108
20022TIP3    H281558   5.611  -0.017   0.076  1.2413 -0.2662 -1.4570
20023TIP3   OH281559   2.879   4.768  14.994 -0.1339  0.1021 -0.0758
20023TIP3    H181560   2.839   4.724  15.069 -2.6861  1.2378 -0.7069
20023TIP3    H281561   2.819   4.749  14.922  0.6615  1.6080 -1.1368
20024TIP3   OH281562   6.020   4.878  15.798  0.5342  0.3386  0.6898
20024TIP3    H181563   6.026   4.783  15.809  0.9702  0.1783 -0.8027
20024TIP3    H281564   5.940   4.891  15.748  0.1755  0.8107  1.3786
20025TIP3   OH281565   3.027   5.806  16.608  0.4138 -0.2768 -0.4814
20025TIP3    H181566   2.975   5.881  16.580 -1.9209 -1.2449  1.0682
20025TIP3    H281567   2.996   5.734  16.553  0.0125 -0.8849  0.5207
20026TIP3   OH281568   6.813   6.760  11.696  0.4045 -0.3573 -0.4724
20026TIP3    H181569   6.818   6.765  11.600  1.0299  1.3278 -0.3688
20026TIP3    H281570   6.747   6.825  11.720 -1.3649 -2.3370  0.1219
20027TIP3   OH281571   4.850   5.920   4.913  1.0993 -0.7955  0.5063
20027TIP3    H181572   4.918   5.888   4.854  0.8929 -1.7543  0.7802
20027TIP3    H281573   4.799   5.842   4.935 -0.9595  0.1595 -0.8200
20028TIP3   OH281574   0.485   2.257  12.404 -0.4309  0.1204  0.3533
20028TIP3    H181575   0.442   2.182  12.445 -1.0314 -0.0374 -0.5502
20028TIP3    H281576   0.423   2.330  12.415 -0.5940  0.0794 -0.2449
20029TIP3   OH281577   4.001   4.561   0.356 -0.0698  0.2417  0.2027
20029TIP3    H181578   3.990   4.491   0.290  2.7466  1.1132 -1.2740
20029TIP3    H281579   3.934   4.625   0.333 -1.3943 -1.0422  0.3571
20030TIP3   OH281580   4.876   2.244  14.573  0.1137 -0.2524 -0.5574
20030TIP3    H181581   4.859   2.314  14.511 -0.5776  0.1537  0.0807
20030TIP3    H281582   4.932   2.283  14.640 -0.1927 -0.3346 -0.2511
20031TIP3   OH281583   2.842   1.905   4.028  0.3932  0.3295 -1.1629
20031TIP3    H181584   2.912   1.969   4.019  0.2961  0.3033 -2.1573
20031TIP3    H281585   2.834   1.891   4.122  1.7065  0.3455 -1.0447
20032TIP3   OH281586   6.202   0.608   5.720 -0.2424 -0.3565  0.0505
20032TIP3    H181587   6.176   0.556   5.796 -0.3093  0.2945  0.4674
20032TIP3    H281588   6.296   0.621   5.730 -0.3832  0.3764  0.4147
20033TIP3   OH281589   4.488   3.067  17.042 -0.4845 -0.4724  0.4659
20033TIP3    H181590   4.521   3.024  16.963 -0.0440 -0.0447  0.4122
20033TIP3    H281591   4.545   3.036  17.112  0.7382  1.1144  0.1924
20034TIP3   OH281592   3.282   3.279  11.366  0.2210  0.0160 -0.5373
20034TIP3    H181593   3.312   3.189  11.382 -0.3649 -0.3246 -1.3430
20034TIP3    H281594   3.189   3.278  11.389  0.1960  0.4014 -0.6212
20035TIP3   OH281595   4.240   2.464  12.073  0.2152  0.5977 -0.2230
20035TIP3    H181596   4.159   2.499  12.035  0.2049  0.9840  0.1531
20035TIP3    H281597   4.274   2.406  12.006 -0.3585  0.4626 -0.4042
20036TIP3   OH281598   0.166   4.291   3.631  0.1950 -0.3457  0.8518
20036TIP3    H181599   0.090   4.287   3.689 -0.6733 -0.0305 -0.2435
20036TIP3    H281600   0.219   4.363   3.666 -0.2606 -0.2324  1.3136
20037TIP3   OH281601   4.471   6.621   2.198  0.3785  0.3003 -0.0574
20037TIP3    H181602   4.396   6.656   2.245  0.1638 -0.0317 -0.1484
20037TIP3    H281603   4.482   6.678   2.122 -0.4554 -0.2940 -0.6316
20038TIP3   OH281604   3.710   6.521   5.803  0.1152 -0.8635 -0.7831
20038TIP3    H181605   3.635   6.571   5.771 -1.8508 -2.5385  0.9796
20038TIP3    H281606   3.759   6.583   5.857 -2.3221 -0.7563  1.4413
20039TIP3   OH281607   3.447   3.222  12.506  0.4343 -0.0842  0.1945
20039TIP3    H181608   3.452   3.265  12.421  1.1067 -0.8122 -0.1343
20039TIP3    H281609   3.524   3.252  12.553 -0.5584  1.2623  1.0000
20040TIP3   OH281610   4.067   1.437   5.258  0.7487 -0.1383  0.1247
20040TIP3    H181611   4.043   1.527   5.236  3.0521  0.1606 -1.3086
20040TIP3    H281612   4.101   1.442   5.347  0.0866  0.2588  0.3575
20041TIP3   OH281613   1.454   1.666  12.404  0.1817 -0.5077  0.2476
20041TIP3    H181614   1.421   1.711  12.482 -0.3539  0.3496 -0.4618
20041TIP3    H281615   1.385   1.678  12.339  1.0179 -0.4178 -0.6380
20042TIP3   OH281616   2.908   5.172  16.773  0.4353  0.3145 -0.0073
20042TIP3    H181617   2.947   5.123  16.701 -0.0029 -0.5980  0.3629
20042TIP3    H281618   2.957   5.145  16.851 -1.5948 -1.6955  0.6403
20043TIP3   OH281619   2.337   6.814   5.120 -0.4190  0.0460  0.1086
20043TIP3    H181620   2.270   6.787   5.057 -0.0070  0.0403 -0.3318
20043TIP3    H281621   2.412   6.759   5.100  0.1387  0.9254 -0.2260
20044TIP3   OH281622   6.263   6.790   4.537  0.0550 -0.0746  0.1348
20044TIP3    H181623   6.206   6.737   4.592  1.0333 -1.2174  0.0751
20044TIP3    H281624   6.204   6.853   4.495 -1.1097 -1.0210  0.3148
20045TIP3   OH281625   0.473   1.402   1.952 -0.0577 -0.0961  0.1471
20045TIP3    H181626   0.549   1.351   1.980 -1.7339 -1.7486  1.8273
20045TIP3    H281627   0.410   1.337   1.923 -2.3676  0.9551  2.6152
20046TIP3   OH281628   3.462   3.778  14.143 -0.1991  0.4090  0.4167
20046TIP3    H181629   3.496   3.763  14.055 -1.8554  0.4327 -0.2434
20046TIP3    H281630   3.404   3.704  14.160  1.2141 -0.3497  2.0705
20047TIP3   OH281631   3.117   4.019   3.775 -0.4926  0.0289  0.5913
20047TIP3    H181632   3.079   4.107   3.780  0.3612  0.3685  1.3398
20047TIP3    H281633   3.071   3.969   3.843 -0.9077 -0.0721  0.2340
20048TIP3   OH281634   0.484   1.416  12.421  0.6928  0.2589 -0.0972
20048TIP3    H181635   0.401   1.372  12.403  0.3541  0.0517  1.9570
20048TIP3    H281636   0.547   1.344  12.432  1.1390  0.4119 -1.4706
20049TIP3   OH281637   5.652   5.730  16.305 -0.2798  0.7421 -0.4654
20049TIP3    H181638   5.624   5.666  16.239  0.2569  0.3035 -0.2660
20049TIP3    H281639   5.584   5.726  16.372 -0.6105  0.8861 -0.7914
20050TIP3   OH281640   1.567   3.564  15.225 -0.3307 -0.0036  0.0168
20050TIP3    H181641   1.500   3.508  15.187  0.3709  0.1683 -1.5235
20050TIP3    H281642   1.635   3.569  15.157  0.1604  1.7229  0.6114
20051TIP3   OH281643   0.706   3.166   0.360 -0.3897  0.4305  0.4058
20051TIP3    H181644   0.754   3.176   0.442  0.7782  0.2172 -0.2396
20051TIP3    H281645   0.714   3.252   0.317  1.2322 -0.2143 -0.6503
20052TIP3   OH281646   4.502   4.120   3.792  0.2046  0.1255  0.5970
20052TIP3    H181647   4.558   4.171   3.850  0.3888  1.4133 -0.6782
20052TIP3    H281648   4.416   4.161   3.799  0.2804  0.4425 -0.1936
20053TIP3   OH281649   3.959   6.565   4.823 -0.3962 -0.3582 -0.7756
20053TIP3    H181650   4.017   6.561   4.747  1.2303 -0.0936  0.4309
20053TIP3    H281651   4.013   6.536   4.896 -1.6644  0.2824  0.4351
20054TIP3   OH281652   6.770   1.427  13.143 -0.6935  0.4665 -0.0659
20054TIP3    H181653   6.781   1.469  13.057  1.0018 -0.7645 -0.4678
20054TIP3    H281654   6.707   1.356  13.127  0.8116 -0.7495 -0.6443
20055TIP3   OH281655   3.900   0.431   1.950  0.1193 -0.3491  0.1224
20055TIP3    H181656   3.936   0.398   1.867  0.2338 -0.0310  0.0448
20055TIP3    H281657   3.976   0.464   1.998  0.0741 -0.6856  0.4245
20056TIP3   OH281658   1.229   3.716   6.032  0.9286 -0.2933 -0.1874
20056TIP3    H181659   1.151   3.752   6.073  0.5144 -0.7588 -0.5595
20056TIP3    H281660   1.195   3.656   5.965  1.6098 -2.0886  1.0386
20057TIP3   OH281661   5.852   0.468   0.364 -0.3584  0.4511 -0.6512
20057TIP3    H181662   5.800   0.531   0.414  0.0774 -1.3779  2.2383
20057TIP3    H281663   5.929   0.517   0.335 -0.6576  1.5767  0.4317
20058TIP3   OH281664   2.092   0.524  16.917  0.5002 -0.0526 -0.0870
20058TIP3    H181665   2.168   0.505  16.972  0.3059 -2.9048 -0.7382
20058TIP3    H281666   2.126   0.527  16.828  0.3648  1.9545 -0.1041
20059TIP3   OH281667   1.079   5.526  14.547 -0.0738 -0.5143 -0.2797
20059TIP3    H181668   1.148   5.552  14.485 -0.5375 -1.2536 -1.1178
20059TIP3    H281669   1.035   5.607  14.570 -0.0466 -0.2619 -1.1064
20060TIP3   OH281670   1.049   2.938   0.205 -0.1868 -0.0696  0.4373
20060TIP3    H181671   1.033   2.993   0.127 -1.5050 -1.4698 -0.3229
20060TIP3    H281672   1.139   2.907   0.195 -0.5175 -0.6616 -0.8234
20061TIP3   OH281673   5.249   2.082   0.252 -0.1107 -0.6036  0.2496
20061TIP3    H181674   5.312   2.040   0.310  0.8095  2.6841  1.7254
20061TIP3    H281675   5.165   2.075   0.298 -0.1051 -1.4289  0.1443
20062TIP3   OH281676   6.169   2.781  13.191  0.2001  0.4939 -0.1174
20062TIP3    H181677   6.179   2.836  13.114  2.1306  0.5860  0.1657
20062TIP3    H281678   6.143   2.841  13.261 -1.9985  0.3406 -0.7598
20063TIP3   OH281679   6.725   5.300   3.739 -0.3145  0.5249 -0.2010
20063TIP3    H181680   6.635   5.288   3.769  0.6808  1.3663  3.4326
20063TIP3    H281681   6.720   5.371   3.675 -2.5552 -1.2839 -2.1126
20064TIP3   OH281682   0.678   0.081  14.352  0.1230  0.0181  0.0699
20064TIP3    H181683   0.688   0.056  14.444  1.9785  1.3685  0.2605
20064TIP3    H281684   0.711   0.005  14.303 -0.6315 -0.6012  0.5120
20065TIP3   OH281685   2.996   0.097   2.831 -0.0884 -0.4113 -0.2151
20065TIP3    H181686   2.971   0.042   2.757  1.7053 -1.9831  0.3154
20065TIP3    H281687   2.919   0.098   2.887 -0.9724 -0.3537 -1.4087
20066TIP3   OH281688   0.938   4.322   5.417  0.0985 -0.1461 -0.5282
20066TIP3    H181689   1.000   4.379   5.463 -2.2826  2.0799  0.0351
20066TIP3    H281690   0.908   4.375   5.342 -2.5485 -0.4179  0.3083
20067TIP3   OH281691   2.121   6.817  11.159 -0.4379 -0.1655 -0.1028
20067TIP3    H181692   2.185   6.758  11.120 -0.6924 -0.2514 -0.3957
20067TIP3    H281693   2.037   6.773  11.146 -0.4767 -0.4707  1.0479
20068TIP3   OH281694   4.238   5.457  11.268  0.4430  0.3425 -0.0435
20068TIP3    H181695   4.273   5.473  11.355 -0.1594 -2.1541  0.7244
20068TIP3    H281696   4.145   5.481  11.275  0.3975  0.1568  0.0162
20069TIP3   OH281697   0.173   6.196   4.363  0.7437  0.4144  0.6142
20069TIP3    H181698   0.233   6.247   4.308 -0.8188  1.4735 -0.1289
20069TIP3    H281699   0.133   6.133   4.303  0.5166  0.2435  0.9477
20070TIP3   OH281700   3.081   3.338   0.329  0.4100 -0.2213  0.5180
20070TIP3    H181701   3.030   3.413   0.299  0.1604 -0.7422 -0.3756
20070TIP3    H281702   3.103   3.291   0.249  0.1941 -1.3396  1.1128
20071TIP3   OH281703   0.084   0.626  16.490  0.0338 -0.0876 -0.4674
20071TIP3    H181704   0.154   0.682  16.522 -0.0620  0.1322 -0.6455
20071TIP3    H281705   0.125   0.572  16.423  0.2998 -0.7367  0.2070
20072TIP3   OH281706   5.151   2.631  15.424  0.0196 -0.2873  0.0295
20072TIP3    H181707   5.114   2.678  15.498 -0.5759  0.0985 -0.5080
20072TIP3    H281708   5.134   2.687  15.349  0.9789 -0.4907 -0.3375
20073TIP3   OH281709   0.673   5.755  14.182 -0.2192  0.0862  0.1804
20073TIP3    H181710   0.658   5.669  14.221  2.6311  0.1649  1.6307
20073TIP3    H281711   0.765   5.754  14.156 -0.3047  2.4691 -0.3808
20074TIP3   OH281712   3.384   3.008   3.511  0.1736  0.2545  0.1794
20074TIP3    H181713   3.293   2.994   3.484  0.2930  1.4163 -0.9160
20074TIP3    H281714   3.434   3.002   3.429  1.0019  0.2421  0.6831
20075TIP3   OH281715   1.072   5.237  11.285  0.2147 -0.1128  0.1268
20075TIP3    H181716   1.070   5.326  11.252 -0.6028  0.5889  2.0183
20075TIP3    H281717   0.983   5.220  11.315  0.8668 -0.7791  1.7838
20076TIP3   OH281718   4.141   5.766  12.098  0.8940 -0.4386 -0.7439
20076TIP3    H181719   4.052   5.738  12.119  1.4226 -2.1021 -0.7001
20076TIP3    H281720   4.130   5.853  12.060 -0.7387 -0.5985 -0.6725
20077TIP3   OH281721   0.133   4.024  16.690  0.0665 -0.0423 -0.2126
20077TIP3    H181722   0.186   4.006  16.613  0.9424 -0.0703  0.3972
20077TIP3    H281723   0.195   4.053  16.757 -0.6109 -0.5737  0.6690
20078TIP3   OH281724   2.317   5.574   4.855  0.0913  0.0297 -0.0650
20078TIP3    H181725   2.317   5.485   4.892  1.6107  0.0176 -0.0402
20078TIP3    H281726   2.268   5.567   4.774  0.7122 -0.9753 -0.3613
20079TIP3   OH281727   3.538   0.268   0.468  1.1812  0.0385  0.1689
20079TIP3    H181728   3.579   0.220   0.540 -0.0020 -1.0321  0.1282
20079TIP3    H281729   3.452   0.229   0.458  1.6711 -0.4473 -2.4561
20080TIP3   OH281730   4.112   3.573   4.277  0.0637 -0.7310 -0.2056
20080TIP3    H181731   4.166   3.619   4.213 -0.7967 -0.2235 -0.5708
20080TIP3    H281732   4.095   3.488   4.237  0.2378 -0.7355 -0.2728
20081TIP3   OH281733   3.901   4.501   5.884  0.6759 -0.1160 -0.3477
20081TIP3    H181734   3.902   4.496   5.980 -1.0071  1.3830 -0.2265
20081TIP3    H281735   3.822   4.551   5.864  1.7394  0.7352 -2.4745
20082TIP3   OH281736   6.502   1.914   2.342  0.1993  0.4946  0.1710
20082TIP3    H181737   6.435   1.918   2.411  1.3270  0.4009  1.2912
20082TIP3    H281738   6.492   1.826   2.306 -0.9703  0.8433 -0.3771
20083TIP3   OH281739   5.305   2.175   5.373  0.5537  0.7114 -0.0835
20083TIP3    H181740   5.270   2.240   5.434  2.2126  1.5092  0.0579
20083TIP3    H281741   5.366   2.124   5.426 -0.2969 -0.5915 -0.3412
20084TIP3   OH281742   0.107   1.671  12.489  0.0161 -0.1986 -0.3057
20084TIP3    H181743   0.019   1.706  12.476 -0.8918 -2.1018  0.5164
20084TIP3    H281744   0.115   1.600  12.425  2.4622  2.5022 -3.1433
20085TIP3   OH281745   5.426   3.424   0.882 -0.1188  0.1643  0.2624
20085TIP3    H181746   5.418   3.494   0.946 -1.3262 -0.6330  1.0005
20085TIP3    H281747   5.427   3.344   0.934 -0.9488 -0.4785 -0.7055
20086TIP3   OH281748   3.954   3.596  11.132  0.6343  0.5279  0.4283
20086TIP3    H181749   3.969   3.618  11.040 -0.2035  1.3578  0.4871
20086TIP3    H281750   3.971   3.677  11.180  0.3820  0.2880  0.9308
20087TIP3   OH281751   6.716   6.783  16.291  0.4898 -0.1713  0.3418
20087TIP3    H181752   6.777   6.748  16.225  0.1590  1.7514 -1.0336
20087TIP3    H281753   6.735   6.876  16.294 -0.7588  0.0611  1.6745
20088TIP3   OH281754   4.457   3.239  12.852 -0.0940 -0.0714 -0.3492
20088TIP3    H181755   4.547   3.223  12.824  0.0077 -0.0521 -0.0347
20088TIP3    H281756   4.411   3.262  12.772  0.4421  1.0871 -0.3245
20089TIP3   OH281757   1.974   6.501   1.870 -0.1143  0.2092 -0.3470
20089TIP3    H181758   1.890   6.489   1.825 -0.5786  1.8501  0.0440
20089TIP3    H281759   1.995   6.415   1.905 -1.7462 -0.1712 -0.2753
20090TIP3   OH281760   3.452   3.258  15.083  0.2786 -0.0524  0.5964
20090TIP3    H181761   3.444   3.303  14.998 -1.4109  1.2206  1.3954
20090TIP3    H281762   3.371   3.207  15.089  1.9307 -2.8614 -0.0581
20091TIP3   OH281763   4.586   6.240  11.502 -0.0323 -0.3146 -0.1943
20091TIP3    H181764   4.570   6.327  11.464 -1.1218 -0.7377 -0.7524
20091TIP3    H281765   4.574   6.252  11.596  0.5522  0.3016 -0.2011
20092TIP3   OH281766   3.940   5.993   2.770 -0.1436  0.2493 -0.0905
20092TIP3    H181767   3.926   6.019   2.679 -0.9757  0.4879  0.1088
20092TIP3    H281768   4.019   5.939   2.767 -1.3275 -1.4560 -1.2640
20093TIP3   OH281769   4.806   6.689   4.203 -0.4092  0.1107  0.0334
20093TIP3    H181770   4.815   6.595   4.185  1.4975  0.2990 -0.1211
20093TIP3    H281771   4.896   6.722   4.204 -0.8744  1.4630  2.6300
20094TIP3   OH281772   3.245   4.354   2.781 -0.0974 -0.3546  0.1855
20094TIP3    H181773   3.204   4.424   2.832  0.0807  0.2838 -0.5475
20094TIP3    H281774   3.310   4.316   2.840 -0.6399 -0.3327  0.8035
20095TIP3   OH281775   1.021   6.572   2.093  0.0722 -0.0439  0.0300
20095TIP3    H181776   1.088   6.525   2.142 -0.5904 -1.2795 -0.2267
20095TIP3    H281777   0.940   6.524   2.110 -0.8416  1.6459  0.6440
20096TIP3   OH281778   4.640   1.712  12.297 -0.0983 -0.0085 -0.1913
20096TIP3    H181779   4.705   1.647  12.268 -0.2875  0.1074 -0.8805
20096TIP3    H281780   4.678   1.796  12.271  1.4611  0.4047  3.1491
20097TIP3   OH281781   4.153   4.316   5.377  0.1637  0.5961  0.2362
20097TIP3    H181782   4.102   4.320   5.458 -1.1307  1.7222 -0.6064
20097TIP3    H281783   4.155   4.223   5.355 -2.1573  0.5666 -0.0526
20098TIP3   OH281784   3.831   4.973  16.371  0.0879 -0.2722  0.5532
20098TIP3    H181785   3.784   5.031  16.431  1.4006  0.8544  0.5336
20098TIP3    H281786   3.825   5.015  16.286  2.2120  0.5980  0.7888
20099TIP3   OH281787   5.967   5.031  16.072  0.2232 -0.0048  0.3722
20099TIP3    H181788   5.891   4.978  16.050 -0.0917 -0.2680  2.0488
20099TIP3    H281789   5.934   5.099  16.131  0.8367  1.3843 -0.8302
20100TIP3   OH281790   6.458   4.003   5.555 -0.9628  0.0139 -0.0936
20100TIP3    H181791   6.447   4.086   5.509  0.4493 -0.5484 -1.4780
20100TIP3    H281792   6.373   3.960   5.547 -0.6121 -0.2520 -2.5647
20101TIP3   OH281793   3.799   6.633   3.365 -0.3330  0.6523 -0.3100
20101TIP3    H181794   3.724   6.635   3.425  1.1939 -1.4262  1.7634
20101TIP3    H281795   3.765   6.591   3.286 -1.4385  0.0080  0.4954
20102TIP3   OH281796   4.083   1.753  16.739 -0.1854 -1.3595  0.2446
20102TIP3    H181797   4.163   1.789  16.776 -0.9286  0.4113  0.1384
20102TIP3    H281798   4.060   1.812  16.668 -1.4802 -1.9688  0.1400
20103TIP3   OH281799   1.816   4.119   3.914  0.5894  0.1273 -0.4982
20103TIP3    H181800   1.897   4.073   3.936 -0.1149 -1.1531 -0.5125
20103TIP3    H281801   1.748   4.053   3.923 -0.4741  1.2108 -0.3914
20104TIP3   OH281802   4.038   0.815   4.668 -0.0054  0.2423 -0.0473
20104TIP3    H181803   4.125   0.795   4.703 -0.3406  0.1332  0.7377
20104TIP3    H281804   4.033   0.765   4.586  0.1683 -0.7873  0.5630
20105TIP3   OH281805   0.985   6.760  16.332 -0.1264  0.2784 -0.6368
20105TIP3    H181806   0.928   6.685  16.348 -0.5705  1.0219  1.5224
20105TIP3    H281807   1.074   6.727  16.344 -0.2482 -0.2504 -1.2148
20106TIP3   OH281808   2.106   4.202   2.536  0.4474  0.2850 -0.3429
20106TIP3    H181809   2.120   4.225   2.628 -0.3574  0.1564 -0.1894
20106TIP3    H281810   2.144   4.114   2.527 -0.0981  0.0104  0.0305
20107TIP3   OH281811   3.671   3.468   5.666  0.2828  0.2063 -0.5386
20107TIP3    H181812   3.626   3.385   5.681  0.6588  0.2411  0.8325
20107TIP3    H281813   3.628   3.530   5.724  0.3348  0.8482 -1.1914
20108TIP3   OH281814   0.947   2.932   4.748  0.1921  0.3701  0.4029
20108TIP3    H181815   0.859   2.963   4.730 -0.1031  0.0616  1.3062
20108TIP3    H281816   0.957   2.853   4.696 -0.4304 -0.1638  1.0896
20109TIP3   OH281817   3.572   0.048   2.992  0.2351  0.4433  0.1117
20109TIP3    H181818   3.505   0.106   3.027 -0.6632 -1.0228  0.8716
20109TIP3    H281819   3.589   0.080   2.903 -0.9003  1.2955  0.2039
20110TIP3   OH281820   5.872   0.964  17.131  0.0733 -0.1728  0.5024
20110TIP3    H181821   5.938   0.931  17.192  1.6519  3.1007  0.6478
20110TIP3    H281822   5.838   0.885  17.088  1.1882 -2.2715  3.2927
20111TIP3   OH281823   1.951   0.733  15.817 -0.2325  0.3350  0.2049
20111TIP3    H181824   2.042   0.728  15.787  0.1239  0.9850  1.1349
20111TIP3    H281825   1.949   0.812  15.872 -1.4758  0.5927 -0.2092
20112TIP3   OH281826   6.271   5.439   5.155  0.3669  0.8029 -0.5504
20112TIP3    H181827   6.229   5.371   5.102 -0.6965  1.2705 -0.3221
20112TIP3    H281828   6.320   5.492   5.092  0.7177  0.1820 -0.8041
20113TIP3   OH281829   6.555   1.005  12.339 -0.0873 -0.0577 -0.4876
20113TIP3    H181830   6.557   1.072  12.270  0.2895  0.7623  0.3099
20113TIP3    H281831   6.474   0.957  12.323 -0.3379  0.5529 -1.1111
20114TIP3   OH281832   4.000   5.657  12.983 -0.4262 -0.0897 -0.3650
20114TIP3    H181833   3.926   5.658  12.923 -0.9939 -2.1019  0.2376
20114TIP3    H281834   3.982   5.584  13.042  2.5300 -1.3197 -0.8662
20115TIP3   OH281835   6.423   4.030   6.624 -0.0418 -0.2976  0.3682
20115TIP3    H181836   6.498   4.083   6.599 -0.0340  0.3556  1.7305
20115TIP3    H281837   6.435   3.948   6.576  0.2383  0.7106 -1.3126
20116TIP3   OH281838   6.089   3.449   5.746 -0.3000 -0.3629 -0.0039
20116TIP3    H181839   6.044   3.372   5.779 -1.0520  0.4340  0.8598
20116TIP3    H281840   6.030   3.486   5.681 -0.3190 -0.0466  0.1897
20117TIP3   OH281841   6.113   3.157   5.252  0.4063 -0.0122  0.2625
20117TIP3    H181842   6.193   3.157   5.199 -0.2985  0.2043 -0.8208
20117TIP3    H281843   6.124   3.231   5.311  0.7101  0.4593 -0.3733
20118TIP3   OH281844   0.657   1.450  15.976 -0.5003 -0.5052  0.4223
20118TIP3    H181845   0.653   1.476  16.068 -2.8406  0.4296  0.1021
20118TIP3    H281846   0.657   1.355  15.977  0.0413 -0.4937  1.4043
20119TIP3   OH281847   6.226   1.934  11.854 -0.3478 -0.3137 -0.2665
20119TIP3    H181848   6.225   1.961  11.762  1.4882 -1.0088 -0.5329
20119TIP3    H281849   6.143   1.964  11.889 -1.0303  0.0724 -2.1311
20120TIP3   OH281850   4.167   1.693   1.016  0.9283 -0.0363 -0.2392
20120TIP3    H181851   4.106   1.724   0.949  0.6397  0.5016  0.2724
20120TIP3    H281852   4.111   1.651   1.082  0.9154  2.2018  1.2114
20121TIP3   OH281853   3.249   1.348   3.011 -0.4123 -0.6269  0.3349
20121TIP3    H181854   3.223   1.278   2.951 -0.8283  0.1285 -0.3702
20121TIP3    H281855   3.317   1.396   2.964  0.0487 -0.7009  0.9183
20122TIP3   OH281856   0.639   3.571   5.044  0.3625  0.7102 -0.3023
20122TIP3    H181857   0.555   3.608   5.016 -0.6486  0.4778  2.2785
20122TIP3    H281858   0.616   3.490   5.089  1.9336  0.8545  0.8188
20123TIP3   OH281859   5.387   0.851   1.176  0.2146 -0.3038 -0.5649
20123TIP3    H181860   5.329   0.804   1.236 -0.0525 -1.0728 -1.4276
20123TIP3    H281861   5.470   0.804   1.181 -0.0254 -0.8182 -1.3547
20124TIP3   OH281862   3.935   3.085  14.380 -0.1877  0.1470  0.2190
20124TIP3    H181863   3.901   3.011  14.331 -1.6017  1.3298 -0.6479
20124TIP3    H281864   3.964   3.048  14.464  0.0166 -1.5020 -0.5633
20125TIP3   OH281865   6.688   5.057   1.332  0.3753 -0.5524  0.3738
20125TIP3    H181866   6.730   5.116   1.269 -2.7423 -0.0939 -1.3732
20125TIP3    H281867   6.670   4.977   1.282  1.1856 -1.6007  1.7144
20126TIP3   OH281868   2.554   0.028   0.246 -0.5458  0.1096  0.5738
20126TIP3    H181869   2.639   0.010   0.285  0.2262  2.1644 -0.0823
20126TIP3    H281870   2.525  -0.056   0.210  0.9005 -0.7445  1.3800
20127TIP3   OH281871   2.858   5.573   1.880 -0.2017 -0.0858  0.1158
20127TIP3    H181872   2.808   5.497   1.911 -0.9758  0.3683 -0.0259
20127TIP3    H281873   2.942   5.536   1.852 -0.1358 -0.7285  1.1446
20128TIP3   OH281874   3.676   3.866  10.443 -0.2472 -0.1042 -0.3267
20128TIP3    H181875   3.583   3.878  10.465 -0.2429 -1.2784  0.3536
20128TIP3    H281876   3.709   3.805  10.509  1.0301  0.3545 -0.5327
20129TIP3   OH281877   1.172   2.717  15.192 -0.8990  0.1729 -1.0410
20129TIP3    H181878   1.228   2.732  15.116  0.1963  0.3269 -0.2206
20129TIP3    H281879   1.141   2.805  15.216 -2.7055 -0.0688 -2.3813
20130TIP3   OH281880   6.153   4.755   4.167  0.5868  0.0756 -0.0218
20130TIP3    H181881   6.067   4.796   4.173  0.7816  0.2397  2.0615
20130TIP3    H281882   6.135   4.661   4.161  0.2550  0.0590  1.0795
20131TIP3   OH281883   5.552   6.806   0.775 -0.2458 -0.1794 -0.6314
20131TIP3    H181884   5.478   6.749   0.796 -0.5057  0.1972 -0.5066
20131TIP3    H281885   5.511   6.888   0.745  0.1164  0.0236 -0.5754
20132TIP3   OH281886   5.562   4.494  11.636 -0.7605 -0.0619  0.2277
20132TIP3    H181887   5.639   4.456  11.594 -0.6333 -0.1255  0.5200
20132TIP3    H281888   5.523   4.549  11.568 -0.2922  0.2066  0.1677
20133TIP3   OH281889   0.488   6.317   6.861 -1.0126  0.3484 -0.1067
20133TIP3    H181890   0.394   6.302   6.875 -0.9520 -1.3335 -1.4333
20133TIP3    H281891   0.506   6.398   6.908 -3.2447  0.9530 -0.2384
20134TIP3   OH281892   4.520   1.595  17.097 -0.3782  0.0344 -0.5629
20134TIP3    H181893   4.457   1.525  17.082 -2.3918  1.4103  1.1854
20134TIP3    H281894   4.502   1.659  17.027 -0.5086  0.1336 -0.4398
20135TIP3   OH281895   4.477   6.413   4.506 -0.2049 -0.6807  1.0212
20135TIP3    H181896   4.560   6.445   4.541 -0.3783 -2.1685  2.9140
20135TIP3    H281897   4.414   6.428   4.576 -1.8621  1.6004 -0.8650
20136TIP3   OH281898   3.306   4.655   1.843 -0.7570  0.3811  0.3410
20136TIP3    H181899   3.342   4.741   1.821  0.0809 -0.3635 -1.2965
20136TIP3    H281900   3.243   4.636   1.774 -1.1586 -0.2012  0.8529
20137TIP3   OH281901   2.985   1.701   5.144 -0.4768  0.5864 -0.3234
20137TIP3    H181902   3.000   1.607   5.149  2.7171  0.9625 -1.8300
20137TIP3    H281903   2.993   1.732   5.234  0.6101 -0.2940 -0.1107
20138TIP3   OH281904   6.444   3.132  16.886 -0.5855 -0.5541 -0.4598
20138TIP3    H181905   6.402   3.213  16.858  0.0128 -0.3032 -0.6411
20138TIP3    H281906   6.533   3.138  16.852 -0.4111 -1.0956 -0.1081
20139TIP3   OH281907   5.192   0.220  13.264  0.4221 -0.6655  0.0939
20139TIP3    H181908   5.199   0.288  13.331 -1.0561 -0.2338 -0.1670
20139TIP3    H281909   5.229   0.142  13.304  0.7677 -0.0719  0.9334
20140TIP3   OH281910   0.809   2.177   6.000 -0.0682  0.9811 -0.2485
20140TIP3    H181911   0.814   2.088   5.965 -1.3642  0.8231 -0.0745
20140TIP3    H281912   0.881   2.182   6.063 -0.9367 -0.4839  0.8938
20141TIP3   OH281913   4.276   5.873   1.108 -0.9797  0.0288  0.2457
20141TIP3    H181914   4.317   5.836   1.030 -3.4829 -2.4945  0.0363
20141TIP3    H281915   4.261   5.965   1.087  0.6975 -0.0151 -1.2294
20142TIP3   OH281916   5.784   2.107   3.024  0.7215 -0.1132 -0.4889
20142TIP3    H181917   5.697   2.073   3.046 -0.2923  2.0941 -0.9832
20142TIP3    H281918   5.845   2.038   3.052 -1.0863 -1.0967  1.1000
20143TIP3   OH281919   4.588   0.324   0.140  0.4618  0.3953 -0.3613
20143TIP3    H181920   4.638   0.294   0.065  1.1793  1.0391 -0.1517
20143TIP3    H281921   4.578   0.246   0.195  1.9228  0.4076 -0.0336
20144TIP3   OH281922   2.378   1.005   4.285 -0.4089  0.2182 -0.1812
20144TIP3    H181923   2.378   1.083   4.229 -2.3620  0.9219  0.7506
20144TIP3    H281924   2.380   0.931   4.223  0.2380  0.9799 -1.0945
20145TIP3   OH281925   2.922   5.657  12.686 -0.3484 -0.8159 -0.0670
20145TIP3    H181926   2.916   5.630  12.595 -0.4549 -2.5253  0.4295
20145TIP3    H281927   2.846   5.618  12.729 -1.8150  2.2130  0.2520
20146TIP3   OH281928   0.706   4.416  16.144 -0.3796  0.4393 -0.1374
20146TIP3    H181929   0.645   4.489  16.159  0.1146  0.7687  0.2903
20146TIP3    H281930   0.655   4.338  16.165 -0.3379  0.7717  1.3013
20147TIP3   OH281931   5.590   4.543  12.375 -0.0152 -0.0240 -0.2942
20147TIP3    H181932   5.603   4.458  12.333 -1.9383 -0.0394 -0.8740
20147TIP3    H281933   5.614   4.607  12.308 -0.4994 -0.0822 -0.5231
20148TIP3   OH281934   6.337   4.243  16.981 -0.0361  0.5808  0.4010
20148TIP3    H181935   6.310   4.335  16.976  0.4117  0.7142  0.4831
20148TIP3    H281936   6.255   4.195  16.997 -0.1246  1.0519  1.3498
20149TIP3   OH281937   3.552   2.496   0.025  0.3189  0.3876  0.3254
20149TIP3    H181938   3.607   2.569  -0.001  0.5157  0.2086  0.2376
20149TIP3    H281939   3.513   2.524   0.108 -0.9049  1.2677 -0.5221
20150TIP3   OH281940   4.770   0.565  15.781 -0.6057  0.0039 -0.3258
20150TIP3    H181941   4.864   0.577  15.782 -0.7061  0.8145 -0.7575
20150TIP3    H281942   4.736   0.628  15.844 -0.7257 -1.5336  1.1994
20151TIP3   OH281943   6.516   6.171  14.320  0.1682  0.4199 -0.7488
20151TIP3    H181944   6.478   6.256  14.297  0.2026 -0.0037 -2.5059
20151TIP3    H281945   6.481   6.111  14.253  2.0306 -0.4516 -0.9642
20152TIP3   OH281946   0.578   2.363   2.699  0.0416 -0.8683  0.2028
20152TIP3    H181947   0.628   2.405   2.629 -0.6346  0.6633  0.6091
20152TIP3    H281948   0.605   2.410   2.778 -0.7138 -1.2310  0.6718
20153TIP3   OH281949   2.726   5.300   4.994  0.0351 -0.2051  0.3841
20153TIP3    H181950   2.698   5.210   5.009  0.5851 -0.2263  1.3154
20153TIP3    H281951   2.652   5.354   5.022 -0.0167 -0.3438  0.5136
20154TIP3   OH281952   0.763   3.363   3.843  0.5419  0.2966  0.1167
20154TIP3    H181953   0.726   3.437   3.891  0.6649 -0.4213  1.3271
20154TIP3    H281954   0.703   3.290   3.860  2.0837 -0.6819  1.4941
20155TIP3   OH281955   1.565   5.930  17.107  0.0724 -0.0664 -0.0700
20155TIP3    H181956   1.618   5.855  17.132 -0.3825 -0.0773  0.8844
20155TIP3    H281957   1.601   5.958  17.023 -0.3332 -1.8871 -0.8578
20156TIP3   OH281958   2.960   6.353  15.928  0.1970 -0.1127 -0.3808
20156TIP3    H181959   3.016   6.305  15.867  0.4475  0.5407 -0.6740
20156TIP3    H281960   2.940   6.291  15.998  0.0682 -0.8070 -1.0339
20157TIP3   OH281961   3.196   1.178  17.285 -0.3835  0.1906 -0.6686
20157TIP3    H181962   3.143   1.188  17.206  0.7163 -1.6742 -1.6772
20157TIP3    H281963   3.142   1.123  17.343 -0.8394  0.8631 -0.4555
20158TIP3   OH281964   6.720   6.172  11.738  0.1126 -0.0256 -0.2858
20158TIP3    H181965   6.786   6.233  11.769 -0.0944 -0.1688  0.4410
20158TIP3    H281966   6.684   6.133  11.818 -0.1136 -0.7174 -0.7185
20159TIP3   OH281967   2.725   2.614   1.688 -0.1834 -0.4205  0.3175
20159TIP3    H181968   2.750   2.687   1.744  0.7033 -0.0158 -0.6042
20159TIP3    H281969   2.793   2.548   1.702  0.1494 -0.2398 -0.4334
20160TIP3   OH281970   5.711   1.774  15.293  0.1745  0.5523  0.1545
20160TIP3    H181971   5.637   1.758  15.352 -0.8327 -0.3940 -1.3171
20160TIP3    H281972   5.672   1.771  15.205  2.1517 -1.0991 -0.6995
20161TIP3   OH281973   4.903   5.506  13.284  0.4535 -0.0232  0.0098
20161TIP3    H181974   4.956   5.573  13.326  1.1780 -0.0439 -0.8391
20161TIP3    H281975   4.821   5.505  13.333 -0.5067  3.1433 -1.3808
20162TIP3   OH281976   5.958   5.873   4.291 -0.1235  0.1810 -0.2928
20162TIP3    H181977   5.900   5.805   4.256  0.5501 -0.9901  0.8005
20162TIP3    H281978   5.941   5.871   4.386  0.6472  0.8246 -0.1424
20163TIP3   OH281979   0.312   3.532  12.344 -0.3015 -0.6079 -0.3153
20163TIP3    H181980   0.219   3.547  12.363 -0.1784  0.0198 -0.2028
20163TIP3    H281981   0.343   3.477  12.415  0.1786  1.7769  1.3655
20164TIP3   OH281982   0.376   2.674   0.957 -0.3741 -0.4961  0.0726
20164TIP3    H181983   0.344   2.674   1.048  1.4222  0.2813  0.7382
20164TIP3    H281984   0.440   2.746   0.955  1.0045 -1.7370 -1.3001
20165TIP3   OH281985   3.529   1.399   4.359  0.1694  0.1155  0.6202
20165TIP3    H181986   3.550   1.395   4.452 -0.0107 -0.3999  0.6378
20165TIP3    H281987   3.534   1.309   4.329 -2.0205 -0.0348  0.6311
20166TIP3   OH281988   2.695   2.282  13.213 -0.1591  0.2873 -0.4458
20166TIP3    H181989   2.783   2.251  13.196 -1.0362 -1.6487 -1.6243
20166TIP3    H281990   2.653   2.284  13.127 -0.9287  2.3126 -0.0589
20167TIP3   OH281991   2.829   2.287  12.731  0.5434  0.2266 -0.2200
20167TIP3    H181992   2.741   2.273  12.766  0.7296 -0.9223 -0.1830
20167TIP3    H281993   2.849   2.379  12.749 -0.5621  0.4314 -0.0377
20168TIP3   OH281994   6.693   6.489  14.105  0.2912  0.6501  0.4673
20168TIP3    H181995   6.698   6.459  14.014 -0.8800 -0.6803  0.8095
20168TIP3    H281996   6.764   6.552  14.114  0.9420  0.1727 -1.1429
20169TIP3   OH281997   3.162   1.139  15.373  0.0200  0.3587  0.0547
20169TIP3    H181998   3.108   1.115  15.448  0.7644 -0.2745  0.3973
20169TIP3    H281999   3.188   1.230  15.389  1.1799 -0.1637  1.1774
20170TIP3   OH282000   2.749   6.600   2.019 -0.2811  0.4952 -0.0694
20170TIP3    H182001   2.837   6.571   2.045 -0.0698  1.5346  0.3883
20170TIP3    H282002   2.690   6.537   2.059  0.1187  1.2498  1.7515
20171TIP3   OH282003   5.934   3.197   1.335 -0.4774 -0.5513 -0.6541
20171TIP3    H182004   5.864   3.197   1.270 -0.1700  1.5449 -1.0286
20171TIP3    H282005   6.004   3.248   1.295  1.3466 -2.7466 -0.3488
20172TIP3   OH282006   5.503   2.730  10.656  0.3955 -0.3907 -0.3626
20172TIP3    H182007   5.590   2.731  10.696  0.6321 -0.1021 -0.8780
20172TIP3    H282008   5.519   2.746  10.563 -0.3313  1.3221 -0.2249
20173TIP3   OH282009   3.319   6.390  17.080  0.1904  0.0116  0.2430
20173TIP3    H182010   3.324   6.299  17.049 -0.9140  0.1399 -0.3633
20173TIP3    H282011   3.264   6.434  17.015  1.1823  1.2558  0.2251
20174TIP3   OH282012   1.037   0.650  14.680 -0.1378 -0.2910 -0.2190
20174TIP3    H182013   0.953   0.696  14.684 -0.2132 -0.1752 -2.4370
20174TIP3    H282014   1.044   0.621  14.588  1.4703 -1.7482  0.3333
20175TIP3   OH282015   4.150   0.563   4.173  0.0751  0.0657  0.4131
20175TIP3    H182016   4.162   0.651   4.138 -0.1296  0.2643  0.8447
20175TIP3    H282017   4.147   0.507   4.096 -4.7857  0.9626 -0.1570
20176TIP3   OH282018   6.783   4.550   3.405  0.0950  0.1320 -0.8125
20176TIP3    H182019   6.760   4.520   3.317  1.8700  0.6437 -1.4593
20176TIP3    H282020   6.752   4.641   3.408 -0.2550  0.0119 -0.7951
20177TIP3   OH282021   2.996   1.939   2.834 -0.3992 -0.0191 -0.5099
20177TIP3    H182022   2.998   2.033   2.853  1.9890 -0.3055  0.9409
20177TIP3    H282023   2.920   1.906   2.882 -0.5218  0.9715 -0.0156
20178TIP3   OH282024   4.686   5.668  10.877  0.0913 -0.0076 -0.3970
20178TIP3    H182025   4.757   5.698  10.934  0.9178 -1.2691 -0.7438
20178TIP3    H282026   4.704   5.708  10.793  0.6083 -0.6301 -0.5844
20179TIP3   OH282027   6.079   6.666   1.596 -0.2142  0.0045 -0.3716
20179TIP3    H182028   6.062   6.685   1.688 -1.9201 -1.4037 -0.3705
20179TIP3    H282029   6.081   6.752   1.553 -1.9528  0.5194  0.5533
20180TIP3   OH282030   6.772   0.636  12.269 -0.0166 -0.2983  0.0823
20180TIP3    H182031   6.842   0.698  12.289  1.4748 -1.5801 -1.1113
20180TIP3    H282032   6.779   0.570  12.338 -1.7358  0.9262  1.4726
20181TIP3   OH282033   5.134   0.125   0.491 -0.0941  0.8438  0.1255
20181TIP3    H182034   5.165   0.059   0.553 -0.4629  0.8361  0.3025
20181TIP3    H282035   5.047   0.095   0.464  0.0933  0.8142 -0.4465
20182TIP3   OH282036   5.798   1.369   2.168  0.3282  0.0969 -0.2013
20182TIP3    H182037   5.768   1.456   2.143  2.2091  0.6437 -0.6805
20182TIP3    H282038   5.784   1.316   2.089 -1.3122 -0.1842  0.2631
20183TIP3   OH282039   2.250   1.234   3.809 -0.4372 -0.1641 -0.1352
20183TIP3    H182040   2.160   1.203   3.821 -0.2522 -1.0141 -0.8837
20183TIP3    H282041   2.276   1.199   3.724  0.7792 -0.3696  0.3128
20184TIP3   OH282042   4.492   1.247  14.091  0.1036  0.0651 -0.2478
20184TIP3    H182043   4.458   1.170  14.046  0.1525  0.9209 -1.7610
20184TIP3    H282044   4.417   1.282  14.139 -0.5160  0.4711 -1.5127
20185TIP3   OH282045   5.191   4.580   1.740 -0.1432  0.1417  0.0906
20185TIP3    H182046   5.221   4.491   1.757 -0.3232 -0.5017 -2.7561
20185TIP3    H282047   5.245   4.634   1.798  0.4766 -1.7247  1.3131
20186TIP3   OH282048   3.238   6.512  13.055 -0.0539  0.4561 -0.3700
20186TIP3    H182049   3.265   6.535  13.144  2.3986 -0.5836 -0.8096
20186TIP3    H282050   3.147   6.485  13.064  0.4193 -0.4895  1.9843
20187TIP3   OH282051   2.146   0.799   4.749 -0.3174  0.5897  0.0525
20187TIP3    H182052   2.175   0.831   4.664 -1.0471  0.6594 -0.1751
20187TIP3    H282053   2.226   0.770   4.792  0.1603  1.3120 -0.3344
20188TIP3   OH282054   6.535   4.452  16.801  0.3615  0.0492  0.3857
20188TIP3    H182055   6.600   4.440  16.732  0.3399 -0.6056  0.4770
20188TIP3    H282056   6.575   4.415  16.879  0.0475  0.0283  0.5366
20189TIP3   OH282057   1.734   1.267   1.306 -0.1828 -0.5730  0.2733
20189TIP3    H182058   1.816   1.311   1.281  1.1310 -2.4387  1.2233
20189TIP3    H282059   1.709   1.217   1.229 -0.9525  0.7278 -0.3402
20190TIP3   OH282060   4.362   4.588  15.882 -0.5039 -0.1229  0.7214
20190TIP3    H182061   4.376   4.577  15.788 -0.9730 -1.4428  0.7916
20190TIP3    H282062   4.285   4.534  15.902 -1.5479  1.6283  1.5434
20191TIP3   OH282063   1.758   0.538  12.836 -0.0356  0.1957 -0.3711
20191TIP3    H182064   1.827   0.519  12.899  0.3174 -0.6944 -1.0266
20191TIP3    H282065   1.680   0.496  12.871  0.0375  0.1449 -0.2721
20192TIP3   OH282066   4.475   1.074   0.177 -0.0952 -0.0770  0.1152
20192TIP3    H182067   4.515   1.143   0.230  1.1952 -0.1807 -0.7003
20192TIP3    H282068   4.530   0.997   0.194 -0.1398 -0.3024 -0.7582
20193TIP3   OH282069   0.864   4.730  14.748  0.7474 -0.2200  0.2605
20193TIP3    H182070   0.956   4.716  14.726  0.8409 -0.1621  0.6162
20193TIP3    H282071   0.854   4.825  14.753  0.5757 -0.2162 -0.1745
20194TIP3   OH282072   0.260   0.390   2.045  0.2857  0.4195 -0.1847
20194TIP3    H182073   0.186   0.450   2.049 -0.5977 -0.4440 -2.5102
20194TIP3    H282074   0.259   0.344   2.129 -1.3749  0.9279  0.0876
20195TIP3   OH282075   2.897   2.979   2.244 -0.1010 -0.1500  0.0800
20195TIP3    H182076   2.893   3.048   2.311  0.6279  0.0404 -0.0691
20195TIP3    H282077   2.953   2.912   2.283 -1.7330 -1.1809  0.6950
20196TIP3   OH282078   1.022   0.922  14.299  0.5405 -0.4365  0.2222
20196TIP3    H182079   0.976   0.915  14.383 -3.1062  1.7742 -1.4240
20196TIP3    H282080   1.070   1.004  14.305 -0.6669  0.3130 -0.2553
20197TIP3   OH282081   0.147   2.523   6.706 -0.0864  0.2852  0.2370
20197TIP3    H182082   0.230   2.555   6.743 -0.0684  1.2092 -0.5897
20197TIP3    H282083   0.168   2.437   6.671  0.4872  0.4476  0.1788
20198TIP3   OH282084   5.830   5.195  11.326 -0.3404 -0.9458  0.2340
20198TIP3    H182085   5.817   5.235  11.412  1.0982 -1.5062  0.7374
20198TIP3    H282086   5.743   5.165  11.300 -1.1634  1.0889  0.5397
20199TIP3   OH282087   1.628   2.637  11.825 -0.2047 -1.1203 -0.2225
20199TIP3    H182088   1.558   2.670  11.768 -0.4828 -0.6506  0.3710
20199TIP3    H282089   1.704   2.629  11.768 -0.5994 -1.1073 -0.7590
20200TIP3   OH282090   3.817   6.793   3.105  0.3900 -0.2361 -0.9726
20200TIP3    H182091   3.789   6.703   3.089 -0.6285 -0.0025 -0.5090
20200TIP3    H282092   3.749   6.847   3.064  0.7470  0.3259 -0.8268
20201TIP3   OH282093   6.159   5.980   2.130 -0.2737 -0.0232 -0.0717
20201TIP3    H182094   6.115   6.037   2.193  0.6112 -0.3810  0.8685
20201TIP3    H282095   6.234   6.032   2.099 -0.3294 -0.1011 -0.3427
20202TIP3   OH282096   3.197   2.652  14.483 -0.7510 -0.0686  0.0400
20202TIP3    H182097   3.138   2.594  14.434  0.0080  0.0929 -1.0768
20202TIP3    H282098   3.148   2.674  14.562 -1.5658 -1.1999 -0.1365
20203TIP3   OH282099   2.833   1.149   5.322 -0.3604  0.1910 -0.0650
20203TIP3    H182100   2.886   1.081   5.363  0.2053  0.6971  0.0375
20203TIP3    H282101   2.843   1.133   5.228 -1.0012 -0.4589 -0.0279
20204TIP3   OH282102   0.241   3.077   3.800 -0.1402 -0.3946  0.4569
20204TIP3    H182103   0.153   3.059   3.766 -0.0820  2.1026 -1.1683
20204TIP3    H282104   0.279   3.137   3.736  3.0533 -2.0388  0.7690
20205TIP3   OH282105   4.430   0.566  14.488  1.0012  0.0429  0.5361
20205TIP3    H182106   4.368   0.639  14.482  1.1034  0.1155  0.3408
20205TIP3    H282107   4.384   0.500  14.540  0.6946  0.0324  0.2551
20206TIP3   OH282108   5.573   6.097   6.347  0.3047  0.6033  0.5731
20206TIP3    H182109   5.576   6.012   6.303  0.0101  0.5250  0.7073
20206TIP3    H282110   5.587   6.077   6.439 -1.4998  0.5130  0.8489
20207TIP3   OH282111   1.949   4.262   6.444 -0.0710  0.2237  0.3902
20207TIP3    H182112   1.899   4.343   6.434  1.2413  1.1901  1.3454
20207TIP3    H282113   1.908   4.201   6.384 -1.3218  1.4930 -0.0890
20208TIP3   OH282114   1.446   3.553  13.869 -0.6742 -0.1343  0.3344
20208TIP3    H182115   1.419   3.472  13.826 -0.7423  0.3747 -0.6051
20208TIP3    H282116   1.438   3.535  13.963 -0.5757 -1.2443  0.1322
20209TIP3   OH282117   2.131   5.307   0.926 -0.5295 -0.0180  0.1998
20209TIP3    H182118   2.183   5.245   0.875 -0.0450  0.0217  0.6356
20209TIP3    H282119   2.151   5.392   0.887  0.6215  0.1337  1.0752
20210TIP3   OH282120   5.655   0.299   4.215 -0.2401  0.6100 -0.3305
20210TIP3    H182121   5.575   0.259   4.181 -0.2153  0.7976 -0.6141
20210TIP3    H282122   5.725   0.260   4.161  0.0730 -1.0948  1.2451
20211TIP3   OH282123   6.527   0.274   0.730 -0.6121 -0.0026  0.0294
20211TIP3    H182124   6.593   0.205   0.725 -0.7750 -0.0948 -0.9677
20211TIP3    H282125   6.464   0.242   0.795 -0.7224 -0.8290 -0.4772
20212TIP3   OH282126   2.498   3.106   2.955 -0.3948  0.6283  0.2034
20212TIP3    H182127   2.425   3.059   2.995 -0.3775  0.6097  0.2134
20212TIP3    H282128   2.484   3.096   2.861 -0.5545  0.8580  0.2021
20213TIP3   OH282129   4.026   2.743   5.961 -0.0691 -0.0418  0.6378
20213TIP3    H182130   3.951   2.694   5.929 -0.4010  1.0522 -0.2859
20213TIP3    H282131   4.072   2.771   5.882 -0.1779  1.5712  1.1179
20214TIP3   OH282132   0.032   3.581  13.672  0.0071  0.0280 -0.3950
20214TIP3    H182133   0.010   3.653  13.731  1.1344 -0.4964  0.6897
20214TIP3    H282134   0.119   3.603  13.639  0.2307 -0.6907 -0.2950
20215TIP3   OH282135   1.849   0.752   3.197  0.5206 -0.3489 -0.1585
20215TIP3    H182136   1.758   0.745   3.226  0.8964 -0.3328  1.0445
20215TIP3    H282137   1.893   0.798   3.268  0.9718  1.8899 -1.8284
20216TIP3   OH282138   4.912   6.635  13.433  0.2545 -0.5507 -0.5845
20216TIP3    H182139   4.897   6.721  13.393  1.2513 -0.0634  0.0491
20216TIP3    H282140   4.973   6.591  13.374  1.5326  0.0733  0.2355
20217TIP3   OH282141   6.457   0.083   3.335  0.2345  0.8068 -0.5683
20217TIP3    H182142   6.531   0.111   3.390  0.2204  0.2167 -0.2465
20217TIP3    H282143   6.389   0.149   3.351  0.8284  1.5863 -1.1774
20218TIP3   OH282144   0.147   5.870   4.899  0.3322  0.0743 -0.0731
20218TIP3    H182145   0.088   5.850   4.971 -0.2544 -0.3787 -0.6710
20218TIP3    H282146   0.230   5.830   4.924  0.6173  1.3918  1.1417
20219TIP3   OH282147   2.789   2.881  14.914 -0.5904  0.3973 -0.3342
20219TIP3    H182148   2.841   2.959  14.932  0.0624 -0.0361 -0.3044
20219TIP3    H282149   2.843   2.809  14.947 -1.5421  0.0008  0.3731
20220TIP3   OH282150   4.098   3.824  10.222  0.2045  0.5252  0.0162
20220TIP3    H182151   4.030   3.791  10.163  1.5950 -0.4841 -1.0499
20220TIP3    H282152   4.091   3.769  10.299  0.8042 -0.5945 -0.7121
20221TIP3   OH282153   5.314   3.363   2.117 -0.1883  0.1928 -0.4300
20221TIP3    H182154   5.254   3.291   2.096  1.1094 -1.4773  1.4324
20221TIP3    H282155   5.401   3.326   2.103  0.4730  1.6260 -0.1031
20222TIP3   OH282156   3.785   5.632  12.794  0.2455  0.3488  0.2948
20222TIP3    H182157   3.814   5.620  12.704 -1.0530  0.4032 -0.1443
20222TIP3    H282158   3.697   5.594  12.796  0.8684 -1.0688  1.9344
20223TIP3   OH282159   6.093   0.870  11.803  0.3180  0.1279 -0.0664
20223TIP3    H182160   6.108   0.952  11.851 -0.3926  0.0255  0.3410
20223TIP3    H282161   5.999   0.855  11.811  0.3313 -0.3396 -0.7789
20224TIP3   OH282162   6.354   1.975   3.555  0.1319  0.2786  0.1069
20224TIP3    H182163   6.367   2.067   3.578 -0.3007  1.0720 -2.5892
20224TIP3    H282164   6.441   1.943   3.531  0.0000  0.4789 -0.6369
20225TIP3   OH282165   6.463   5.078   5.628 -0.2311  0.3765  0.1603
20225TIP3    H182166   6.503   4.991   5.637 -2.1496 -0.3765  1.5975
20225TIP3    H282167   6.519   5.123   5.564  0.9306 -1.8198 -0.4239
20226TIP3   OH282168   0.777   5.765   3.040  0.1917  0.4577 -0.2902
20226TIP3    H182169   0.753   5.811   2.960 -2.7220  3.0755  2.0001
20226TIP3    H282170   0.866   5.795   3.060 -0.2044  2.0990 -0.9465
20227TIP3   OH282171   4.032   4.266   4.577  0.4727  0.2599 -0.4129
20227TIP3    H182172   3.969   4.238   4.643  1.0933  0.0090  0.0745
20227TIP3    H282173   4.008   4.357   4.558 -0.0227  0.1705 -0.2195
20228TIP3   OH282174   0.159   4.384   3.248  0.1449 -0.2832 -0.2413
20228TIP3    H182175   0.149   4.440   3.325 -0.4562 -1.2168  0.3734
20228TIP3    H282176   0.234   4.328   3.269  0.7794  0.3181 -0.8754
20229TIP3   OH282177   3.315   2.374   3.134 -0.4188 -0.9078 -0.0773
20229TIP3    H182178   3.323   2.402   3.043  0.3271 -1.1018 -0.0773
20229TIP3    H282179   3.380   2.427   3.181 -1.8221  0.2404  0.5820
20230TIP3   OH282180   6.334   5.816  12.500  0.6605 -0.4061 -0.8612
20230TIP3    H182181   6.358   5.906  12.520 -1.1311 -0.4029  1.4061
20230TIP3    H282182   6.290   5.821  12.415 -1.1153  1.1625  0.1227
20231TIP3   OH282183   1.667   5.519  12.441 -0.4526 -0.1698  0.0723
20231TIP3    H182184   1.713   5.571  12.374 -0.9291  1.2780  0.8514
20231TIP3    H282185   1.575   5.540  12.429 -0.7768 -1.7522 -0.3544
20232TIP3   OH282186   5.442   2.091  14.333 -0.4916 -0.2894 -0.0806
20232TIP3    H182187   5.399   2.097  14.248 -0.2283  1.0466 -0.1231
20232TIP3    H282188   5.471   2.180  14.352  0.0833 -0.7133  1.0812
20233TIP3   OH282189   5.702   3.910  11.856 -0.6040  0.4987  0.2747
20233TIP3    H182190   5.727   3.843  11.919  0.9740  2.3882  1.7224
20233TIP3    H282191   5.755   3.890  11.778  1.1941  1.0796  1.3241
20234TIP3   OH282192   5.394   3.521  13.888  0.3775  0.3732 -0.0580
20234TIP3    H182193   5.323   3.533  13.952  0.2807  0.7551 -0.2371
20234TIP3    H282194   5.474   3.530  13.939  0.3134 -1.6518  0.4557
20235TIP3   OH282195   6.536   0.895  13.983  0.5312  0.0424 -0.1742
20235TIP3    H182196   6.524   0.808  13.945  2.0529 -1.3804  2.4171
20235TIP3    H282197   6.473   0.899  14.055 -0.6372  1.7399 -1.2551
20236TIP3   OH282198   0.047   4.824  14.764  0.0550 -0.4666 -0.6083
20236TIP3    H182199   0.041   4.907  14.810 -0.2813 -1.3454  0.9780
20236TIP3    H282200  -0.039   4.814  14.722 -0.5119 -0.8147  0.6175
20237TIP3   OH282201   5.137   4.166  13.421 -0.0464  0.0328 -0.1707
20237TIP3    H182202   5.182   4.241  13.460 -0.3408  1.1423 -1.9441
20237TIP3    H282203   5.177   4.155  13.335 -0.5325 -1.3796 -0.2324
20238TIP3   OH282204   0.187   3.668  15.421  0.0701 -0.3591  0.5480
20238TIP3    H182205   0.149   3.680  15.334  2.2170 -0.5092 -0.4486
20238TIP3    H282206   0.152   3.740  15.473  0.5839  1.1254 -1.1014
20239TIP3   OH282207   4.030   3.344   2.679 -0.6793  0.3856  0.7609
20239TIP3    H182208   3.973   3.379   2.747  0.1103  1.2845  0.9812
20239TIP3    H282209   4.111   3.394   2.689 -0.8380  1.1162 -1.3713
20240TIP3   OH282210   5.765   5.599  11.598  0.5247 -0.6541 -0.5633
20240TIP3    H182211   5.736   5.641  11.680  0.1202 -1.4551 -0.2955
20240TIP3    H282212   5.845   5.646  11.574  1.9161 -1.9121  1.5036
20241TIP3   OH282213   3.196   1.289  11.005  0.6518 -0.4326 -0.2523
20241TIP3    H182214   3.156   1.258  11.086 -0.6425  0.9836 -0.3444
20241TIP3    H282215   3.256   1.218  10.980  1.3853 -0.6860  2.1507
20242TIP3   OH282216   4.242   3.147  15.734 -0.0298  0.5491  0.0123
20242TIP3    H182217   4.257   3.178  15.644  0.1697 -1.8325 -0.8034
20242TIP3    H282218   4.323   3.101  15.757 -1.3306 -1.7698  0.1343
20243TIP3   OH282219   3.366   3.026   4.230 -0.1434 -0.1288  0.2539
20243TIP3    H182220   3.392   2.944   4.272 -0.4077  0.0755  0.8303
20243TIP3    H282221   3.444   3.082   4.239 -0.2663 -0.0208  0.6436
20244TIP3   OH282222   2.552   6.755  14.695  0.1483 -0.4279 -0.2781
20244TIP3    H182223   2.519   6.768  14.784 -0.8381 -1.3249 -0.5012
20244TIP3    H282224   2.473   6.743  14.642  0.7689 -0.7116 -1.1407
20245TIP3   OH282225   3.928   2.936  12.372  0.2486  0.1975 -0.0938
20245TIP3    H182226   4.002   2.993  12.394  0.8168  0.0412 -1.6180
20245TIP3    H282227   3.920   2.878  12.448  1.6053  0.2892  0.1359
20246TIP3   OH282228   4.481   6.005   5.625 -0.7730  0.5583 -0.3649
20246TIP3    H182229   4.460   6.037   5.713  0.7306  0.2711  0.1092
20246TIP3    H282230   4.431   5.924   5.617  1.2323 -0.9035  1.3246
20247TIP3   OH282231   4.067   5.780  10.490 -0.6584  0.3499  0.4343
20247TIP3    H182232   4.082   5.860  10.540 -1.7791 -0.5655  2.3082
20247TIP3    H282233   3.992   5.800  10.434  0.6081  1.3842 -0.9169
20248TIP3   OH282234   6.226   6.796  16.896  0.4989  0.1830 -0.1997
20248TIP3    H182235   6.282   6.867  16.927 -1.0398  1.4617 -0.2236
20248TIP3    H282236   6.138   6.820  16.927 -0.5496 -0.1559 -2.7711
20249TIP3   OH282237   5.183   0.580   2.687 -0.1853  0.1699 -0.2935
20249TIP3    H182238   5.129   0.592   2.765 -0.1729  1.5196 -0.4703
20249TIP3    H282239   5.272   0.568   2.721  0.0601  2.2220 -0.1062
20250TIP3   OH282240   0.185   5.334  15.625 -0.6762  0.1299 -0.3712
20250TIP3    H182241   0.236   5.276  15.569 -1.7542 -0.2475 -0.9744
20250TIP3    H282242   0.247   5.364  15.691 -0.1013 -1.7721  0.0037
20251TIP3   OH282243   0.219   5.406   0.882  0.1564  0.1583  0.7155
20251TIP3    H182244   0.211   5.315   0.855 -0.5620  0.2057  0.7476
20251TIP3    H282245   0.311   5.427   0.869  0.5748 -0.9253  1.8534
20252TIP3   OH282246   5.371   5.823   5.285  0.6759 -0.2381 -0.3807
20252TIP3    H182247   5.333   5.880   5.219  1.2883  0.0382 -0.4958
20252TIP3    H282248   5.330   5.850   5.367  0.9807  0.3903 -0.4286
20253TIP3   OH282249   0.122   1.037   2.645 -0.1635 -0.2868 -0.1655
20253TIP3    H182250   0.071   1.097   2.699 -0.9789  0.1402 -1.3975
20253TIP3    H282251   0.190   1.003   2.704  0.6475  2.2452  0.3859
20254TIP3   OH282252   1.710   3.047   5.264 -0.7588 -0.2466  0.1680
20254TIP3    H182253   1.759   3.128   5.280  1.4869 -1.3960 -0.6170
20254TIP3    H282254   1.655   3.066   5.189 -0.7280  0.7416  0.3892
20255TIP3   OH282255   2.684   1.388  16.484 -0.4553 -0.3453 -0.2491
20255TIP3    H182256   2.668   1.300  16.450  0.9092 -0.4615 -0.6148
20255TIP3    H282257   2.598   1.419  16.512 -0.7428 -2.3927  1.2997
20256TIP3   OH282258   5.332   5.082  17.023  0.1754  0.3266  0.0709
20256TIP3    H182259   5.293   5.127  17.099 -0.9680 -0.9237  0.2439
20256TIP3    H282260   5.260   5.031  16.986  1.0813 -0.1611 -1.0356
20257TIP3   OH282261   1.917   1.664   6.001  0.0560  0.1963 -0.1665
20257TIP3    H182262   1.827   1.691   6.021 -0.7874 -2.4622 -0.1432
20257TIP3    H282263   1.908   1.612   5.921  1.0618 -2.9469  1.7009
20258TIP3   OH282264   3.071   6.129  15.739 -0.4590 -0.7928  0.3738
20258TIP3    H182265   2.999   6.076  15.772 -1.1967  0.4590  0.8084
20258TIP3    H282266   3.098   6.086  15.658 -1.2574 -1.6350  0.5479
20259TIP3   OH282267   0.464   2.321  10.983 -0.2203  0.6462 -0.4045
20259TIP3    H182268   0.453   2.240  11.033 -0.9419  1.8315  1.4130
20259TIP3    H282269   0.411   2.308  10.904  0.3521 -0.9689 -0.5326
20260TIP3   OH282270   5.401   1.574  14.483  0.6085  0.2057 -0.7175
20260TIP3    H182271   5.457   1.564  14.560  0.9632 -1.0138 -1.1281
20260TIP3    H282272   5.378   1.667  14.483  1.2098  0.3696  0.4377
20261TIP3   OH282273   6.090   1.959   2.430 -0.0821 -0.2207  0.3657
20261TIP3    H182274   6.042   2.037   2.457 -1.2114 -0.0494 -1.9995
20261TIP3    H282275   6.182   1.987   2.428 -0.6205  1.4967 -1.8644
20262TIP3   OH282276   5.596   2.840  15.041 -0.0833 -0.0556  0.2570
20262TIP3    H182277   5.624   2.751  15.019 -0.5056  0.1533 -1.2172
20262TIP3    H282278   5.657   2.868  15.109  1.5137 -0.6442 -0.9015
20263LIG     O182279   1.615   1.299  16.458  0.1568 -0.1802 -0.1167
20263LIG     O282280   1.529   1.181  16.022  0.6992 -0.0386  0.4691
20263LIG     N182281   1.578   1.402  16.053  0.6837  0.0388 -0.1409
20263LIG     N282282   1.685   1.575  16.351  0.4352 -0.4706  0.4211
20263LIG     N382283   1.558   1.242  16.238 -0.2079  0.6394  0.7535
20263LIG     N482284   1.665   1.613  16.133  0.4651  0.2938  0.4147
20263LIG     C182285   1.629   1.458  16.296 -0.0902 -0.9012 -0.0834
20263LIG     C282286   1.614   1.485  16.161  0.1938 -0.4373  0.3977
20263LIG     C382287   1.603   1.334  16.337  0.2462  0.2773  0.6289
20263LIG     C482288   1.555   1.271  16.099  0.0433  0.7589 -0.1548
20263LIG     C582289   1.697   1.666  16.250  0.0065  0.4464  0.3456
20263LIG     C682290   1.577   1.427  15.910 -0.0107  0.3784 -0.8182
20263LIG     C782291   1.715   1.589  16.499 -0.3047 -0.0639 -0.7635
20263LIG     C882292   1.533   1.101  16.283 -0.3617  0.4087 -0.3382
20263LIG     H182293   1.721   1.771  16.269  3.0654 -0.1996  0.2634
20263LIG     H282294   1.657   1.369  15.857  0.2337 -1.9077  1.9087
20263LIG     H382295   1.572   1.536  15.893 -0.6084  0.3132 -1.0562
20263LIG     H482296   1.482   1.382  15.874 -0.3905 -0.7934  1.5937
20263LIG     H582297   1.807   1.530  16.518 -0.5049  0.5431  2.2655
20263LIG     H682298   1.628   1.551  16.557  0.8776 -0.9672  0.4408
20263LIG     H782299   1.737   1.692  16.531 -0.5992 -0.2124 -0.0744
20263LIG     H882300   1.624   1.045  16.257 -0.7655 -0.4652  0.1148
20263LIG     H982301   1.454   1.049  16.225 -2.1443  1.8754  0.6970
20263LIG    H1082302   1.504   1.093  16.390  2.3924  1.3153  0.5216
   6.82013   6.82013  17.29240
